<LesHouchesEvents version="1.0">
<header>
<slha>
######################################################################
## PARAM_CARD AUTOMATICALY GENERATED BY MG5 FOLLOWING UFO MODEL   ####
######################################################################
##                                                                  ##
##  Width set on Auto will be computed following the information    ##
##        present in the decay.py files of the model.               ##
##        See  arXiv:1402.1178 for more details.                    ##
##                                                                  ##
######################################################################

###################################
## INFORMATION FOR MASS
###################################
Block mass 
    6 1.730000e+02 # MT 
   15 1.777000e+00 # MTA 
   23 9.118800e+01 # MZ 
   25 1.250000e+02 # MH 
## Dependent parameters, given by model restrictions.
## Those values should be edited following the 
## analytical expression. MG5 ignores those values 
## but they are important for interfacing the output of MG5
## to external program such as Pythia.
  1 0.000000 # d : 0.0 
  2 0.000000 # u : 0.0 
  3 0.000000 # s : 0.0 
  4 0.000000 # c : 0.0 
  5 0.000000 # b : 0.0 
  11 0.000000 # e- : 0.0 
  12 0.000000 # ve : 0.0 
  13 0.000000 # mu- : 0.0 
  14 0.000000 # vm : 0.0 
  16 0.000000 # vt : 0.0 
  21 0.000000 # g : 0.0 
  22 0.000000 # a : 0.0 
  24 80.419002 # w+ : cmath.sqrt(MZ__exp__2/2. + cmath.sqrt(MZ__exp__4/4. - (aEW*cmath.pi*MZ__exp__2)/(Gf*sqrt__2))) 

###################################
## INFORMATION FOR SMINPUTS
###################################
Block sminputs 
    1 1.325070e+02 # aEWM1 
    2 1.166390e-05 # Gf 
    3 1.180000e-01 # aS 

###################################
## INFORMATION FOR WOLFENSTEIN
###################################
Block wolfenstein 
    1 2.253000e-01 # lamWS 
    2 8.080000e-01 # AWS 
    3 1.320000e-01 # rhoWS 
    4 3.410000e-01 # etaWS 

###################################
## INFORMATION FOR YUKAWA
###################################
Block yukawa 
    6 1.730000e+02 # ymt 
   15 1.777000e+00 # ymtau 

###################################
## INFORMATION FOR DECAY
###################################
DECAY   6 1.491500e+00 # WT 
DECAY  15 2.270000e-12 # WTau 
DECAY  23 2.441404e+00 # WZ 
DECAY  24 2.047600e+00 # WW 
DECAY  25 6.382339e-03 # WH 
## Dependent parameters, given by model restrictions.
## Those values should be edited following the 
## analytical expression. MG5 ignores those values 
## but they are important for interfacing the output of MG5
## to external program such as Pythia.
DECAY  1 0.000000 # d : 0.0 
DECAY  2 0.000000 # u : 0.0 
DECAY  3 0.000000 # s : 0.0 
DECAY  4 0.000000 # c : 0.0 
DECAY  5 0.000000 # b : 0.0 
DECAY  11 0.000000 # e- : 0.0 
DECAY  12 0.000000 # ve : 0.0 
DECAY  13 0.000000 # mu- : 0.0 
DECAY  14 0.000000 # vm : 0.0 
DECAY  16 0.000000 # vt : 0.0 
DECAY  21 0.000000 # g : 0.0 
DECAY  22 0.000000 # a : 0.0
</slha>
</header>
<init>
    2212  2212  6.5000000E+03  6.5000000E+03  -1  -1  -1  -1  3  1
	1.0000000E+00	0.0000000E+00	1.0000000E+00	1
</init>
<event>
    11  -1  1.0000000E+00  1.0000000E+00  -1.0000000E+00  -1.0000000E+00
	2212	-1	0	0	0	0	0.0000000000E+00	0.0000000000E+00	6.5000000000E+03	6.5000000000E+03	9.3827000000E-01	0.000E+00	0.0
	2212	-1	0	0	0	0	0.0000000000E+00	0.0000000000E+00	-6.5000000000E+03	6.5000000000E+03	9.3827000000E-01	0.000E+00	0.0
	2212	1	0	0	0	0	0.0000000000E+00	0.0000000000E+00	5.3881718564E+03	5.3881718564E+03	9.3827000000E-01	0.000E+00	0.0
	2212	1	0	0	0	0	0.0000000000E+00	0.0000000000E+00	-6.2337745475E+03	6.2337745475E+03	9.3827000000E-01	0.000E+00	0.0
	51	2	1	2	0	0	-8.5522632480E+01	-9.9012040040E+00	7.0709893275E+02	1.3005340663E+03	1.0881120358E+03	0.000E+00	0.0
	1000022	2	5	5	0	0	8.5522632480E+01	9.9012040040E+00	8.4332071007E+02	1.2261387867E+03	8.8589748268E+02	0.000E+00	0.0
	14	1	6	6	0	0	-9.1085913587E-01	9.2424816146E+01	8.1074346013E+02	8.7833543390E+02	3.2500000000E+02	0.000E+00	0.0
	-14	1	6	6	0	0	8.6433491616E+01	-8.2523612142E+01	3.2577249939E+01	3.4780335284E+02	3.2500000000E+02	0.000E+00	0.0
	25	2	5	5	0	0	-8.5522632480E+01	-9.9012040040E+00	2.2819811054E+00	1.5191480936E+02	1.2514290774E+02	0.000E+00	0.0
	-5	1	9	9	0	501	-1.0371207241E+02	-8.4085188667E+00	-3.5275778687E+01	1.0994885227E+02	4.1800000000E+00	0.000E+00	0.0
	5	1	9	9	501	0	1.8189439929E+01	-1.4926851373E+00	3.7557759793E+01	4.1965957090E+01	4.1800000000E+00	0.000E+00	0.0
</event>
<event>
    11  -1  1.0000000E+00  1.0000000E+00  -1.0000000E+00  -1.0000000E+00
	2212	-1	0	0	0	0	0.0000000000E+00	0.0000000000E+00	6.5000000000E+03	6.5000000000E+03	9.3827000000E-01	0.000E+00	0.0
	2212	-1	0	0	0	0	0.0000000000E+00	0.0000000000E+00	-6.5000000000E+03	6.5000000000E+03	9.3827000000E-01	0.000E+00	0.0
	2212	1	0	0	0	0	0.0000000000E+00	0.0000000000E+00	6.3316841947E+03	6.3316841947E+03	9.3827000000E-01	0.000E+00	0.0
	2212	1	0	0	0	0	0.0000000000E+00	0.0000000000E+00	-4.8539617288E+03	4.8539617288E+03	9.3827000000E-01	0.000E+00	0.0
	51	2	1	2	0	0	6.3244809462E+01	4.5176766059E+01	-1.6909562067E+03	1.9933867582E+03	1.0527188743E+03	0.000E+00	0.0
	1000022	2	5	5	0	0	-6.3244809462E+01	-4.5176766059E+01	-1.0140464887E+03	1.3278273265E+03	8.5369448973E+02	0.000E+00	0.0
	14	1	6	6	0	0	-1.5816409601E+02	8.8286279253E+01	-8.5150782995E+02	9.2924750892E+02	3.2500000000E+02	0.000E+00	0.0
	-14	1	6	6	0	0	9.4919286546E+01	-1.3346304531E+02	-1.6253865870E+02	3.9857981759E+02	3.2500000000E+02	0.000E+00	0.0
	25	2	5	5	0	0	6.3244809462E+01	4.5176766059E+01	-4.6367597734E+02	4.8652674998E+02	1.2518794016E+02	0.000E+00	0.0
	-5	1	9	9	0	501	8.6223641470E+01	-1.0413148280E+01	-2.8277809553E+02	2.9584434035E+02	4.1800000000E+00	0.000E+00	0.0
	5	1	9	9	501	0	-2.2978832008E+01	5.5589914339E+01	-1.8089788181E+02	1.9068240962E+02	4.1800000000E+00	0.000E+00	0.0
</event>
<event>
    11  -1  1.0000000E+00  1.0000000E+00  -1.0000000E+00  -1.0000000E+00
	2212	-1	0	0	0	0	0.0000000000E+00	0.0000000000E+00	6.5000000000E+03	6.5000000000E+03	9.3827000000E-01	0.000E+00	0.0
	2212	-1	0	0	0	0	0.0000000000E+00	0.0000000000E+00	-6.5000000000E+03	6.5000000000E+03	9.3827000000E-01	0.000E+00	0.0
	2212	1	0	0	0	0	0.0000000000E+00	0.0000000000E+00	5.1974893595E+03	5.1974893595E+03	9.3827000000E-01	0.000E+00	0.0
	2212	1	0	0	0	0	0.0000000000E+00	0.0000000000E+00	-6.2902542139E+03	6.2902542139E+03	9.3827000000E-01	0.000E+00	0.0
	51	2	1	2	0	0	3.0788769513E+01	1.4612655998E+02	1.0850485856E+03	1.5140725959E+03	1.0453633208E+03	0.000E+00	0.0
	1000022	2	5	5	0	0	-3.0788769513E+01	-1.4612655998E+02	9.0750217968E+02	1.2433803802E+03	8.3673989027E+02	0.000E+00	0.0
	14	1	6	6	0	0	-2.2749186438E+01	1.9417393702E+02	4.1229728258E+02	5.6020986472E+02	3.2500000000E+02	0.000E+00	0.0
	-14	1	6	6	0	0	-8.0395830750E+00	-3.4030049701E+02	4.9520489709E+02	6.8317051551E+02	3.2500000000E+02	0.000E+00	0.0
	25	2	5	5	0	0	3.0788769513E+01	1.4612655998E+02	1.8526267475E+02	2.6887604630E+02	1.2518446292E+02	0.000E+00	0.0
	-5	1	9	9	0	501	-3.5523387960E+00	-2.1545465439E+01	3.2806627953E+01	3.9630460880E+01	4.1800000000E+00	0.000E+00	0.0
	5	1	9	9	501	0	3.4341108309E+01	1.6767202542E+02	1.5245604680E+02	2.2924558542E+02	4.1800000000E+00	0.000E+00	0.0
</event>
<event>
    11  -1  1.0000000E+00  1.0000000E+00  -1.0000000E+00  -1.0000000E+00
	2212	-1	0	0	0	0	0.0000000000E+00	0.0000000000E+00	6.5000000000E+03	6.5000000000E+03	9.3827000000E-01	0.000E+00	0.0
	2212	-1	0	0	0	0	0.0000000000E+00	0.0000000000E+00	-6.5000000000E+03	6.5000000000E+03	9.3827000000E-01	0.000E+00	0.0
	2212	1	0	0	0	0	0.0000000000E+00	0.0000000000E+00	5.7079006117E+03	5.7079006117E+03	9.3827000000E-01	0.000E+00	0.0
	2212	1	0	0	0	0	0.0000000000E+00	0.0000000000E+00	-6.1543278378E+03	6.1543278378E+03	9.3827000000E-01	0.000E+00	0.0
	51	2	1	2	0	0	-6.7350176429E+01	-1.4905978173E+01	5.2553135251E+02	1.1731019861E+03	1.0465308561E+03	0.000E+00	0.0
	1000022	2	5	5	0	0	6.7350176429E+01	1.4905978173E+01	3.0124919704E+02	9.3404411257E+02	8.8143581222E+02	0.000E+00	0.0
	14	1	6	6	0	0	-1.4337916383E+02	-2.0311280712E+02	2.3389719451E+01	4.0985909288E+02	3.2500000000E+02	0.000E+00	0.0
	-14	1	6	6	0	0	2.1072934026E+02	2.1801878530E+02	2.7785947758E+02	5.2418501969E+02	3.2500000000E+02	0.000E+00	0.0
	25	2	5	5	0	0	-6.7350176429E+01	-1.4905978173E+01	1.4517802903E+02	2.0372743789E+02	1.2517976828E+02	0.000E+00	0.0
	-5	1	9	9	0	501	-9.5592715216E+01	5.3338547971E+00	1.3798498008E+02	1.6799923910E+02	4.1800000000E+00	0.000E+00	0.0
	5	1	9	9	501	0	2.8242538788E+01	-2.0239832971E+01	7.1930489518E+00	3.5728198794E+01	4.1800000000E+00	0.000E+00	0.0
</event>
<event>
    11  -1  1.0000000E+00  1.0000000E+00  -1.0000000E+00  -1.0000000E+00
	2212	-1	0	0	0	0	0.0000000000E+00	0.0000000000E+00	6.5000000000E+03	6.5000000000E+03	9.3827000000E-01	0.000E+00	0.0
	2212	-1	0	0	0	0	0.0000000000E+00	0.0000000000E+00	-6.5000000000E+03	6.5000000000E+03	9.3827000000E-01	0.000E+00	0.0
	2212	1	0	0	0	0	0.0000000000E+00	0.0000000000E+00	5.6044515117E+03	5.6044515117E+03	9.3827000000E-01	0.000E+00	0.0
	2212	1	0	0	0	0	0.0000000000E+00	0.0000000000E+00	-6.1963882192E+03	6.1963882192E+03	9.3827000000E-01	0.000E+00	0.0
	51	2	1	2	0	0	3.3213969144E+00	-4.2581590221E+01	7.3978718537E+02	1.2793379493E+03	1.0428788450E+03	0.000E+00	0.0
	1000022	2	5	5	0	0	-3.3213969144E+00	4.2581590221E+01	3.4571421656E+02	9.1969809082E+02	8.5117685309E+02	0.000E+00	0.0
	14	1	6	6	0	0	2.5130883272E+02	9.0995634279E+01	2.6190055932E+02	4.9563417743E+02	3.2500000000E+02	0.000E+00	0.0
	-14	1	6	6	0	0	-2.5463022963E+02	-4.8414044057E+01	8.3813657235E+01	4.2406391340E+02	3.2500000000E+02	0.000E+00	0.0
	25	2	5	5	0	0	3.3213969144E+00	-4.2581590221E+01	2.4622249094E+02	2.7946217828E+02	1.2509744418E+02	0.000E+00	0.0
	-5	1	9	9	0	501	4.7652965817E+01	-4.5333292441E+01	6.4029989290E+01	9.1887020210E+01	4.1800000000E+00	0.000E+00	0.0
	5	1	9	9	501	0	-4.4331568902E+01	2.7517022195E+00	1.8219250165E+02	1.8757515807E+02	4.1800000000E+00	0.000E+00	0.0
</event>
<event>
    11  -1  1.0000000E+00  1.0000000E+00  -1.0000000E+00  -1.0000000E+00
	2212	-1	0	0	0	0	0.0000000000E+00	0.0000000000E+00	6.5000000000E+03	6.5000000000E+03	9.3827000000E-01	0.000E+00	0.0
	2212	-1	0	0	0	0	0.0000000000E+00	0.0000000000E+00	-6.5000000000E+03	6.5000000000E+03	9.3827000000E-01	0.000E+00	0.0
	2212	1	0	0	0	0	0.0000000000E+00	0.0000000000E+00	6.2439645795E+03	6.2439645795E+03	9.3827000000E-01	0.000E+00	0.0
	2212	1	0	0	0	0	0.0000000000E+00	0.0000000000E+00	-5.4285303024E+03	5.4285303024E+03	9.3827000000E-01	0.000E+00	0.0
	51	2	1	2	0	0	5.3374451843E+01	5.0523843655E+01	-9.6766223810E+02	1.4279735559E+03	1.0475384377E+03	0.000E+00	0.0
	1000022	2	5	5	0	0	-5.3374451843E+01	-5.0523843655E+01	-5.2605239523E+02	1.0037537783E+03	8.5169773630E+02	0.000E+00	0.0
	14	1	6	6	0	0	5.9935586638E+01	-2.2907279116E+02	-4.5905727779E+02	6.1026650120E+02	3.2500000000E+02	0.000E+00	0.0
	-14	1	6	6	0	0	-1.1331003848E+02	1.7854894751E+02	-6.6995117448E+01	3.9348727710E+02	3.2500000000E+02	0.000E+00	0.0
	25	2	5	5	0	0	5.3374451843E+01	5.0523843655E+01	-2.8938188182E+02	3.2375133983E+02	1.2518612394E+02	0.000E+00	0.0
	-5	1	9	9	0	501	2.7941412564E+00	6.5821701299E+01	-6.3017404057E+01	9.1263186452E+01	4.1800000000E+00	0.000E+00	0.0
	5	1	9	9	501	0	5.0580310587E+01	-1.5297857644E+01	-2.2636447777E+02	2.3248815338E+02	4.1800000000E+00	0.000E+00	0.0
</event>
<event>
    11  -1  1.0000000E+00  1.0000000E+00  -1.0000000E+00  -1.0000000E+00
	2212	-1	0	0	0	0	0.0000000000E+00	0.0000000000E+00	6.5000000000E+03	6.5000000000E+03	9.3827000000E-01	0.000E+00	0.0
	2212	-1	0	0	0	0	0.0000000000E+00	0.0000000000E+00	-6.5000000000E+03	6.5000000000E+03	9.3827000000E-01	0.000E+00	0.0
	2212	1	0	0	0	0	0.0000000000E+00	0.0000000000E+00	5.1879875164E+03	5.1879875164E+03	9.3827000000E-01	0.000E+00	0.0
	2212	1	0	0	0	0	0.0000000000E+00	0.0000000000E+00	-6.2870012026E+03	6.2870012026E+03	9.3827000000E-01	0.000E+00	0.0
	51	2	1	2	0	0	1.2394838634E+02	6.0716383264E+01	1.0106261351E+03	1.4690960457E+03	1.0572740065E+03	0.000E+00	0.0
	1000022	2	5	5	0	0	-1.2394838634E+02	-6.0716383264E+01	9.9239860556E+02	1.3103373354E+03	8.4444020426E+02	0.000E+00	0.0
	14	1	6	6	0	0	-1.8513303002E+02	-2.1441127866E+02	7.7201560321E+02	8.8423951892E+02	3.2500000000E+02	0.000E+00	0.0
	-14	1	6	6	0	0	6.1184643681E+01	1.5369489539E+02	2.2038300235E+02	4.2609781649E+02	3.2500000000E+02	0.000E+00	0.0
	25	2	5	5	0	0	1.2394838634E+02	6.0716383264E+01	1.0661508062E+02	2.1467394560E+02	1.2517366269E+02	0.000E+00	0.0
	-5	1	9	9	0	501	5.3919702584E+01	8.2201753007E+01	1.8686998975E+01	1.0015557326E+02	4.1800000000E+00	0.000E+00	0.0
	5	1	9	9	501	0	7.0028683758E+01	-2.1485369743E+01	8.7928081646E+01	1.1451837234E+02	4.1800000000E+00	0.000E+00	0.0
</event>
<event>
    11  -1  1.0000000E+00  1.0000000E+00  -1.0000000E+00  -1.0000000E+00
	2212	-1	0	0	0	0	0.0000000000E+00	0.0000000000E+00	6.5000000000E+03	6.5000000000E+03	9.3827000000E-01	0.000E+00	0.0
	2212	-1	0	0	0	0	0.0000000000E+00	0.0000000000E+00	-6.5000000000E+03	6.5000000000E+03	9.3827000000E-01	0.000E+00	0.0
	2212	1	0	0	0	0	0.0000000000E+00	0.0000000000E+00	5.4584316348E+03	5.4584316348E+03	9.3827000000E-01	0.000E+00	0.0
	2212	1	0	0	0	0	0.0000000000E+00	0.0000000000E+00	-6.2324129079E+03	6.2324129079E+03	9.3827000000E-01	0.000E+00	0.0
	51	2	1	2	0	0	6.7898301783E+01	-1.0410556379E+02	6.7952529773E+02	1.2617621718E+03	1.0558603128E+03	0.000E+00	0.0
	1000022	2	5	5	0	0	-6.7898301783E+01	1.0410556379E+02	7.3339030553E+02	1.1281227477E+03	8.4814588708E+02	0.000E+00	0.0
	14	1	6	6	0	0	-7.5952351941E+01	9.3394205447E+01	2.3636843195E+01	3.4738298423E+02	3.2500000000E+02	0.000E+00	0.0
	-14	1	6	6	0	0	8.0540501579E+00	1.0711358339E+01	7.0975346234E+02	7.8073976344E+02	3.2500000000E+02	0.000E+00	0.0
	25	2	5	5	0	0	6.7898301783E+01	-1.0410556379E+02	4.0590967640E+01	1.8103270963E+02	1.2520809681E+02	0.000E+00	0.0
	-5	1	9	9	0	501	8.9267546853E+01	-2.4001997009E+01	1.2365700890E+01	9.3355094880E+01	4.1800000000E+00	0.000E+00	0.0
	5	1	9	9	501	0	-2.1369245070E+01	-8.0103566776E+01	2.8225266750E+01	8.7677614750E+01	4.1800000000E+00	0.000E+00	0.0
</event>
<event>
    11  -1  1.0000000E+00  1.0000000E+00  -1.0000000E+00  -1.0000000E+00
	2212	-1	0	0	0	0	0.0000000000E+00	0.0000000000E+00	6.5000000000E+03	6.5000000000E+03	9.3827000000E-01	0.000E+00	0.0
	2212	-1	0	0	0	0	0.0000000000E+00	0.0000000000E+00	-6.5000000000E+03	6.5000000000E+03	9.3827000000E-01	0.000E+00	0.0
	2212	1	0	0	0	0	0.0000000000E+00	0.0000000000E+00	5.4068244995E+03	5.4068244995E+03	9.3827000000E-01	0.000E+00	0.0
	2212	1	0	0	0	0	0.0000000000E+00	0.0000000000E+00	-6.2495343389E+03	6.2495343389E+03	9.3827000000E-01	0.000E+00	0.0
	51	2	1	2	0	0	-1.0083996669E+02	-7.4074458462E+01	8.4522084186E+02	1.3510239426E+03	1.0465236251E+03	0.000E+00	0.0
	1000022	2	5	5	0	0	1.0083996669E+02	7.4074458462E+01	7.0373147035E+02	1.1186708287E+03	8.6054094409E+02	0.000E+00	0.0
	14	1	6	6	0	0	-5.7125235282E+01	1.3716371369E+02	6.5830823165E+02	7.4904733142E+02	3.2500000000E+02	0.000E+00	0.0
	-14	1	6	6	0	0	1.5796520197E+02	-6.3089255224E+01	4.5423238699E+01	3.6962349732E+02	3.2500000000E+02	0.000E+00	0.0
	25	2	5	5	0	0	-1.0083996669E+02	-7.4074458462E+01	1.3897836900E+02	2.2497033285E+02	1.2506374108E+02	0.000E+00	0.0
	-5	1	9	9	0	501	-1.6384853636E+01	3.0314989858E+01	4.7010625201E+00	3.5029051194E+01	4.1800000000E+00	0.000E+00	0.0
	5	1	9	9	501	0	-8.4455113053E+01	-1.0438944832E+02	1.3427730648E+02	1.8994128165E+02	4.1800000000E+00	0.000E+00	0.0
</event>
<event>
    11  -1  1.0000000E+00  1.0000000E+00  -1.0000000E+00  -1.0000000E+00
	2212	-1	0	0	0	0	0.0000000000E+00	0.0000000000E+00	6.5000000000E+03	6.5000000000E+03	9.3827000000E-01	0.000E+00	0.0
	2212	-1	0	0	0	0	0.0000000000E+00	0.0000000000E+00	-6.5000000000E+03	6.5000000000E+03	9.3827000000E-01	0.000E+00	0.0
	2212	1	0	0	0	0	0.0000000000E+00	0.0000000000E+00	5.0364834420E+03	5.0364834420E+03	9.3827000000E-01	0.000E+00	0.0
	2212	1	0	0	0	0	0.0000000000E+00	0.0000000000E+00	-6.2768838756E+03	6.2768838756E+03	9.3827000000E-01	0.000E+00	0.0
	51	2	1	2	0	0	1.2983872783E+02	-1.6716212724E+02	1.1366272599E+03	1.6256873530E+03	1.1428633207E+03	0.000E+00	0.0
	1000022	2	5	5	0	0	-1.2983872783E+02	1.6716212724E+02	1.0856880082E+03	1.3961025951E+03	8.5181144212E+02	0.000E+00	0.0
	14	1	6	6	0	0	-1.8817771417E+01	2.2131173688E+02	1.9364603547E+02	4.3869896336E+02	3.2500000000E+02	0.000E+00	0.0
	-14	1	6	6	0	0	-1.1102095641E+02	-5.4149609636E+01	8.9204197277E+02	9.5740363179E+02	3.2500000000E+02	0.000E+00	0.0
	25	2	5	5	0	0	1.2983872783E+02	-1.6716212724E+02	1.5471242531E+02	2.9053008722E+02	1.2518196759E+02	0.000E+00	0.0
	-5	1	9	9	0	501	1.5278690368E+02	-1.5045471141E+02	1.4932989456E+02	2.6133761293E+02	4.1800000000E+00	0.000E+00	0.0
	5	1	9	9	501	0	-2.2948175844E+01	-1.6707415827E+01	5.3825307428E+00	2.9192474294E+01	4.1800000000E+00	0.000E+00	0.0
</event>
<event>
    11  -1  1.0000000E+00  1.0000000E+00  -1.0000000E+00  -1.0000000E+00
	2212	-1	0	0	0	0	0.0000000000E+00	0.0000000000E+00	6.5000000000E+03	6.5000000000E+03	9.3827000000E-01	0.000E+00	0.0
	2212	-1	0	0	0	0	0.0000000000E+00	0.0000000000E+00	-6.5000000000E+03	6.5000000000E+03	9.3827000000E-01	0.000E+00	0.0
	2212	1	0	0	0	0	0.0000000000E+00	0.0000000000E+00	6.1709148475E+03	6.1709148475E+03	9.3827000000E-01	0.000E+00	0.0
	2212	1	0	0	0	0	0.0000000000E+00	0.0000000000E+00	-5.6658182331E+03	5.6658182331E+03	9.3827000000E-01	0.000E+00	0.0
	51	2	1	2	0	0	6.8933627597E+01	-8.6406363683E+01	-5.4568756683E+02	1.1866171081E+03	1.0478870817E+03	0.000E+00	0.0
	1000022	2	5	5	0	0	-6.8933627597E+01	8.6406363683E+01	-3.8543821922E+02	9.5781980541E+02	8.6984955832E+02	0.000E+00	0.0
	14	1	6	6	0	0	-2.8146574033E+02	1.1662473092E+02	-3.5035980820E+02	5.6674622719E+02	3.2500000000E+02	0.000E+00	0.0
	-14	1	6	6	0	0	2.1253211273E+02	-3.0218367234E+01	-3.5078411022E+01	3.9107357822E+02	3.2500000000E+02	0.000E+00	0.0
	25	2	5	5	0	0	6.8933627597E+01	-8.6406363683E+01	-1.1965839514E+02	2.0544711402E+02	1.2518977767E+02	0.000E+00	0.0
	-5	1	9	9	0	501	9.4566553722E+01	-4.0900982369E+01	-1.1242738211E+02	1.5255527552E+02	4.1800000000E+00	0.000E+00	0.0
	5	1	9	9	501	0	-2.5632926125E+01	-4.5505381314E+01	-7.2310130334E+00	5.2891838499E+01	4.1800000000E+00	0.000E+00	0.0
</event>
<event>
    11  -1  1.0000000E+00  1.0000000E+00  -1.0000000E+00  -1.0000000E+00
	2212	-1	0	0	0	0	0.0000000000E+00	0.0000000000E+00	6.5000000000E+03	6.5000000000E+03	9.3827000000E-01	0.000E+00	0.0
	2212	-1	0	0	0	0	0.0000000000E+00	0.0000000000E+00	-6.5000000000E+03	6.5000000000E+03	9.3827000000E-01	0.000E+00	0.0
	2212	1	0	0	0	0	0.0000000000E+00	0.0000000000E+00	5.5258328634E+03	5.5258328634E+03	9.3827000000E-01	0.000E+00	0.0
	2212	1	0	0	0	0	0.0000000000E+00	0.0000000000E+00	-6.2142339664E+03	6.2142339664E+03	9.3827000000E-01	0.000E+00	0.0
	51	2	1	2	0	0	7.8722685992E+01	1.1217917704E+02	6.1789710987E+02	1.2304933085E+03	1.0552419225E+03	0.000E+00	0.0
	1000022	2	5	5	0	0	-7.8722685992E+01	-1.1217917704E+02	6.3768920217E+02	1.0675199220E+03	8.4508569762E+02	0.000E+00	0.0
	14	1	6	6	0	0	4.6185851700E+01	1.6706997580E+02	1.2778790723E+02	3.8987210588E+02	3.2500000000E+02	0.000E+00	0.0
	-14	1	6	6	0	0	-1.2490853769E+02	-2.7924915284E+02	5.0990129494E+02	6.7764781615E+02	3.2500000000E+02	0.000E+00	0.0
	25	2	5	5	0	0	7.8722685992E+01	1.1217917704E+02	5.0711900852E+01	1.9241324824E+02	1.2517880075E+02	0.000E+00	0.0
	-5	1	9	9	0	501	1.0183391217E+02	1.2136882760E+02	5.2940551252E+01	1.6709492018E+02	4.1800000000E+00	0.000E+00	0.0
	5	1	9	9	501	0	-2.3111226182E+01	-9.1896505612E+00	-2.2286503997E+00	2.5318328058E+01	4.1800000000E+00	0.000E+00	0.0
</event>
<event>
    11  -1  1.0000000E+00  1.0000000E+00  -1.0000000E+00  -1.0000000E+00
	2212	-1	0	0	0	0	0.0000000000E+00	0.0000000000E+00	6.5000000000E+03	6.5000000000E+03	9.3827000000E-01	0.000E+00	0.0
	2212	-1	0	0	0	0	0.0000000000E+00	0.0000000000E+00	-6.5000000000E+03	6.5000000000E+03	9.3827000000E-01	0.000E+00	0.0
	2212	1	0	0	0	0	0.0000000000E+00	0.0000000000E+00	6.1383376966E+03	6.1383376966E+03	9.3827000000E-01	0.000E+00	0.0
	2212	1	0	0	0	0	0.0000000000E+00	0.0000000000E+00	-5.7516361128E+03	5.7516361128E+03	9.3827000000E-01	0.000E+00	0.0
	51	2	1	2	0	0	1.1061347657E+02	-5.2092444165E+01	-3.8377643012E+02	1.1157299589E+03	1.0404902829E+03	0.000E+00	0.0
	1000022	2	5	5	0	0	-1.1061347657E+02	5.2092444165E+01	-3.2723437587E+02	9.2522526187E+02	8.5674411845E+02	0.000E+00	0.0
	14	1	6	6	0	0	-2.2307708905E+02	1.9722936267E+02	-1.9097980162E+01	4.4119444920E+02	3.2500000000E+02	0.000E+00	0.0
	-14	1	6	6	0	0	1.1246361249E+02	-1.4513691850E+02	-3.0813639571E+02	4.8403081266E+02	3.2500000000E+02	0.000E+00	0.0
	25	2	5	5	0	0	1.1061347657E+02	-5.2092444165E+01	-5.9467207988E+01	1.8480092872E+02	1.2516417416E+02	0.000E+00	0.0
	-5	1	9	9	0	501	3.1325573658E+01	-5.6530249597E+00	3.8693869499E+01	5.0278585830E+01	4.1800000000E+00	0.000E+00	0.0
	5	1	9	9	501	0	7.9287902909E+01	-4.6439419205E+01	-9.8161077487E+01	1.3452234289E+02	4.1800000000E+00	0.000E+00	0.0
</event>
<event>
    11  -1  1.0000000E+00  1.0000000E+00  -1.0000000E+00  -1.0000000E+00
	2212	-1	0	0	0	0	0.0000000000E+00	0.0000000000E+00	6.5000000000E+03	6.5000000000E+03	9.3827000000E-01	0.000E+00	0.0
	2212	-1	0	0	0	0	0.0000000000E+00	0.0000000000E+00	-6.5000000000E+03	6.5000000000E+03	9.3827000000E-01	0.000E+00	0.0
	2212	1	0	0	0	0	0.0000000000E+00	0.0000000000E+00	6.2565179531E+03	6.2565179531E+03	9.3827000000E-01	0.000E+00	0.0
	2212	1	0	0	0	0	0.0000000000E+00	0.0000000000E+00	-5.3519293729E+03	5.3519293729E+03	9.3827000000E-01	0.000E+00	0.0
	51	2	1	2	0	0	-3.4761173876E+01	-2.3129088985E+01	-7.7191298135E+02	1.3098592634E+03	1.0574206094E+03	0.000E+00	0.0
	1000022	2	5	5	0	0	3.4761173876E+01	2.3129088985E+01	-8.9829650977E+02	1.2594684227E+03	8.8180541752E+02	0.000E+00	0.0
	14	1	6	6	0	0	-2.7801473187E+02	-1.8657162755E+01	-4.7565077067E+02	6.3992885268E+02	3.2500000000E+02	0.000E+00	0.0
	-14	1	6	6	0	0	3.1277590574E+02	4.1786251740E+01	-4.2264573910E+02	6.1953957003E+02	3.2500000000E+02	0.000E+00	0.0
	25	2	5	5	0	0	-3.4761173876E+01	-2.3129088985E+01	-6.2920703599E+00	1.3208425126E+02	1.2515336717E+02	0.000E+00	0.0
	-5	1	9	9	0	501	-5.8471225011E+01	3.4749258603E+01	-1.1787072120E+01	6.9157809370E+01	4.1800000000E+00	0.000E+00	0.0
	5	1	9	9	501	0	2.3710051135E+01	-5.7878347587E+01	5.4950017604E+00	6.2926441888E+01	4.1800000000E+00	0.000E+00	0.0
</event>
<event>
    11  -1  1.0000000E+00  1.0000000E+00  -1.0000000E+00  -1.0000000E+00
	2212	-1	0	0	0	0	0.0000000000E+00	0.0000000000E+00	6.5000000000E+03	6.5000000000E+03	9.3827000000E-01	0.000E+00	0.0
	2212	-1	0	0	0	0	0.0000000000E+00	0.0000000000E+00	-6.5000000000E+03	6.5000000000E+03	9.3827000000E-01	0.000E+00	0.0
	2212	1	0	0	0	0	0.0000000000E+00	0.0000000000E+00	5.0542112827E+03	5.0542112827E+03	9.3827000000E-01	0.000E+00	0.0
	2212	1	0	0	0	0	0.0000000000E+00	0.0000000000E+00	-6.3073443413E+03	6.3073443413E+03	9.3827000000E-01	0.000E+00	0.0
	51	2	1	2	0	0	-3.8833792972E+01	1.3505626048E+02	1.2128404670E+03	1.6139664699E+03	1.0555365985E+03	0.000E+00	0.0
	1000022	2	5	5	0	0	3.8833792972E+01	-1.3505626048E+02	1.0781732604E+03	1.3814844371E+03	8.5222849848E+02	0.000E+00	0.0
	14	1	6	6	0	0	-1.8260467462E+00	-2.5987460778E+02	8.9270443905E+02	9.8492860742E+02	3.2500000000E+02	0.000E+00	0.0
	-14	1	6	6	0	0	4.0659839719E+01	1.2481834730E+02	1.8546882137E+02	3.9655582972E+02	3.2500000000E+02	0.000E+00	0.0
	25	2	5	5	0	0	-3.8833792972E+01	1.3505626048E+02	1.7495979813E+02	2.5695993882E+02	1.2517676391E+02	0.000E+00	0.0
	-5	1	9	9	0	501	1.9478335716E+01	7.7839051251E+01	1.5210928387E+02	1.7202624829E+02	4.1800000000E+00	0.000E+00	0.0
	5	1	9	9	501	0	-5.8312128688E+01	5.7217209232E+01	2.2850514260E+01	8.4933690526E+01	4.1800000000E+00	0.000E+00	0.0
</event>
<event>
    11  -1  1.0000000E+00  1.0000000E+00  -1.0000000E+00  -1.0000000E+00
	2212	-1	0	0	0	0	0.0000000000E+00	0.0000000000E+00	6.5000000000E+03	6.5000000000E+03	9.3827000000E-01	0.000E+00	0.0
	2212	-1	0	0	0	0	0.0000000000E+00	0.0000000000E+00	-6.5000000000E+03	6.5000000000E+03	9.3827000000E-01	0.000E+00	0.0
	2212	1	0	0	0	0	0.0000000000E+00	0.0000000000E+00	5.9900664621E+03	5.9900664621E+03	9.3827000000E-01	0.000E+00	0.0
	2212	1	0	0	0	0	0.0000000000E+00	0.0000000000E+00	-5.9515946442E+03	5.9515946442E+03	9.3827000000E-01	0.000E+00	0.0
	51	2	1	2	0	0	8.1255075113E+01	-1.2414267505E+02	-5.5663838355E+01	1.0694453642E+03	1.0576394155E+03	0.000E+00	0.0
	1000022	2	5	5	0	0	-8.1255075113E+01	1.2414267505E+02	-1.4573583451E+01	8.6274810136E+02	8.4976944288E+02	0.000E+00	0.0
	14	1	6	6	0	0	2.2590196655E+02	1.2491589480E+02	-2.0154599044E+01	4.1553205307E+02	3.2500000000E+02	0.000E+00	0.0
	-14	1	6	6	0	0	-3.0715704166E+02	-7.7321974694E-01	5.5810155925E+00	4.4721604829E+02	3.2500000000E+02	0.000E+00	0.0
	25	2	5	5	0	0	8.1255075113E+01	-1.2414267505E+02	-2.3898234519E+01	1.9559079236E+02	1.2518323147E+02	0.000E+00	0.0
	-5	1	9	9	0	501	2.6793618638E+01	-1.0304004947E+02	-6.4301690315E+01	1.2444809991E+02	4.1800000000E+00	0.000E+00	0.0
	5	1	9	9	501	0	5.4461456475E+01	-2.1102625582E+01	4.0403455796E+01	7.1142692443E+01	4.1800000000E+00	0.000E+00	0.0
</event>
<event>
    11  -1  1.0000000E+00  1.0000000E+00  -1.0000000E+00  -1.0000000E+00
	2212	-1	0	0	0	0	0.0000000000E+00	0.0000000000E+00	6.5000000000E+03	6.5000000000E+03	9.3827000000E-01	0.000E+00	0.0
	2212	-1	0	0	0	0	0.0000000000E+00	0.0000000000E+00	-6.5000000000E+03	6.5000000000E+03	9.3827000000E-01	0.000E+00	0.0
	2212	1	0	0	0	0	0.0000000000E+00	0.0000000000E+00	6.2195260900E+03	6.2195260900E+03	9.3827000000E-01	0.000E+00	0.0
	2212	1	0	0	0	0	0.0000000000E+00	0.0000000000E+00	-5.5015797394E+03	5.5015797394E+03	9.3827000000E-01	0.000E+00	0.0
	51	2	1	2	0	0	-3.8975236657E+01	-1.2668756983E+02	-6.5722798697E+02	1.2528530535E+03	1.0583587942E+03	0.000E+00	0.0
	1000022	2	5	5	0	0	3.8975236657E+01	1.2668756983E+02	-6.5594110745E+02	1.0863249346E+03	8.5573028326E+02	0.000E+00	0.0
	14	1	6	6	0	0	-2.7298105517E+01	-1.5105884295E+02	-8.3859352801E+01	3.6908176824E+02	3.2500000000E+02	0.000E+00	0.0
	-14	1	6	6	0	0	6.6273342174E+01	2.7774641277E+02	-5.7208175465E+02	7.1724316636E+02	3.2500000000E+02	0.000E+00	0.0
	25	2	5	5	0	0	-3.8975236657E+01	-1.2668756983E+02	-6.2005243128E+01	1.9256923602E+02	1.2517767798E+02	0.000E+00	0.0
	-5	1	9	9	0	501	-3.1527680870E+01	-8.1771570846E+01	2.7596911370E+01	9.1976335961E+01	4.1800000000E+00	0.000E+00	0.0
	5	1	9	9	501	0	-7.4475557873E+00	-4.4915998981E+01	-8.9602154498E+01	1.0059290006E+02	4.1800000000E+00	0.000E+00	0.0
</event>
<event>
    11  -1  1.0000000E+00  1.0000000E+00  -1.0000000E+00  -1.0000000E+00
	2212	-1	0	0	0	0	0.0000000000E+00	0.0000000000E+00	6.5000000000E+03	6.5000000000E+03	9.3827000000E-01	0.000E+00	0.0
	2212	-1	0	0	0	0	0.0000000000E+00	0.0000000000E+00	-6.5000000000E+03	6.5000000000E+03	9.3827000000E-01	0.000E+00	0.0
	2212	1	0	0	0	0	0.0000000000E+00	0.0000000000E+00	5.3109318072E+03	5.3109318072E+03	9.3827000000E-01	0.000E+00	0.0
	2212	1	0	0	0	0	0.0000000000E+00	0.0000000000E+00	-6.1303439790E+03	6.1303439790E+03	9.3827000000E-01	0.000E+00	0.0
	51	2	1	2	0	0	5.7584168536E+01	-3.7246906561E+02	7.4261784793E+02	1.5657954134E+03	1.3259656358E+03	0.000E+00	0.0
	1000022	2	5	5	0	0	-5.7584168536E+01	3.7246906561E+02	6.7837134058E+02	1.1372767788E+03	8.3136132611E+02	0.000E+00	0.0
	14	1	6	6	0	0	4.2203443698E-01	7.6981846025E+01	6.0091689199E+02	6.8749726822E+02	3.2500000000E+02	0.000E+00	0.0
	-14	1	6	6	0	0	-5.8006202973E+01	2.9548721959E+02	7.7454448584E+01	4.4977951057E+02	3.2500000000E+02	0.000E+00	0.0
	25	2	5	5	0	0	5.7584168536E+01	-3.7246906561E+02	1.4104083126E+02	4.2144743498E+02	1.2520496423E+02	0.000E+00	0.0
	-5	1	9	9	0	501	-1.4288736468E+00	9.3592560993E+00	7.2794394539E-01	1.0374953350E+01	4.1800000000E+00	0.000E+00	0.0
	5	1	9	9	501	0	5.9013042183E+01	-3.8182832171E+02	1.4031288732E+02	4.1107248163E+02	4.1800000000E+00	0.000E+00	0.0
</event>
<event>
    11  -1  1.0000000E+00  1.0000000E+00  -1.0000000E+00  -1.0000000E+00
	2212	-1	0	0	0	0	0.0000000000E+00	0.0000000000E+00	6.5000000000E+03	6.5000000000E+03	9.3827000000E-01	0.000E+00	0.0
	2212	-1	0	0	0	0	0.0000000000E+00	0.0000000000E+00	-6.5000000000E+03	6.5000000000E+03	9.3827000000E-01	0.000E+00	0.0
	2212	1	0	0	0	0	0.0000000000E+00	0.0000000000E+00	5.8008609452E+03	5.8008609452E+03	9.3827000000E-01	0.000E+00	0.0
	2212	1	0	0	0	0	0.0000000000E+00	0.0000000000E+00	-6.0974199214E+03	6.0974199214E+03	9.3827000000E-01	0.000E+00	0.0
	51	2	1	2	0	0	-1.9054328267E+01	1.0486633898E+02	4.0303516108E+02	1.1400154297E+03	1.0610550516E+03	0.000E+00	0.0
	1000022	2	5	5	0	0	1.9054328267E+01	-1.0486633898E+02	1.3911783603E+02	8.7408759232E+02	8.5633832699E+02	0.000E+00	0.0
	14	1	6	6	0	0	2.2900983650E+02	-6.9919980650E+01	-1.0262277795E+02	4.1652220044E+02	3.2500000000E+02	0.000E+00	0.0
	-14	1	6	6	0	0	-2.0995550823E+02	-3.4946358330E+01	2.4174061398E+02	4.5756539188E+02	3.2500000000E+02	0.000E+00	0.0
	25	2	5	5	0	0	-1.9054328267E+01	1.0486633898E+02	1.5744114014E+02	2.2763154104E+02	1.2517343725E+02	0.000E+00	0.0
	-5	1	9	9	0	501	2.0731798746E+01	2.9233712125E+01	-1.1824504575E+01	3.7969839509E+01	4.1800000000E+00	0.000E+00	0.0
	5	1	9	9	501	0	-3.9786127013E+01	7.5632626854E+01	1.6926564472E+02	1.8966170154E+02	4.1800000000E+00	0.000E+00	0.0
</event>
<event>
    11  -1  1.0000000E+00  1.0000000E+00  -1.0000000E+00  -1.0000000E+00
	2212	-1	0	0	0	0	0.0000000000E+00	0.0000000000E+00	6.5000000000E+03	6.5000000000E+03	9.3827000000E-01	0.000E+00	0.0
	2212	-1	0	0	0	0	0.0000000000E+00	0.0000000000E+00	-6.5000000000E+03	6.5000000000E+03	9.3827000000E-01	0.000E+00	0.0
	2212	1	0	0	0	0	0.0000000000E+00	0.0000000000E+00	5.7837859609E+03	5.7837859609E+03	9.3827000000E-01	0.000E+00	0.0
	2212	1	0	0	0	0	0.0000000000E+00	0.0000000000E+00	-6.1167836406E+03	6.1167836406E+03	9.3827000000E-01	0.000E+00	0.0
	51	2	1	2	0	0	1.0498439550E+02	3.9878784401E+01	3.2706253695E+02	1.1033774015E+03	1.0477880255E+03	0.000E+00	0.0
	1000022	2	5	5	0	0	-1.0498439550E+02	-3.9878784401E+01	2.8734931993E+02	9.2517448876E+02	8.7221910220E+02	0.000E+00	0.0
	14	1	6	6	0	0	2.0438867166E+02	1.1189878449E+01	-1.0433611756E+01	3.8423144423E+02	3.2500000000E+02	0.000E+00	0.0
	-14	1	6	6	0	0	-3.0937306716E+02	-5.1068662850E+01	2.9778293169E+02	5.4094304452E+02	3.2500000000E+02	0.000E+00	0.0
	25	2	5	5	0	0	1.0498439550E+02	3.9878784401E+01	4.5648359779E+01	1.7425590973E+02	1.2517710886E+02	0.000E+00	0.0
	-5	1	9	9	0	501	-9.2311299727E+00	9.4381252053E+00	-3.0562030734E+01	3.3552974392E+01	4.1800000000E+00	0.000E+00	0.0
	5	1	9	9	501	0	1.1421552547E+02	3.0440659196E+01	7.6210390513E+01	1.4070293534E+02	4.1800000000E+00	0.000E+00	0.0
</event>
<event>
    11  -1  1.0000000E+00  1.0000000E+00  -1.0000000E+00  -1.0000000E+00
	2212	-1	0	0	0	0	0.0000000000E+00	0.0000000000E+00	6.5000000000E+03	6.5000000000E+03	9.3827000000E-01	0.000E+00	0.0
	2212	-1	0	0	0	0	0.0000000000E+00	0.0000000000E+00	-6.5000000000E+03	6.5000000000E+03	9.3827000000E-01	0.000E+00	0.0
	2212	1	0	0	0	0	0.0000000000E+00	0.0000000000E+00	5.8786423514E+03	5.8786423514E+03	9.3827000000E-01	0.000E+00	0.0
	2212	1	0	0	0	0	0.0000000000E+00	0.0000000000E+00	-6.0636945675E+03	6.0636945675E+03	9.3827000000E-01	0.000E+00	0.0
	51	2	1	2	0	0	-8.2944943775E+01	-6.8722995682E+00	7.8436007529E+01	1.0476097412E+03	1.0413485826E+03	0.000E+00	0.0
	1000022	2	5	5	0	0	8.2944943775E+01	6.8722995682E+00	2.6048265893E+02	8.8947465932E+02	8.4639639754E+02	0.000E+00	0.0
	14	1	6	6	0	0	2.6451464030E+02	-1.1166966852E+02	2.7387939454E+01	4.3452641925E+02	3.2500000000E+02	0.000E+00	0.0
	-14	1	6	6	0	0	-1.8156969652E+02	1.1854196809E+02	2.3309471948E+02	4.5494824007E+02	3.2500000000E+02	0.000E+00	0.0
	25	2	5	5	0	0	-8.2944943775E+01	-6.8722995682E+00	-7.5430442878E+01	1.6818842175E+02	1.2518187288E+02	0.000E+00	0.0
	-5	1	9	9	0	501	-5.4290955137E+01	-5.8357455105E+01	-7.4392917727E+01	1.0910948164E+02	4.1800000000E+00	0.000E+00	0.0
	5	1	9	9	501	0	-2.8653988638E+01	5.1485155537E+01	-1.0375251503E+00	5.9078940106E+01	4.1800000000E+00	0.000E+00	0.0
</event>
<event>
    11  -1  1.0000000E+00  1.0000000E+00  -1.0000000E+00  -1.0000000E+00
	2212	-1	0	0	0	0	0.0000000000E+00	0.0000000000E+00	6.5000000000E+03	6.5000000000E+03	9.3827000000E-01	0.000E+00	0.0
	2212	-1	0	0	0	0	0.0000000000E+00	0.0000000000E+00	-6.5000000000E+03	6.5000000000E+03	9.3827000000E-01	0.000E+00	0.0
	2212	1	0	0	0	0	0.0000000000E+00	0.0000000000E+00	6.3003760085E+03	6.3003760085E+03	9.3827000000E-01	0.000E+00	0.0
	2212	1	0	0	0	0	0.0000000000E+00	0.0000000000E+00	-5.1151793704E+03	5.1151793704E+03	9.3827000000E-01	0.000E+00	0.0
	51	2	1	2	0	0	1.3558505793E+02	-2.7761709321E+01	-1.2393342126E+03	1.6312194816E+03	1.0515577427E+03	0.000E+00	0.0
	1000022	2	5	5	0	0	-1.3558505793E+02	2.7761709321E+01	-9.2888843583E+02	1.2673954841E+03	8.5106026025E+02	0.000E+00	0.0
	14	1	6	6	0	0	-2.0050096489E+02	-1.4052149765E+02	-7.5360606938E+02	8.5644266360E+02	3.2500000000E+02	0.000E+00	0.0
	-14	1	6	6	0	0	6.4915906965E+01	1.6828320697E+02	-1.7528236644E+02	4.1095282054E+02	3.2500000000E+02	0.000E+00	0.0
	25	2	5	5	0	0	1.3558505793E+02	-2.7761709321E+01	-2.5630820228E+02	3.1704913692E+02	1.2518881829E+02	0.000E+00	0.0
	-5	1	9	9	0	501	4.3463712109E+00	2.5400499936E+01	-2.2970632997E+00	2.6207350868E+01	4.1800000000E+00	0.000E+00	0.0
	5	1	9	9	501	0	1.3123868672E+02	-5.3162209257E+01	-2.5401113898E+02	2.9084178605E+02	4.1800000000E+00	0.000E+00	0.0
</event>
<event>
    11  -1  1.0000000E+00  1.0000000E+00  -1.0000000E+00  -1.0000000E+00
	2212	-1	0	0	0	0	0.0000000000E+00	0.0000000000E+00	6.5000000000E+03	6.5000000000E+03	9.3827000000E-01	0.000E+00	0.0
	2212	-1	0	0	0	0	0.0000000000E+00	0.0000000000E+00	-6.5000000000E+03	6.5000000000E+03	9.3827000000E-01	0.000E+00	0.0
	2212	1	0	0	0	0	0.0000000000E+00	0.0000000000E+00	6.1895328162E+03	6.1895328162E+03	9.3827000000E-01	0.000E+00	0.0
	2212	1	0	0	0	0	0.0000000000E+00	0.0000000000E+00	-5.5972195266E+03	5.5972195266E+03	9.3827000000E-01	0.000E+00	0.0
	51	2	1	2	0	0	-1.1245968981E+02	7.3161435136E+01	-6.8325241552E+02	1.2672681189E+03	1.0588365523E+03	0.000E+00	0.0
	1000022	2	5	5	0	0	1.1245968981E+02	-7.3161435136E+01	-3.9686503007E+02	9.4515895848E+02	8.4724484494E+02	0.000E+00	0.0
	14	1	6	6	0	0	-7.7533844182E+01	1.4196009815E+02	-8.5885294334E+00	3.6312935615E+02	3.2500000000E+02	0.000E+00	0.0
	-14	1	6	6	0	0	1.8999353399E+02	-2.1512153329E+02	-3.8827650063E+02	5.8202960233E+02	3.2500000000E+02	0.000E+00	0.0
	25	2	5	5	0	0	-1.1245968981E+02	7.3161435136E+01	-1.9544825958E+02	2.6808869867E+02	1.2518686337E+02	0.000E+00	0.0
	-5	1	9	9	0	501	4.4612459420E+00	2.9969379265E+01	5.9914296111E+00	3.1167868674E+01	4.1800000000E+00	0.000E+00	0.0
	5	1	9	9	501	0	-1.1692093575E+02	4.3192055871E+01	-2.0143968919E+02	2.3692083000E+02	4.1800000000E+00	0.000E+00	0.0
</event>
<event>
    11  -1  1.0000000E+00  1.0000000E+00  -1.0000000E+00  -1.0000000E+00
	2212	-1	0	0	0	0	0.0000000000E+00	0.0000000000E+00	6.5000000000E+03	6.5000000000E+03	9.3827000000E-01	0.000E+00	0.0
	2212	-1	0	0	0	0	0.0000000000E+00	0.0000000000E+00	-6.5000000000E+03	6.5000000000E+03	9.3827000000E-01	0.000E+00	0.0
	2212	1	0	0	0	0	0.0000000000E+00	0.0000000000E+00	5.0442013871E+03	5.0442013871E+03	9.3827000000E-01	0.000E+00	0.0
	2212	1	0	0	0	0	0.0000000000E+00	0.0000000000E+00	-6.3057186734E+03	6.3057186734E+03	9.3827000000E-01	0.000E+00	0.0
	51	2	1	2	0	0	2.7598741089E+01	6.0643052063E+01	1.0676193810E+03	1.5085053383E+03	1.0636437105E+03	0.000E+00	0.0
	1000022	2	5	5	0	0	-2.7598741089E+01	-6.0643052063E+01	1.2371782027E+03	1.5061979072E+03	8.5649457679E+02	0.000E+00	0.0
	14	1	6	6	0	0	-9.5102060163E+01	1.3397591952E+02	9.7444985608E+02	1.0402747093E+03	3.2500000000E+02	0.000E+00	0.0
	-14	1	6	6	0	0	6.7503319074E+01	-1.9461897158E+02	2.6272834667E+02	4.6592319788E+02	3.2500000000E+02	0.000E+00	0.0
	25	2	5	5	0	0	2.7598741089E+01	6.0643052063E+01	2.4339083557E+01	1.4388203221E+02	1.2518138013E+02	0.000E+00	0.0
	-5	1	9	9	0	501	-3.6745162603E+01	1.8264298447E+01	-2.8702094422E+01	5.0250116385E+01	4.1800000000E+00	0.000E+00	0.0
	5	1	9	9	501	0	6.4343903692E+01	4.2378753616E+01	5.3041177979E+01	9.3631915829E+01	4.1800000000E+00	0.000E+00	0.0
</event>
<event>
    11  -1  1.0000000E+00  1.0000000E+00  -1.0000000E+00  -1.0000000E+00
	2212	-1	0	0	0	0	0.0000000000E+00	0.0000000000E+00	6.5000000000E+03	6.5000000000E+03	9.3827000000E-01	0.000E+00	0.0
	2212	-1	0	0	0	0	0.0000000000E+00	0.0000000000E+00	-6.5000000000E+03	6.5000000000E+03	9.3827000000E-01	0.000E+00	0.0
	2212	1	0	0	0	0	0.0000000000E+00	0.0000000000E+00	4.9716572321E+03	4.9716572321E+03	9.3827000000E-01	0.000E+00	0.0
	2212	1	0	0	0	0	0.0000000000E+00	0.0000000000E+00	-6.3200825608E+03	6.3200825608E+03	9.3827000000E-01	0.000E+00	0.0
	51	2	1	2	0	0	-1.3222674496E+02	-2.3843523573E+01	1.4172453465E+03	1.7682021564E+03	1.0487621600E+03	0.000E+00	0.0
	1000022	2	5	5	0	0	1.3222674496E+02	2.3843523573E+01	1.0510084050E+03	1.3587189825E+03	8.5055639468E+02	0.000E+00	0.0
	14	1	6	6	0	0	-8.8684832364E+01	-1.1104591008E+02	7.9540240214E+02	8.7091111772E+02	3.2500000000E+02	0.000E+00	0.0
	-14	1	6	6	0	0	2.2091157732E+02	1.3488943365E+02	2.5560600281E+02	4.8780786482E+02	3.2500000000E+02	0.000E+00	0.0
	25	2	5	5	0	0	-1.3222674496E+02	-2.3843523573E+01	2.9741692378E+02	3.4954122463E+02	1.2517913349E+02	0.000E+00	0.0
	-5	1	9	9	0	501	-2.7821178687E+01	-5.8647136402E+01	6.3055879836E+01	9.0592609928E+01	4.1800000000E+00	0.000E+00	0.0
	5	1	9	9	501	0	-1.0440556627E+02	3.4803612830E+01	2.3436104395E+02	2.5894861470E+02	4.1800000000E+00	0.000E+00	0.0
</event>
<event>
    11  -1  1.0000000E+00  1.0000000E+00  -1.0000000E+00  -1.0000000E+00
	2212	-1	0	0	0	0	0.0000000000E+00	0.0000000000E+00	6.5000000000E+03	6.5000000000E+03	9.3827000000E-01	0.000E+00	0.0
	2212	-1	0	0	0	0	0.0000000000E+00	0.0000000000E+00	-6.5000000000E+03	6.5000000000E+03	9.3827000000E-01	0.000E+00	0.0
	2212	1	0	0	0	0	0.0000000000E+00	0.0000000000E+00	5.6524837331E+03	5.6524837331E+03	9.3827000000E-01	0.000E+00	0.0
	2212	1	0	0	0	0	0.0000000000E+00	0.0000000000E+00	-6.1730706410E+03	6.1730706410E+03	9.3827000000E-01	0.000E+00	0.0
	51	2	1	2	0	0	-6.6999069808E+01	1.2109648219E+02	5.4374009429E+02	1.1929452306E+03	1.0527638860E+03	0.000E+00	0.0
	1000022	2	5	5	0	0	6.6999069808E+01	-1.2109648219E+02	4.0932584853E+02	9.5717439572E+02	8.5409714916E+02	0.000E+00	0.0
	14	1	6	6	0	0	3.3792927855E+01	1.1961828613E+02	4.2720875245E+02	5.5098349750E+02	3.2500000000E+02	0.000E+00	0.0
	-14	1	6	6	0	0	3.3206141953E+01	-2.4071476831E+02	-1.7882903914E+01	4.0619089822E+02	3.2500000000E+02	0.000E+00	0.0
	25	2	5	5	0	0	-6.6999069808E+01	1.2109648219E+02	1.1126105933E+02	2.1727123023E+02	1.2519796647E+02	0.000E+00	0.0
	-5	1	9	9	0	501	-6.1553175948E+01	3.1413820467E+01	-5.9943413372E+00	6.9491194504E+01	4.1800000000E+00	0.000E+00	0.0
	5	1	9	9	501	0	-5.4458938599E+00	8.9682661718E+01	1.1725540067E+02	1.4778003572E+02	4.1800000000E+00	0.000E+00	0.0
</event>
<event>
    11  -1  1.0000000E+00  1.0000000E+00  -1.0000000E+00  -1.0000000E+00
	2212	-1	0	0	0	0	0.0000000000E+00	0.0000000000E+00	6.5000000000E+03	6.5000000000E+03	9.3827000000E-01	0.000E+00	0.0
	2212	-1	0	0	0	0	0.0000000000E+00	0.0000000000E+00	-6.5000000000E+03	6.5000000000E+03	9.3827000000E-01	0.000E+00	0.0
	2212	1	0	0	0	0	0.0000000000E+00	0.0000000000E+00	5.0624516367E+03	5.0624516367E+03	9.3827000000E-01	0.000E+00	0.0
	2212	1	0	0	0	0	0.0000000000E+00	0.0000000000E+00	-6.3038471698E+03	6.3038471698E+03	9.3827000000E-01	0.000E+00	0.0
	51	2	1	2	0	0	-1.2090572880E+02	-9.6387707396E+01	1.2647246749E+03	1.6587205939E+03	1.0620342366E+03	0.000E+00	0.0
	1000022	2	5	5	0	0	1.2090572880E+02	9.6387707396E+01	9.9851995542E+02	1.3197543201E+03	8.4899975181E+02	0.000E+00	0.0
	14	1	6	6	0	0	2.7431565768E+02	1.9607642062E+02	4.0692092511E+02	6.2040686817E+02	3.2500000000E+02	0.000E+00	0.0
	-14	1	6	6	0	0	-1.5340992888E+02	-9.9688713227E+01	5.9159903031E+02	6.9934745190E+02	3.2500000000E+02	0.000E+00	0.0
	25	2	5	5	0	0	-1.2090572880E+02	-9.6387707396E+01	2.4287557766E+02	3.1394687335E+02	1.2516112682E+02	0.000E+00	0.0
	-5	1	9	9	0	501	9.6351151385E+00	1.9053946329E+01	1.2621962690E+01	2.5153024799E+01	4.1800000000E+00	0.000E+00	0.0
	5	1	9	9	501	0	-1.3054084394E+02	-1.1544165372E+02	2.3025361498E+02	2.8879384855E+02	4.1800000000E+00	0.000E+00	0.0
</event>
<event>
    11  -1  1.0000000E+00  1.0000000E+00  -1.0000000E+00  -1.0000000E+00
	2212	-1	0	0	0	0	0.0000000000E+00	0.0000000000E+00	6.5000000000E+03	6.5000000000E+03	9.3827000000E-01	0.000E+00	0.0
	2212	-1	0	0	0	0	0.0000000000E+00	0.0000000000E+00	-6.5000000000E+03	6.5000000000E+03	9.3827000000E-01	0.000E+00	0.0
	2212	1	0	0	0	0	0.0000000000E+00	0.0000000000E+00	5.7483472824E+03	5.7483472824E+03	9.3827000000E-01	0.000E+00	0.0
	2212	1	0	0	0	0	0.0000000000E+00	0.0000000000E+00	-6.1369788050E+03	6.1369788050E+03	9.3827000000E-01	0.000E+00	0.0
	51	2	1	2	0	0	-2.2910035816E+01	7.7233223843E+01	3.1279372316E+02	1.0935233079E+03	1.0447312913E+03	0.000E+00	0.0
	1000022	2	5	5	0	0	2.2910035816E+01	-7.7233223843E+01	4.0488349714E+02	9.6492030386E+02	8.7215291431E+02	0.000E+00	0.0
	14	1	6	6	0	0	-2.1725284650E+02	1.1368089325E+02	3.0035179163E+02	5.0592325855E+02	3.2500000000E+02	0.000E+00	0.0
	-14	1	6	6	0	0	2.4016288232E+02	-1.9091411709E+02	1.0453170551E+02	4.5899704531E+02	3.2500000000E+02	0.000E+00	0.0
	25	2	5	5	0	0	-2.2910035816E+01	7.7233223843E+01	-1.6251974486E+01	1.4975360874E+02	1.2518856197E+02	0.000E+00	0.0
	-5	1	9	9	0	501	-1.1133481926E+01	6.3431829167E+01	4.9552302919E+01	8.1366175379E+01	4.1800000000E+00	0.000E+00	0.0
	5	1	9	9	501	0	-1.1776553891E+01	1.3801394676E+01	-6.5804277405E+01	6.8387433358E+01	4.1800000000E+00	0.000E+00	0.0
</event>
<event>
    11  -1  1.0000000E+00  1.0000000E+00  -1.0000000E+00  -1.0000000E+00
	2212	-1	0	0	0	0	0.0000000000E+00	0.0000000000E+00	6.5000000000E+03	6.5000000000E+03	9.3827000000E-01	0.000E+00	0.0
	2212	-1	0	0	0	0	0.0000000000E+00	0.0000000000E+00	-6.5000000000E+03	6.5000000000E+03	9.3827000000E-01	0.000E+00	0.0
	2212	1	0	0	0	0	0.0000000000E+00	0.0000000000E+00	5.4008858832E+03	5.4008858832E+03	9.3827000000E-01	0.000E+00	0.0
	2212	1	0	0	0	0	0.0000000000E+00	0.0000000000E+00	-6.2326385411E+03	6.2326385411E+03	9.3827000000E-01	0.000E+00	0.0
	51	2	1	2	0	0	6.2609819707E+01	1.2803174234E+02	9.2939858090E+02	1.4351086557E+03	1.0841784977E+03	0.000E+00	0.0
	1000022	2	5	5	0	0	-6.2609819707E+01	-1.2803174234E+02	5.8777332003E+02	1.0574332400E+03	8.6739579478E+02	0.000E+00	0.0
	14	1	6	6	0	0	9.9087793162E+01	-1.5748309900E+02	1.0209382173E+01	3.7463121694E+02	3.2500000000E+02	0.000E+00	0.0
	-14	1	6	6	0	0	-1.6169761287E+02	2.9451356655E+01	5.7756393786E+02	6.8280202308E+02	3.2500000000E+02	0.000E+00	0.0
	25	2	5	5	0	0	6.2609819707E+01	1.2803174234E+02	2.4397933786E+02	3.0904233562E+02	1.2517640085E+02	0.000E+00	0.0
	-5	1	9	9	0	501	-2.3070245208E+01	1.8031082926E+01	1.8878997475E+00	2.9637691053E+01	4.1800000000E+00	0.000E+00	0.0
	5	1	9	9	501	0	8.5680064915E+01	1.1000065942E+02	2.4209143811E+02	2.7940464456E+02	4.1800000000E+00	0.000E+00	0.0
</event>
<event>
    11  -1  1.0000000E+00  1.0000000E+00  -1.0000000E+00  -1.0000000E+00
	2212	-1	0	0	0	0	0.0000000000E+00	0.0000000000E+00	6.5000000000E+03	6.5000000000E+03	9.3827000000E-01	0.000E+00	0.0
	2212	-1	0	0	0	0	0.0000000000E+00	0.0000000000E+00	-6.5000000000E+03	6.5000000000E+03	9.3827000000E-01	0.000E+00	0.0
	2212	1	0	0	0	0	0.0000000000E+00	0.0000000000E+00	5.0633489093E+03	5.0633489093E+03	9.3827000000E-01	0.000E+00	0.0
	2212	1	0	0	0	0	0.0000000000E+00	0.0000000000E+00	-6.3070177040E+03	6.3070177040E+03	9.3827000000E-01	0.000E+00	0.0
	51	2	1	2	0	0	-3.6359223057E+01	-7.0359031671E+01	1.4269767383E+03	1.7752543205E+03	1.0530873204E+03	0.000E+00	0.0
	1000022	2	5	5	0	0	3.6359223057E+01	7.0359031671E+01	8.5173896989E+02	1.2106461161E+03	8.5669852292E+02	0.000E+00	0.0
	14	1	6	6	0	0	-1.9182603006E+02	-1.4919933535E+02	3.7644205486E+02	5.5352623077E+02	3.2500000000E+02	0.000E+00	0.0
	-14	1	6	6	0	0	2.2818525312E+02	2.1955836702E+02	4.7529691504E+02	6.5711988534E+02	3.2500000000E+02	0.000E+00	0.0
	25	2	5	5	0	0	-3.6359223057E+01	-7.0359031671E+01	3.9192982474E+02	4.1898727060E+02	1.2517571238E+02	0.000E+00	0.0
	-5	1	9	9	0	501	-1.5699115558E+01	3.4822105631E+00	-2.8069700799E+00	1.6850504466E+01	4.1800000000E+00	0.000E+00	0.0
	5	1	9	9	501	0	-2.0660107499E+01	-7.3841242235E+01	3.9473679482E+02	4.0213676614E+02	4.1800000000E+00	0.000E+00	0.0
</event>
<event>
    11  -1  1.0000000E+00  1.0000000E+00  -1.0000000E+00  -1.0000000E+00
	2212	-1	0	0	0	0	0.0000000000E+00	0.0000000000E+00	6.5000000000E+03	6.5000000000E+03	9.3827000000E-01	0.000E+00	0.0
	2212	-1	0	0	0	0	0.0000000000E+00	0.0000000000E+00	-6.5000000000E+03	6.5000000000E+03	9.3827000000E-01	0.000E+00	0.0
	2212	1	0	0	0	0	0.0000000000E+00	0.0000000000E+00	6.3272880870E+03	6.3272880870E+03	9.3827000000E-01	0.000E+00	0.0
	2212	1	0	0	0	0	0.0000000000E+00	0.0000000000E+00	-4.9101572591E+03	4.9101572591E+03	9.3827000000E-01	0.000E+00	0.0
	51	2	1	2	0	0	2.0042508930E+01	-4.1037159295E+01	-1.2088478973E+03	1.6005430686E+03	1.0480167579E+03	0.000E+00	0.0
	1000022	2	5	5	0	0	-2.0042508930E+01	4.1037159295E+01	-1.3849270763E+03	1.6254612362E+03	8.4971493626E+02	0.000E+00	0.0
	14	1	6	6	0	0	1.4742795324E+02	-6.5949746943E+01	-2.8504016148E+02	4.6147292897E+02	3.2500000000E+02	0.000E+00	0.0
	-14	1	6	6	0	0	-1.6747046217E+02	1.0698690624E+02	-1.0998869149E+03	1.1639883072E+03	3.2500000000E+02	0.000E+00	0.0
	25	2	5	5	0	0	2.0042508930E+01	-4.1037159295E+01	-3.2203751568E+01	1.3709341780E+02	1.2518695212E+02	0.000E+00	0.0
	-5	1	9	9	0	501	-4.6346935628E+01	-4.7185919054E+01	-1.2470633624E+01	6.7435439511E+01	4.1800000000E+00	0.000E+00	0.0
	5	1	9	9	501	0	6.6389444558E+01	6.1487597594E+00	-1.9733117944E+01	6.9657978287E+01	4.1800000000E+00	0.000E+00	0.0
</event>
<event>
    11  -1  1.0000000E+00  1.0000000E+00  -1.0000000E+00  -1.0000000E+00
	2212	-1	0	0	0	0	0.0000000000E+00	0.0000000000E+00	6.5000000000E+03	6.5000000000E+03	9.3827000000E-01	0.000E+00	0.0
	2212	-1	0	0	0	0	0.0000000000E+00	0.0000000000E+00	-6.5000000000E+03	6.5000000000E+03	9.3827000000E-01	0.000E+00	0.0
	2212	1	0	0	0	0	0.0000000000E+00	0.0000000000E+00	5.5816544698E+03	5.5816544698E+03	9.3827000000E-01	0.000E+00	0.0
	2212	1	0	0	0	0	0.0000000000E+00	0.0000000000E+00	-6.1803467677E+03	6.1803467677E+03	9.3827000000E-01	0.000E+00	0.0
	51	2	1	2	0	0	-4.7819729145E+00	-1.0687294681E+02	7.6025185644E+02	1.3280195961E+03	1.0836090016E+03	0.000E+00	0.0
	1000022	2	5	5	0	0	4.7819729145E+00	1.0687294681E+02	3.2704903529E+02	9.2034264785E+02	8.5359523425E+02	0.000E+00	0.0
	14	1	6	6	0	0	7.7582069819E+01	-1.5590736072E+02	3.3187492254E+02	4.9607665425E+02	3.2500000000E+02	0.000E+00	0.0
	-14	1	6	6	0	0	-7.2800096904E+01	2.6278030753E+02	-4.8258872498E+00	4.2426599360E+02	3.2500000000E+02	0.000E+00	0.0
	25	2	5	5	0	0	-4.7819729145E+00	-1.0687294681E+02	2.7164326265E+02	3.1765611464E+02	1.2518247080E+02	0.000E+00	0.0
	-5	1	9	9	0	501	-7.3228837819E+00	1.6376057503E+01	-9.6155835082E-01	1.8444426819E+01	4.1800000000E+00	0.000E+00	0.0
	5	1	9	9	501	0	2.5409108674E+00	-1.2324900432E+02	2.7260482100E+02	2.9921168782E+02	4.1800000000E+00	0.000E+00	0.0
</event>
<event>
    11  -1  1.0000000E+00  1.0000000E+00  -1.0000000E+00  -1.0000000E+00
	2212	-1	0	0	0	0	0.0000000000E+00	0.0000000000E+00	6.5000000000E+03	6.5000000000E+03	9.3827000000E-01	0.000E+00	0.0
	2212	-1	0	0	0	0	0.0000000000E+00	0.0000000000E+00	-6.5000000000E+03	6.5000000000E+03	9.3827000000E-01	0.000E+00	0.0
	2212	1	0	0	0	0	0.0000000000E+00	0.0000000000E+00	6.2023820164E+03	6.2023820164E+03	9.3827000000E-01	0.000E+00	0.0
	2212	1	0	0	0	0	0.0000000000E+00	0.0000000000E+00	-5.5740082147E+03	5.5740082147E+03	9.3827000000E-01	0.000E+00	0.0
	51	2	1	2	0	0	8.6246811197E+01	-1.0315417174E+02	-6.8889557869E+02	1.2629424554E+03	1.0499367752E+03	0.000E+00	0.0
	1000022	2	5	5	0	0	-8.6246811197E+01	1.0315417174E+02	-4.6011441940E+02	9.7448350723E+02	8.4843003915E+02	0.000E+00	0.0
	14	1	6	6	0	0	2.2491588783E+02	9.2685147010E+01	-2.5889423815E+02	4.8148615725E+02	3.2500000000E+02	0.000E+00	0.0
	-14	1	6	6	0	0	-3.1116269903E+02	1.0469024729E+01	-2.0122018125E+02	4.9299734998E+02	3.2500000000E+02	0.000E+00	0.0
	25	2	5	5	0	0	8.6246811197E+01	-1.0315417174E+02	-1.6825938231E+02	2.4912626166E+02	1.2519336613E+02	0.000E+00	0.0
	-5	1	9	9	0	501	4.1725452305E+01	-6.6560961071E+01	-8.3660282821E+00	7.9112816521E+01	4.1800000000E+00	0.000E+00	0.0
	5	1	9	9	501	0	4.4521358891E+01	-3.6593210668E+01	-1.5989335403E+02	1.7001344514E+02	4.1800000000E+00	0.000E+00	0.0
</event>
<event>
    11  -1  1.0000000E+00  1.0000000E+00  -1.0000000E+00  -1.0000000E+00
	2212	-1	0	0	0	0	0.0000000000E+00	0.0000000000E+00	6.5000000000E+03	6.5000000000E+03	9.3827000000E-01	0.000E+00	0.0
	2212	-1	0	0	0	0	0.0000000000E+00	0.0000000000E+00	-6.5000000000E+03	6.5000000000E+03	9.3827000000E-01	0.000E+00	0.0
	2212	1	0	0	0	0	0.0000000000E+00	0.0000000000E+00	4.9938274388E+03	4.9938274388E+03	9.3827000000E-01	0.000E+00	0.0
	2212	1	0	0	0	0	0.0000000000E+00	0.0000000000E+00	-6.3158001070E+03	6.3158001070E+03	9.3827000000E-01	0.000E+00	0.0
	51	2	1	2	0	0	-6.4796560523E+01	-8.9114794637E+01	1.1787468493E+03	1.5847181055E+03	1.0534454416E+03	0.000E+00	0.0
	1000022	2	5	5	0	0	6.4796560523E+01	8.9114794637E+01	1.2357492785E+03	1.5026360004E+03	8.4776095077E+02	0.000E+00	0.0
	14	1	6	6	0	0	1.6808702622E+02	2.1733460362E+02	3.7217496734E+02	5.6535544981E+02	3.2500000000E+02	0.000E+00	0.0
	-14	1	6	6	0	0	-1.0329046570E+02	-1.2821980899E+02	8.6357431112E+02	9.3728055060E+02	3.2500000000E+02	0.000E+00	0.0
	25	2	5	5	0	0	-6.4796560523E+01	-8.9114794637E+01	8.6223389711E+01	1.8773645377E+02	1.2518171696E+02	0.000E+00	0.0
	-5	1	9	9	0	501	2.8246848492E+00	2.1276957782E+01	4.7910752213E+01	5.2664982242E+01	4.1800000000E+00	0.000E+00	0.0
	5	1	9	9	501	0	-6.7621245372E+01	-1.1039175242E+02	3.8312637498E+01	1.3507147152E+02	4.1800000000E+00	0.000E+00	0.0
</event>
<event>
    11  -1  1.0000000E+00  1.0000000E+00  -1.0000000E+00  -1.0000000E+00
	2212	-1	0	0	0	0	0.0000000000E+00	0.0000000000E+00	6.5000000000E+03	6.5000000000E+03	9.3827000000E-01	0.000E+00	0.0
	2212	-1	0	0	0	0	0.0000000000E+00	0.0000000000E+00	-6.5000000000E+03	6.5000000000E+03	9.3827000000E-01	0.000E+00	0.0
	2212	1	0	0	0	0	0.0000000000E+00	0.0000000000E+00	4.9609431176E+03	4.9609431176E+03	9.3827000000E-01	0.000E+00	0.0
	2212	1	0	0	0	0	0.0000000000E+00	0.0000000000E+00	-6.3456776886E+03	6.3456776886E+03	9.3827000000E-01	0.000E+00	0.0
	51	2	1	2	0	0	6.4035645181E+00	6.2303257186E+01	1.4507872931E+03	1.7489281669E+03	9.7470162702E+02	0.000E+00	0.0
	1000022	2	5	5	0	0	-6.4035645181E+00	-6.2303257186E+01	1.1172020491E+03	1.3914424232E+03	8.2707248596E+02	0.000E+00	0.0
	14	1	6	6	0	0	1.9619278821E+02	-1.7547828733E+02	6.8838400707E+02	8.0546991294E+02	3.2500000000E+02	0.000E+00	0.0
	-14	1	6	6	0	0	-2.0259635272E+02	1.1317503015E+02	4.2881804203E+02	5.8597251024E+02	3.2500000000E+02	0.000E+00	0.0
	25	2	5	5	0	0	6.4035645181E+00	6.2303257186E+01	2.6753252189E+02	3.0193677056E+02	1.2517772028E+02	0.000E+00	0.0
	-5	1	9	9	0	501	-3.7015505968E+01	-2.2839955136E+01	7.1240343219E+01	8.3573142424E+01	4.1800000000E+00	0.000E+00	0.0
	5	1	9	9	501	0	4.3419070487E+01	8.5143212321E+01	1.9629217867E+02	2.1836362814E+02	4.1800000000E+00	0.000E+00	0.0
</event>
<event>
    11  -1  1.0000000E+00  1.0000000E+00  -1.0000000E+00  -1.0000000E+00
	2212	-1	0	0	0	0	0.0000000000E+00	0.0000000000E+00	6.5000000000E+03	6.5000000000E+03	9.3827000000E-01	0.000E+00	0.0
	2212	-1	0	0	0	0	0.0000000000E+00	0.0000000000E+00	-6.5000000000E+03	6.5000000000E+03	9.3827000000E-01	0.000E+00	0.0
	2212	1	0	0	0	0	0.0000000000E+00	0.0000000000E+00	5.1793447318E+03	5.1793447318E+03	9.3827000000E-01	0.000E+00	0.0
	2212	1	0	0	0	0	0.0000000000E+00	0.0000000000E+00	-6.2901488723E+03	6.2901488723E+03	9.3827000000E-01	0.000E+00	0.0
	51	2	1	2	0	0	-4.6483611188E+01	1.2854133508E+02	1.1252620187E+03	1.5470818339E+03	1.0528836542E+03	0.000E+00	0.0
	1000022	2	5	5	0	0	4.6483611188E+01	-1.2854133508E+02	9.1010669780E+02	1.2573233036E+03	8.5667034942E+02	0.000E+00	0.0
	14	1	6	6	0	0	-1.1415009197E+02	-3.0880524058E+02	4.8182170972E+02	6.6795814245E+02	3.2500000000E+02	0.000E+00	0.0
	-14	1	6	6	0	0	1.6063370316E+02	1.8026390550E+02	4.2828498808E+02	5.8936516120E+02	3.2500000000E+02	0.000E+00	0.0
	25	2	5	5	0	0	-4.6483611188E+01	1.2854133508E+02	2.0069744276E+02	2.7318309227E+02	1.2516364262E+02	0.000E+00	0.0
	-5	1	9	9	0	501	-3.8585650706E+00	2.4912841278E+01	1.4637179643E+02	1.4858571054E+02	4.1800000000E+00	0.000E+00	0.0
	5	1	9	9	501	0	-4.2625046118E+01	1.0362849380E+02	5.4325646334E+01	1.2459738173E+02	4.1800000000E+00	0.000E+00	0.0
</event>
<event>
    11  -1  1.0000000E+00  1.0000000E+00  -1.0000000E+00  -1.0000000E+00
	2212	-1	0	0	0	0	0.0000000000E+00	0.0000000000E+00	6.5000000000E+03	6.5000000000E+03	9.3827000000E-01	0.000E+00	0.0
	2212	-1	0	0	0	0	0.0000000000E+00	0.0000000000E+00	-6.5000000000E+03	6.5000000000E+03	9.3827000000E-01	0.000E+00	0.0
	2212	1	0	0	0	0	0.0000000000E+00	0.0000000000E+00	6.0296236417E+03	6.0296236417E+03	9.3827000000E-01	0.000E+00	0.0
	2212	1	0	0	0	0	0.0000000000E+00	0.0000000000E+00	-5.9205673477E+03	5.9205673477E+03	9.3827000000E-01	0.000E+00	0.0
	51	2	1	2	0	0	-1.4005082939E+01	1.0185130742E+02	-1.1810774041E+02	1.0558053575E+03	1.0441291507E+03	0.000E+00	0.0
	1000022	2	5	5	0	0	1.4005082939E+01	-1.0185130742E+02	-8.3589919135E+01	8.8579757711E+02	8.7583117201E+02	0.000E+00	0.0
	14	1	6	6	0	0	-1.3421515348E+02	1.4876583299E+02	-2.0434661500E+02	4.3304447757E+02	3.2500000000E+02	0.000E+00	0.0
	-14	1	6	6	0	0	1.4822023642E+02	-2.5061714041E+02	1.2075669586E+02	4.5275309955E+02	3.2500000000E+02	0.000E+00	0.0
	25	2	5	5	0	0	-1.4005082939E+01	1.0185130742E+02	-2.5466374829E+01	1.6401143345E+02	1.2522532844E+02	0.000E+00	0.0
	-5	1	9	9	0	501	-1.4030165106E+01	8.0931185058E+01	4.2640713776E+01	9.2641271144E+01	4.1800000000E+00	0.000E+00	0.0
	5	1	9	9	501	0	2.5082166825E-02	2.0920122365E+01	-6.8107088605E+01	7.1370162303E+01	4.1800000000E+00	0.000E+00	0.0
</event>
<event>
    11  -1  1.0000000E+00  1.0000000E+00  -1.0000000E+00  -1.0000000E+00
	2212	-1	0	0	0	0	0.0000000000E+00	0.0000000000E+00	6.5000000000E+03	6.5000000000E+03	9.3827000000E-01	0.000E+00	0.0
	2212	-1	0	0	0	0	0.0000000000E+00	0.0000000000E+00	-6.5000000000E+03	6.5000000000E+03	9.3827000000E-01	0.000E+00	0.0
	2212	1	0	0	0	0	0.0000000000E+00	0.0000000000E+00	5.7995671701E+03	5.7995671701E+03	9.3827000000E-01	0.000E+00	0.0
	2212	1	0	0	0	0	0.0000000000E+00	0.0000000000E+00	-6.1075781059E+03	6.1075781059E+03	9.3827000000E-01	0.000E+00	0.0
	51	2	1	2	0	0	6.5005522315E+01	-9.7215112881E+01	3.5721170997E+02	1.1138839315E+03	1.0485517208E+03	0.000E+00	0.0
	1000022	2	5	5	0	0	-6.5005522315E+01	9.7215112881E+01	2.0896560185E+02	8.9497185223E+02	8.6234070843E+02	0.000E+00	0.0
	14	1	6	6	0	0	-1.6178756926E+02	2.4686770977E+02	2.7561332979E+02	5.1836916503E+02	3.2500000000E+02	0.000E+00	0.0
	-14	1	6	6	0	0	9.6782046950E+01	-1.4965259689E+02	-6.6647727939E+01	3.7660268720E+02	3.2500000000E+02	0.000E+00	0.0
	25	2	5	5	0	0	6.5005522315E+01	-9.7215112881E+01	9.9045333935E+01	1.9788287173E+02	1.2518449043E+02	0.000E+00	0.0
	-5	1	9	9	0	501	-5.2650092615E+00	2.7267491115E+01	1.2630414323E+01	3.0793443462E+01	4.1800000000E+00	0.000E+00	0.0
	5	1	9	9	501	0	7.0270531577E+01	-1.2448260400E+02	8.6414919612E+01	1.6708942826E+02	4.1800000000E+00	0.000E+00	0.0
</event>
<event>
    11  -1  1.0000000E+00  1.0000000E+00  -1.0000000E+00  -1.0000000E+00
	2212	-1	0	0	0	0	0.0000000000E+00	0.0000000000E+00	6.5000000000E+03	6.5000000000E+03	9.3827000000E-01	0.000E+00	0.0
	2212	-1	0	0	0	0	0.0000000000E+00	0.0000000000E+00	-6.5000000000E+03	6.5000000000E+03	9.3827000000E-01	0.000E+00	0.0
	2212	1	0	0	0	0	0.0000000000E+00	0.0000000000E+00	6.0116591859E+03	6.0116591859E+03	9.3827000000E-01	0.000E+00	0.0
	2212	1	0	0	0	0	0.0000000000E+00	0.0000000000E+00	-5.9302541423E+03	5.9302541423E+03	9.3827000000E-01	0.000E+00	0.0
	51	2	1	2	0	0	-1.0629146916E+02	7.5658766289E+01	9.7046476857E+00	1.0630319514E+03	1.0549505316E+03	0.000E+00	0.0
	1000022	2	5	5	0	0	1.0629146916E+02	-7.5658766289E+01	-1.5779258299E+02	8.6178577091E+02	8.3711056042E+02	0.000E+00	0.0
	14	1	6	6	0	0	-1.2697843577E+02	-7.4895760384E+01	-2.6861650299E+02	4.4666847186E+02	3.2500000000E+02	0.000E+00	0.0
	-14	1	6	6	0	0	2.3326990492E+02	-7.6300590466E-01	1.1082392001E+02	4.1511729905E+02	3.2500000000E+02	0.000E+00	0.0
	25	2	5	5	0	0	-1.0629146916E+02	7.5658766289E+01	7.6387539383E+01	1.9630090097E+02	1.2520727702E+02	0.000E+00	0.0
	-5	1	9	9	0	501	-1.3228457420E+02	5.1791865211E+01	7.5093211324E+01	1.6074224293E+02	4.1800000000E+00	0.000E+00	0.0
	5	1	9	9	501	0	2.5993105047E+01	2.3866901078E+01	1.2943280594E+00	3.5558658048E+01	4.1800000000E+00	0.000E+00	0.0
</event>
<event>
    11  -1  1.0000000E+00  1.0000000E+00  -1.0000000E+00  -1.0000000E+00
	2212	-1	0	0	0	0	0.0000000000E+00	0.0000000000E+00	6.5000000000E+03	6.5000000000E+03	9.3827000000E-01	0.000E+00	0.0
	2212	-1	0	0	0	0	0.0000000000E+00	0.0000000000E+00	-6.5000000000E+03	6.5000000000E+03	9.3827000000E-01	0.000E+00	0.0
	2212	1	0	0	0	0	0.0000000000E+00	0.0000000000E+00	5.0201577777E+03	5.0201577777E+03	9.3827000000E-01	0.000E+00	0.0
	2212	1	0	0	0	0	0.0000000000E+00	0.0000000000E+00	-6.3134531611E+03	6.3134531611E+03	9.3827000000E-01	0.000E+00	0.0
	51	2	1	2	0	0	5.2206190147E+01	7.5609666308E+01	1.4795620939E+03	1.8170816855E+03	1.0508280327E+03	0.000E+00	0.0
	1000022	2	5	5	0	0	-5.2206190147E+01	-7.5609666308E+01	8.8486739395E+02	1.2294454148E+03	8.4858907323E+02	0.000E+00	0.0
	14	1	6	6	0	0	-6.5923088353E+01	-2.2966108917E+02	1.8782855322E+02	4.4496588056E+02	3.2500000000E+02	0.000E+00	0.0
	-14	1	6	6	0	0	1.3716898206E+01	1.5405142286E+02	6.9703884073E+02	7.8447953426E+02	3.2500000000E+02	0.000E+00	0.0
	25	2	5	5	0	0	5.2206190147E+01	7.5609666308E+01	4.0842798950E+02	4.3694364637E+02	1.2515598094E+02	0.000E+00	0.0
	-5	1	9	9	0	501	-6.5346052234E+00	-1.8875321832E+01	1.9644668147E+02	1.9750379718E+02	4.1800000000E+00	0.000E+00	0.0
	5	1	9	9	501	0	5.8740795370E+01	9.4484988140E+01	2.1198130803E+02	2.3943984918E+02	4.1800000000E+00	0.000E+00	0.0
</event>
<event>
    11  -1  1.0000000E+00  1.0000000E+00  -1.0000000E+00  -1.0000000E+00
	2212	-1	0	0	0	0	0.0000000000E+00	0.0000000000E+00	6.5000000000E+03	6.5000000000E+03	9.3827000000E-01	0.000E+00	0.0
	2212	-1	0	0	0	0	0.0000000000E+00	0.0000000000E+00	-6.5000000000E+03	6.5000000000E+03	9.3827000000E-01	0.000E+00	0.0
	2212	1	0	0	0	0	0.0000000000E+00	0.0000000000E+00	5.8528790568E+03	5.8528790568E+03	9.3827000000E-01	0.000E+00	0.0
	2212	1	0	0	0	0	0.0000000000E+00	0.0000000000E+00	-6.0754264091E+03	6.0754264091E+03	9.3827000000E-01	0.000E+00	0.0
	51	2	1	2	0	0	-2.9888637187E+01	1.0075596989E+02	3.0386084474E+02	1.0965301452E+03	1.0483328910E+03	0.000E+00	0.0
	1000022	2	5	5	0	0	2.9888637187E+01	-1.0075596989E+02	1.0452633043E+02	8.7009088557E+02	8.5737232244E+02	0.000E+00	0.0
	14	1	6	6	0	0	-1.2639573876E+02	1.3596730575E+02	2.0559115501E+02	4.2703127991E+02	3.2500000000E+02	0.000E+00	0.0
	-14	1	6	6	0	0	1.5628437594E+02	-2.3672327564E+02	-1.0106482458E+02	4.4305960565E+02	3.2500000000E+02	0.000E+00	0.0
	25	2	5	5	0	0	-2.9888637187E+01	1.0075596989E+02	1.1802102188E+02	2.0160364847E+02	1.2517976421E+02	0.000E+00	0.0
	-5	1	9	9	0	501	2.2039082588E+01	-2.2186265675E-01	-1.4752126851E+01	2.6848985660E+01	4.1800000000E+00	0.000E+00	0.0
	5	1	9	9	501	0	-5.1927719775E+01	1.0097783255E+02	1.3277314873E+02	1.7475466281E+02	4.1800000000E+00	0.000E+00	0.0
</event>
<event>
    11  -1  1.0000000E+00  1.0000000E+00  -1.0000000E+00  -1.0000000E+00
	2212	-1	0	0	0	0	0.0000000000E+00	0.0000000000E+00	6.5000000000E+03	6.5000000000E+03	9.3827000000E-01	0.000E+00	0.0
	2212	-1	0	0	0	0	0.0000000000E+00	0.0000000000E+00	-6.5000000000E+03	6.5000000000E+03	9.3827000000E-01	0.000E+00	0.0
	2212	1	0	0	0	0	0.0000000000E+00	0.0000000000E+00	6.1636177068E+03	6.1636177068E+03	9.3827000000E-01	0.000E+00	0.0
	2212	1	0	0	0	0	0.0000000000E+00	0.0000000000E+00	-5.6775504713E+03	5.6775504713E+03	9.3827000000E-01	0.000E+00	0.0
	51	2	1	2	0	0	5.4738297328E+01	1.2488039575E+02	-4.2812841973E+02	1.1439034803E+03	1.0519647495E+03	0.000E+00	0.0
	1000022	2	5	5	0	0	-5.4738297328E+01	-1.2488039575E+02	-4.5929865431E+02	9.7180944576E+02	8.4549804883E+02	0.000E+00	0.0
	14	1	6	6	0	0	-3.6059349604E+01	9.7578092626E+01	3.0990380434E+01	3.4264728882E+02	3.2500000000E+02	0.000E+00	0.0
	-14	1	6	6	0	0	-1.8678947725E+01	-2.2245848838E+02	-4.9028903475E+02	6.2916215694E+02	3.2500000000E+02	0.000E+00	0.0
	25	2	5	5	0	0	5.4738297328E+01	1.2488039575E+02	-2.6768581158E+01	1.8702237617E+02	1.2517754516E+02	0.000E+00	0.0
	-5	1	9	9	0	501	3.3416330082E+01	-1.5839629235E+01	1.2602709926E+01	3.9291801536E+01	4.1800000000E+00	0.000E+00	0.0
	5	1	9	9	501	0	2.1321967246E+01	1.4072002499E+02	-3.9371291084E+01	1.4773057463E+02	4.1800000000E+00	0.000E+00	0.0
</event>
<event>
    11  -1  1.0000000E+00  1.0000000E+00  -1.0000000E+00  -1.0000000E+00
	2212	-1	0	0	0	0	0.0000000000E+00	0.0000000000E+00	6.5000000000E+03	6.5000000000E+03	9.3827000000E-01	0.000E+00	0.0
	2212	-1	0	0	0	0	0.0000000000E+00	0.0000000000E+00	-6.5000000000E+03	6.5000000000E+03	9.3827000000E-01	0.000E+00	0.0
	2212	1	0	0	0	0	0.0000000000E+00	0.0000000000E+00	6.2088729311E+03	6.2088729311E+03	9.3827000000E-01	0.000E+00	0.0
	2212	1	0	0	0	0	0.0000000000E+00	0.0000000000E+00	-5.5551517177E+03	5.5551517177E+03	9.3827000000E-01	0.000E+00	0.0
	51	2	1	2	0	0	-3.7775380948E+01	1.1486887946E+02	-5.9154592048E+02	1.2103024659E+03	1.0489440614E+03	0.000E+00	0.0
	1000022	2	5	5	0	0	3.7775380948E+01	-1.1486887946E+02	-6.0700949788E+02	1.0557781261E+03	8.5532747076E+02	0.000E+00	0.0
	14	1	6	6	0	0	-1.4548761699E+02	-2.8216850945E+02	-3.3922632529E+02	5.6699666154E+02	3.2500000000E+02	0.000E+00	0.0
	-14	1	6	6	0	0	1.8326299794E+02	1.6729962999E+02	-2.6778317259E+02	4.8878146460E+02	3.2500000000E+02	0.000E+00	0.0
	25	2	5	5	0	0	-3.7775380948E+01	1.1486887946E+02	-4.6711715461E+01	1.8019722506E+02	1.2516875283E+02	0.000E+00	0.0
	-5	1	9	9	0	501	-4.1195305254E+01	1.3160854160E+02	-8.6165397744E+00	1.3823739926E+02	4.1800000000E+00	0.000E+00	0.0
	5	1	9	9	501	0	3.4199243066E+00	-1.6739662137E+01	-3.8095175687E+01	4.1959825802E+01	4.1800000000E+00	0.000E+00	0.0
</event>
<event>
    11  -1  1.0000000E+00  1.0000000E+00  -1.0000000E+00  -1.0000000E+00
	2212	-1	0	0	0	0	0.0000000000E+00	0.0000000000E+00	6.5000000000E+03	6.5000000000E+03	9.3827000000E-01	0.000E+00	0.0
	2212	-1	0	0	0	0	0.0000000000E+00	0.0000000000E+00	-6.5000000000E+03	6.5000000000E+03	9.3827000000E-01	0.000E+00	0.0
	2212	1	0	0	0	0	0.0000000000E+00	0.0000000000E+00	6.1643354741E+03	6.1643354741E+03	9.3827000000E-01	0.000E+00	0.0
	2212	1	0	0	0	0	0.0000000000E+00	0.0000000000E+00	-5.6853871790E+03	5.6853871790E+03	9.3827000000E-01	0.000E+00	0.0
	51	2	1	2	0	0	3.8485347919E+01	5.3960704779E+01	-3.9742370551E+02	1.1207519738E+03	1.0458233624E+03	0.000E+00	0.0
	1000022	2	5	5	0	0	-3.8485347919E+01	-5.3960704779E+01	-4.8904550646E+02	1.0082574906E+03	8.7921827795E+02	0.000E+00	0.0
	14	1	6	6	0	0	8.4018547638E+01	-7.7188566240E+01	-5.5574191381E+02	6.5382816234E+02	3.2500000000E+02	0.000E+00	0.0
	-14	1	6	6	0	0	-1.2250389556E+02	2.3227861461E+01	6.6696407347E+01	3.5442932826E+02	3.2500000000E+02	0.000E+00	0.0
	25	2	5	5	0	0	3.8485347919E+01	5.3960704779E+01	1.0097211344E+01	1.4201985631E+02	1.2519906647E+02	0.000E+00	0.0
	-5	1	9	9	0	501	7.9386384066E+01	9.9496740513E+00	-3.8119459160E+00	8.0207214890E+01	4.1800000000E+00	0.000E+00	0.0
	5	1	9	9	501	0	-4.0901036147E+01	4.4011030728E+01	1.3909157260E+01	6.1812641420E+01	4.1800000000E+00	0.000E+00	0.0
</event>
<event>
    11  -1  1.0000000E+00  1.0000000E+00  -1.0000000E+00  -1.0000000E+00
	2212	-1	0	0	0	0	0.0000000000E+00	0.0000000000E+00	6.5000000000E+03	6.5000000000E+03	9.3827000000E-01	0.000E+00	0.0
	2212	-1	0	0	0	0	0.0000000000E+00	0.0000000000E+00	-6.5000000000E+03	6.5000000000E+03	9.3827000000E-01	0.000E+00	0.0
	2212	1	0	0	0	0	0.0000000000E+00	0.0000000000E+00	6.2238267452E+03	6.2238267452E+03	9.3827000000E-01	0.000E+00	0.0
	2212	1	0	0	0	0	0.0000000000E+00	0.0000000000E+00	-5.4951503069E+03	5.4951503069E+03	9.3827000000E-01	0.000E+00	0.0
	51	2	1	2	0	0	1.0629145629E+02	-2.3465989279E+01	-6.4545400500E+02	1.2403668167E+03	1.0535893133E+03	0.000E+00	0.0
	1000022	2	5	5	0	0	-1.0629145629E+02	2.3465989279E+01	-6.9214774320E+02	1.1111549897E+03	8.6240847994E+02	0.000E+00	0.0
	14	1	6	6	0	0	1.1297199783E+02	1.5797547829E+02	-1.0581673314E+02	3.9311716453E+02	3.2500000000E+02	0.000E+00	0.0
	-14	1	6	6	0	0	-2.1926345412E+02	-1.3450948901E+02	-5.8633101006E+02	7.1803782512E+02	3.2500000000E+02	0.000E+00	0.0
	25	2	5	5	0	0	1.0629145629E+02	-2.3465989279E+01	-3.6528695129E+01	1.6986795820E+02	1.2518886261E+02	0.000E+00	0.0
	-5	1	9	9	0	501	1.0527776138E+02	1.8405067392E+01	9.6428427226E+00	1.0738999191E+02	4.1800000000E+00	0.000E+00	0.0
	5	1	9	9	501	0	1.0136949120E+00	-4.1871056671E+01	-4.6171537852E+01	6.2477966290E+01	4.1800000000E+00	0.000E+00	0.0
</event>
<event>
    11  -1  1.0000000E+00  1.0000000E+00  -1.0000000E+00  -1.0000000E+00
	2212	-1	0	0	0	0	0.0000000000E+00	0.0000000000E+00	6.5000000000E+03	6.5000000000E+03	9.3827000000E-01	0.000E+00	0.0
	2212	-1	0	0	0	0	0.0000000000E+00	0.0000000000E+00	-6.5000000000E+03	6.5000000000E+03	9.3827000000E-01	0.000E+00	0.0
	2212	1	0	0	0	0	0.0000000000E+00	0.0000000000E+00	5.7805529149E+03	5.7805529149E+03	9.3827000000E-01	0.000E+00	0.0
	2212	1	0	0	0	0	0.0000000000E+00	0.0000000000E+00	-6.0942764195E+03	6.0942764195E+03	9.3827000000E-01	0.000E+00	0.0
	51	2	1	2	0	0	-1.5014893453E+02	-1.6185271538E+01	2.3412532654E+02	1.1158888491E+03	1.0805492074E+03	0.000E+00	0.0
	1000022	2	5	5	0	0	1.5014893453E+02	1.6185271538E+01	3.3569892321E+02	9.2778821396E+02	8.5163991062E+02	0.000E+00	0.0
	14	1	6	6	0	0	-1.9580884669E+02	-5.7623351622E+01	1.6859981483E+02	4.1918069213E+02	3.2500000000E+02	0.000E+00	0.0
	-14	1	6	6	0	0	3.4595778122E+02	7.3808623159E+01	1.6709910838E+02	5.0860752183E+02	3.2500000000E+02	0.000E+00	0.0
	25	2	5	5	0	0	-1.5014893453E+02	-1.6185271538E+01	-2.1975418668E+01	1.9738245167E+02	1.2518085976E+02	0.000E+00	0.0
	-5	1	9	9	0	501	-7.6172104395E+01	4.6187987819E+01	2.0690668703E+01	9.1548325370E+01	4.1800000000E+00	0.000E+00	0.0
	5	1	9	9	501	0	-7.3976830133E+01	-6.2373259356E+01	-4.2666087371E+01	1.0583412631E+02	4.1800000000E+00	0.000E+00	0.0
</event>
<event>
    11  -1  1.0000000E+00  1.0000000E+00  -1.0000000E+00  -1.0000000E+00
	2212	-1	0	0	0	0	0.0000000000E+00	0.0000000000E+00	6.5000000000E+03	6.5000000000E+03	9.3827000000E-01	0.000E+00	0.0
	2212	-1	0	0	0	0	0.0000000000E+00	0.0000000000E+00	-6.5000000000E+03	6.5000000000E+03	9.3827000000E-01	0.000E+00	0.0
	2212	1	0	0	0	0	0.0000000000E+00	0.0000000000E+00	6.3143175507E+03	6.3143175507E+03	9.3827000000E-01	0.000E+00	0.0
	2212	1	0	0	0	0	0.0000000000E+00	0.0000000000E+00	-5.0129803682E+03	5.0129803682E+03	9.3827000000E-01	0.000E+00	0.0
	51	2	1	2	0	0	9.3644510342E+01	1.4229272625E+01	-1.1496281369E+03	1.5604712138E+03	1.0509299641E+03	0.000E+00	0.0
	1000022	2	5	5	0	0	-9.3644510342E+01	-1.4229272625E+01	-1.2323385399E+03	1.5012415159E+03	8.5211269540E+02	0.000E+00	0.0
	14	1	6	6	0	0	2.2706104127E+02	-4.0328451791E+00	-4.9931807522E+02	6.3758648084E+02	3.2500000000E+02	0.000E+00	0.0
	-14	1	6	6	0	0	-3.2070555161E+02	-1.0196427446E+01	-7.3302046472E+02	8.6365503511E+02	3.2500000000E+02	0.000E+00	0.0
	25	2	5	5	0	0	9.3644510342E+01	1.4229272625E+01	-6.8998642577E+01	1.7146056515E+02	1.2516447662E+02	0.000E+00	0.0
	-5	1	9	9	0	501	7.6184314953E+01	6.2122306030E+01	-1.9541753205E+01	1.0031242829E+02	4.1800000000E+00	0.000E+00	0.0
	5	1	9	9	501	0	1.7460195389E+01	-4.7893033405E+01	-4.9456889372E+01	7.1148136856E+01	4.1800000000E+00	0.000E+00	0.0
</event>
<event>
    11  -1  1.0000000E+00  1.0000000E+00  -1.0000000E+00  -1.0000000E+00
	2212	-1	0	0	0	0	0.0000000000E+00	0.0000000000E+00	6.5000000000E+03	6.5000000000E+03	9.3827000000E-01	0.000E+00	0.0
	2212	-1	0	0	0	0	0.0000000000E+00	0.0000000000E+00	-6.5000000000E+03	6.5000000000E+03	9.3827000000E-01	0.000E+00	0.0
	2212	1	0	0	0	0	0.0000000000E+00	0.0000000000E+00	5.2558943987E+03	5.2558943987E+03	9.3827000000E-01	0.000E+00	0.0
	2212	1	0	0	0	0	0.0000000000E+00	0.0000000000E+00	-6.2825588942E+03	6.2825588942E+03	9.3827000000E-01	0.000E+00	0.0
	51	2	1	2	0	0	1.1492486958E+02	5.9048568767E+01	1.1311343245E+03	1.5421537245E+03	1.0402301625E+03	0.000E+00	0.0
	1000022	2	5	5	0	0	-1.1492486958E+02	-5.9048568767E+01	7.4266613282E+02	1.1253651196E+03	8.3558315470E+02	0.000E+00	0.0
	14	1	6	6	0	0	-1.0028308984E+02	-1.8049261363E+02	1.0472193064E+02	3.9903128253E+02	3.2500000000E+02	0.000E+00	0.0
	-14	1	6	6	0	0	-1.4641779743E+01	1.2144404487E+02	6.3794420219E+02	7.2633383705E+02	3.2500000000E+02	0.000E+00	0.0
	25	2	5	5	0	0	1.1492486958E+02	5.9048568767E+01	2.8399836264E+02	3.3618158757E+02	1.2517400175E+02	0.000E+00	0.0
	-5	1	9	9	0	501	1.0066144270E+02	9.5766739740E+01	2.3659506700E+02	2.7440607248E+02	4.1800000000E+00	0.000E+00	0.0
	5	1	9	9	501	0	1.4263426881E+01	-3.6718170973E+01	4.7403295644E+01	6.1775515084E+01	4.1800000000E+00	0.000E+00	0.0
</event>
<event>
    11  -1  1.0000000E+00  1.0000000E+00  -1.0000000E+00  -1.0000000E+00
	2212	-1	0	0	0	0	0.0000000000E+00	0.0000000000E+00	6.5000000000E+03	6.5000000000E+03	9.3827000000E-01	0.000E+00	0.0
	2212	-1	0	0	0	0	0.0000000000E+00	0.0000000000E+00	-6.5000000000E+03	6.5000000000E+03	9.3827000000E-01	0.000E+00	0.0
	2212	1	0	0	0	0	0.0000000000E+00	0.0000000000E+00	5.6692287032E+03	5.6692287032E+03	9.3827000000E-01	0.000E+00	0.0
	2212	1	0	0	0	0	0.0000000000E+00	0.0000000000E+00	-6.1707438532E+03	6.1707438532E+03	9.3827000000E-01	0.000E+00	0.0
	51	2	1	2	0	0	2.5266306592E+01	1.3015488942E+02	4.1236647704E+02	1.1321532657E+03	1.0460144474E+03	0.000E+00	0.0
	1000022	2	5	5	0	0	-2.5266306592E+01	-1.3015488942E+02	4.9977507105E+02	9.7767178758E+02	8.2975196361E+02	0.000E+00	0.0
	14	1	6	6	0	0	1.6209683688E+02	-1.7564981950E+02	7.7145729912E+01	4.1073678586E+02	3.2500000000E+02	0.000E+00	0.0
	-14	1	6	6	0	0	-1.8736314347E+02	4.5494930075E+01	4.2262934113E+02	5.6693500172E+02	3.2500000000E+02	0.000E+00	0.0
	25	2	5	5	0	0	2.5266306592E+01	1.3015488942E+02	1.7400790244E+00	1.8235565599E+02	1.2518736321E+02	0.000E+00	0.0
	-5	1	9	9	0	501	-2.5084049524E+01	1.2885817041E+02	7.0798144628E+00	1.3153415448E+02	4.1800000000E+00	0.000E+00	0.0
	5	1	9	9	501	0	5.0350356116E+01	1.2967190135E+00	-5.3397354384E+00	5.0821501510E+01	4.1800000000E+00	0.000E+00	0.0
</event>
<event>
    11  -1  1.0000000E+00  1.0000000E+00  -1.0000000E+00  -1.0000000E+00
	2212	-1	0	0	0	0	0.0000000000E+00	0.0000000000E+00	6.5000000000E+03	6.5000000000E+03	9.3827000000E-01	0.000E+00	0.0
	2212	-1	0	0	0	0	0.0000000000E+00	0.0000000000E+00	-6.5000000000E+03	6.5000000000E+03	9.3827000000E-01	0.000E+00	0.0
	2212	1	0	0	0	0	0.0000000000E+00	0.0000000000E+00	5.6665848758E+03	5.6665848758E+03	9.3827000000E-01	0.000E+00	0.0
	2212	1	0	0	0	0	0.0000000000E+00	0.0000000000E+00	-6.1661631133E+03	6.1661631133E+03	9.3827000000E-01	0.000E+00	0.0
	51	2	1	2	0	0	-5.6882829076E+01	-6.7816571236E+01	3.6776424915E+02	1.1207069768E+03	1.0549402075E+03	0.000E+00	0.0
	1000022	2	5	5	0	0	5.6882829076E+01	6.7816571236E+01	5.4324477538E+02	1.0078427395E+03	8.4427327207E+02	0.000E+00	0.0
	14	1	6	6	0	0	-2.3326963396E+02	7.4122174242E+01	2.0111268909E+02	4.5385034158E+02	3.2500000000E+02	0.000E+00	0.0
	-14	1	6	6	0	0	2.9015246304E+02	-6.3056030059E+00	3.4213208629E+02	5.5399239788E+02	3.2500000000E+02	0.000E+00	0.0
	25	2	5	5	0	0	-5.6882829076E+01	-6.7816571236E+01	-4.3666537846E+01	1.5940927137E+02	1.2517909448E+02	0.000E+00	0.0
	-5	1	9	9	0	501	-1.6637351384E+01	3.6012425107E+01	-2.3092232628E+01	4.6091429039E+01	4.1800000000E+00	0.000E+00	0.0
	5	1	9	9	501	0	-4.0245477692E+01	-1.0382899634E+02	-2.0574305218E+01	1.1331784234E+02	4.1800000000E+00	0.000E+00	0.0
</event>
<event>
    11  -1  1.0000000E+00  1.0000000E+00  -1.0000000E+00  -1.0000000E+00
	2212	-1	0	0	0	0	0.0000000000E+00	0.0000000000E+00	6.5000000000E+03	6.5000000000E+03	9.3827000000E-01	0.000E+00	0.0
	2212	-1	0	0	0	0	0.0000000000E+00	0.0000000000E+00	-6.5000000000E+03	6.5000000000E+03	9.3827000000E-01	0.000E+00	0.0
	2212	1	0	0	0	0	0.0000000000E+00	0.0000000000E+00	5.7420717964E+03	5.7420717964E+03	9.3827000000E-01	0.000E+00	0.0
	2212	1	0	0	0	0	0.0000000000E+00	0.0000000000E+00	-6.1363527664E+03	6.1363527664E+03	9.3827000000E-01	0.000E+00	0.0
	51	2	1	2	0	0	-5.4289394038E+01	2.3791376064E+02	3.9682265596E+02	1.1486916445E+03	1.0499876085E+03	0.000E+00	0.0
	1000022	2	5	5	0	0	5.4289394038E+01	-2.3791376064E+02	2.9922681741E+02	8.3129737764E+02	7.3618499441E+02	0.000E+00	0.0
	14	1	6	6	0	0	5.2375938502E+01	-2.0523747026E+02	3.2158006512E+02	5.0388927000E+02	3.2500000000E+02	0.000E+00	0.0
	-14	1	6	6	0	0	1.9134555362E+00	-3.2676290378E+01	-2.2353247713E+01	3.2740810764E+02	3.2500000000E+02	0.000E+00	0.0
	25	2	5	5	0	0	-5.4289394038E+01	2.3791376064E+02	9.5054152686E+01	2.9027805956E+02	1.2520289179E+02	0.000E+00	0.0
	-5	1	9	9	0	501	-1.1240486307E+01	1.1903926183E+00	-2.0151658090E+01	2.3480359681E+01	4.1800000000E+00	0.000E+00	0.0
	5	1	9	9	501	0	-4.3048907731E+01	2.3672336802E+02	1.1520581078E+02	2.6679769988E+02	4.1800000000E+00	0.000E+00	0.0
</event>
<event>
    11  -1  1.0000000E+00  1.0000000E+00  -1.0000000E+00  -1.0000000E+00
	2212	-1	0	0	0	0	0.0000000000E+00	0.0000000000E+00	6.5000000000E+03	6.5000000000E+03	9.3827000000E-01	0.000E+00	0.0
	2212	-1	0	0	0	0	0.0000000000E+00	0.0000000000E+00	-6.5000000000E+03	6.5000000000E+03	9.3827000000E-01	0.000E+00	0.0
	2212	1	0	0	0	0	0.0000000000E+00	0.0000000000E+00	6.0716716049E+03	6.0716716049E+03	9.3827000000E-01	0.000E+00	0.0
	2212	1	0	0	0	0	0.0000000000E+00	0.0000000000E+00	-5.8801400660E+03	5.8801400660E+03	9.3827000000E-01	0.000E+00	0.0
	51	2	1	2	0	0	-7.5478738593E+01	3.8568347195E+01	-2.7864620568E+02	1.0709074228E+03	1.0305408497E+03	0.000E+00	0.0
	1000022	2	5	5	0	0	7.5478738593E+01	-3.8568347195E+01	-7.3545267804E+01	8.5651922516E+02	8.4913586620E+02	0.000E+00	0.0
	14	1	6	6	0	0	-1.1295905733E+02	-2.0038665009E+02	-1.7523040441E+02	4.3502327845E+02	3.2500000000E+02	0.000E+00	0.0
	-14	1	6	6	0	0	1.8843779592E+02	1.6181830289E+02	1.0168513661E+02	4.2149594670E+02	3.2500000000E+02	0.000E+00	0.0
	25	2	5	5	0	0	-7.5478738593E+01	3.8568347195E+01	-1.1798627116E+02	1.9166910394E+02	1.2502690845E+02	0.000E+00	0.0
	-5	1	9	9	0	501	-5.3637646235E+01	-3.9996219901E+01	-7.0174148705E+01	9.7049359846E+01	4.1800000000E+00	0.000E+00	0.0
	5	1	9	9	501	0	-2.1841092357E+01	7.8564567097E+01	-4.7812122454E+01	9.4619744092E+01	4.1800000000E+00	0.000E+00	0.0
</event>
<event>
    11  -1  1.0000000E+00  1.0000000E+00  -1.0000000E+00  -1.0000000E+00
	2212	-1	0	0	0	0	0.0000000000E+00	0.0000000000E+00	6.5000000000E+03	6.5000000000E+03	9.3827000000E-01	0.000E+00	0.0
	2212	-1	0	0	0	0	0.0000000000E+00	0.0000000000E+00	-6.5000000000E+03	6.5000000000E+03	9.3827000000E-01	0.000E+00	0.0
	2212	1	0	0	0	0	0.0000000000E+00	0.0000000000E+00	6.3276792719E+03	6.3276792719E+03	9.3827000000E-01	0.000E+00	0.0
	2212	1	0	0	0	0	0.0000000000E+00	0.0000000000E+00	-4.8785357429E+03	4.8785357429E+03	9.3827000000E-01	0.000E+00	0.0
	51	2	1	2	0	0	5.2504797891E+01	-8.0615946362E+01	-1.3996953129E+03	1.7567157593E+03	1.0571885384E+03	0.000E+00	0.0
	1000022	2	5	5	0	0	-5.2504797891E+01	8.0615946362E+01	-1.2841736589E+03	1.5654423068E+03	8.9008535846E+02	0.000E+00	0.0
	14	1	6	6	0	0	4.8543342112E+01	-2.2582480013E+02	-8.2820064922E+02	9.1918149013E+02	3.2500000000E+02	0.000E+00	0.0
	-14	1	6	6	0	0	-1.0104814000E+02	3.0644074649E+02	-4.5597300964E+02	6.4626081672E+02	3.2500000000E+02	0.000E+00	0.0
	25	2	5	5	0	0	5.2504797891E+01	-8.0615946362E+01	-1.6496987008E+02	2.2834267836E+02	1.2517841714E+02	0.000E+00	0.0
	-5	1	9	9	0	501	1.5515228434E+01	2.6433341549E+01	-8.2694417075E+01	8.8290899158E+01	4.1800000000E+00	0.000E+00	0.0
	5	1	9	9	501	0	3.6989569457E+01	-1.0704928791E+02	-8.2275453003E+01	1.4005177920E+02	4.1800000000E+00	0.000E+00	0.0
</event>
<event>
    11  -1  1.0000000E+00  1.0000000E+00  -1.0000000E+00  -1.0000000E+00
	2212	-1	0	0	0	0	0.0000000000E+00	0.0000000000E+00	6.5000000000E+03	6.5000000000E+03	9.3827000000E-01	0.000E+00	0.0
	2212	-1	0	0	0	0	0.0000000000E+00	0.0000000000E+00	-6.5000000000E+03	6.5000000000E+03	9.3827000000E-01	0.000E+00	0.0
	2212	1	0	0	0	0	0.0000000000E+00	0.0000000000E+00	6.1738903834E+03	6.1738903834E+03	9.3827000000E-01	0.000E+00	0.0
	2212	1	0	0	0	0	0.0000000000E+00	0.0000000000E+00	-5.6604567481E+03	5.6604567481E+03	9.3827000000E-01	0.000E+00	0.0
	51	2	1	2	0	0	-9.1688495141E+01	1.0011925172E+02	-4.9809046996E+02	1.1669007126E+03	1.0464857916E+03	0.000E+00	0.0
	1000022	2	5	5	0	0	9.1688495141E+01	-1.0011925172E+02	-4.4213683022E+02	9.6770554282E+02	8.5002258574E+02	0.000E+00	0.0
	14	1	6	6	0	0	-1.1256502157E+02	-2.7366244630E+02	-2.2704871580E+02	4.9471015549E+02	3.2500000000E+02	0.000E+00	0.0
	-14	1	6	6	0	0	2.0425351671E+02	1.7354319458E+02	-2.1508811442E+02	4.7299538733E+02	3.2500000000E+02	0.000E+00	0.0
	25	2	5	5	0	0	-9.1688495141E+01	1.0011925172E+02	-7.1296805015E+01	1.9794732571E+02	1.2517693335E+02	0.000E+00	0.0
	-5	1	9	9	0	501	-3.6593379456E+01	1.0818697644E+02	-9.5293826111E+00	1.1468120520E+02	4.1800000000E+00	0.000E+00	0.0
	5	1	9	9	501	0	-5.5095115685E+01	-8.0677247234E+00	-6.1767422404E+01	8.3266120511E+01	4.1800000000E+00	0.000E+00	0.0
</event>
<event>
    11  -1  1.0000000E+00  1.0000000E+00  -1.0000000E+00  -1.0000000E+00
	2212	-1	0	0	0	0	0.0000000000E+00	0.0000000000E+00	6.5000000000E+03	6.5000000000E+03	9.3827000000E-01	0.000E+00	0.0
	2212	-1	0	0	0	0	0.0000000000E+00	0.0000000000E+00	-6.5000000000E+03	6.5000000000E+03	9.3827000000E-01	0.000E+00	0.0
	2212	1	0	0	0	0	0.0000000000E+00	0.0000000000E+00	6.3101058280E+03	6.3101058280E+03	9.3827000000E-01	0.000E+00	0.0
	2212	1	0	0	0	0	0.0000000000E+00	0.0000000000E+00	-5.0638410127E+03	5.0638410127E+03	9.3827000000E-01	0.000E+00	0.0
	51	2	1	2	0	0	5.5773265236E+01	-1.2213417349E+02	-1.3004993303E+03	1.6733794575E+03	1.0444486043E+03	0.000E+00	0.0
	1000022	2	5	5	0	0	-5.5773265236E+01	1.2213417349E+02	-9.8115925536E+02	1.3035947025E+03	8.4773713537E+02	0.000E+00	0.0
	14	1	6	6	0	0	-7.5846365338E+01	4.1022461013E+01	-8.9654055497E+02	9.5752048550E+02	3.2500000000E+02	0.000E+00	0.0
	-14	1	6	6	0	0	2.0073100101E+01	8.1111712477E+01	-8.4618700382E+01	3.4607421704E+02	3.2500000000E+02	0.000E+00	0.0
	25	2	5	5	0	0	5.5773265236E+01	-1.2213417349E+02	-2.6510555997E+02	3.2245845680E+02	1.2518420420E+02	0.000E+00	0.0
	-5	1	9	9	0	501	4.5097752210E+01	3.4770276190E+00	-1.2961498901E+02	1.3734414713E+02	4.1800000000E+00	0.000E+00	0.0
	5	1	9	9	501	0	1.0675513026E+01	-1.2561120111E+02	-1.3549057096E+02	1.8511430967E+02	4.1800000000E+00	0.000E+00	0.0
</event>
<event>
    11  -1  1.0000000E+00  1.0000000E+00  -1.0000000E+00  -1.0000000E+00
	2212	-1	0	0	0	0	0.0000000000E+00	0.0000000000E+00	6.5000000000E+03	6.5000000000E+03	9.3827000000E-01	0.000E+00	0.0
	2212	-1	0	0	0	0	0.0000000000E+00	0.0000000000E+00	-6.5000000000E+03	6.5000000000E+03	9.3827000000E-01	0.000E+00	0.0
	2212	1	0	0	0	0	0.0000000000E+00	0.0000000000E+00	6.2445861485E+03	6.2445861485E+03	9.3827000000E-01	0.000E+00	0.0
	2212	1	0	0	0	0	0.0000000000E+00	0.0000000000E+00	-5.4627263334E+03	5.4627263334E+03	9.3827000000E-01	0.000E+00	0.0
	51	2	1	2	0	0	5.6007738821E+01	-5.9950940223E+01	-8.9118054418E+02	1.3640637791E+03	1.0294349174E+03	0.000E+00	0.0
	1000022	2	5	5	0	0	-5.6007738821E+01	5.9950940223E+01	-5.4756359130E+02	1.0146830880E+03	8.5030870897E+02	0.000E+00	0.0
	14	1	6	6	0	0	-8.0976480558E+01	2.8268900660E+02	-3.9950015161E+02	5.9303932078E+02	3.2500000000E+02	0.000E+00	0.0
	-14	1	6	6	0	0	2.4968741737E+01	-2.2273806637E+02	-1.4806343969E+02	4.2164376723E+02	3.2500000000E+02	0.000E+00	0.0
	25	2	5	5	0	0	5.6007738821E+01	-5.9950940223E+01	-2.3429622382E+02	2.7800443013E+02	1.2514296077E+02	0.000E+00	0.0
	-5	1	9	9	0	501	3.3042300853E+01	-8.9967304102E+01	-2.1485111465E+02	2.3529637337E+02	4.1800000000E+00	0.000E+00	0.0
	5	1	9	9	501	0	2.2965437967E+01	3.0016363879E+01	-1.9445109173E+01	4.2708056761E+01	4.1800000000E+00	0.000E+00	0.0
</event>
<event>
    11  -1  1.0000000E+00  1.0000000E+00  -1.0000000E+00  -1.0000000E+00
	2212	-1	0	0	0	0	0.0000000000E+00	0.0000000000E+00	6.5000000000E+03	6.5000000000E+03	9.3827000000E-01	0.000E+00	0.0
	2212	-1	0	0	0	0	0.0000000000E+00	0.0000000000E+00	-6.5000000000E+03	6.5000000000E+03	9.3827000000E-01	0.000E+00	0.0
	2212	1	0	0	0	0	0.0000000000E+00	0.0000000000E+00	5.9525667535E+03	5.9525667535E+03	9.3827000000E-01	0.000E+00	0.0
	2212	1	0	0	0	0	0.0000000000E+00	0.0000000000E+00	-6.0269900071E+03	6.0269900071E+03	9.3827000000E-01	0.000E+00	0.0
	51	2	1	2	0	0	3.7682004128E+01	-1.5403597831E+02	1.1368319259E+02	1.0362608110E+03	1.0177256920E+03	0.000E+00	0.0
	1000022	2	5	5	0	0	-3.7682004128E+01	1.5403597831E+02	2.1192203070E+01	8.1306287639E+02	7.9716693073E+02	0.000E+00	0.0
	14	1	6	6	0	0	8.8549468210E+01	-2.2727569138E+01	-1.6989939737E+02	3.7795284884E+02	3.2500000000E+02	0.000E+00	0.0
	-14	1	6	6	0	0	-1.2623147234E+02	1.7676354745E+02	1.9109160044E+02	4.3511002755E+02	3.2500000000E+02	0.000E+00	0.0
	25	2	5	5	0	0	3.7682004128E+01	-1.5403597831E+02	5.3231050466E+01	2.0738036298E+02	1.2258080668E+02	0.000E+00	0.0
	-5	1	9	9	0	501	-2.0827515952E+01	-1.1588616331E+02	6.7762823000E+01	1.3591416721E+02	4.1800000000E+00	0.000E+00	0.0
	5	1	9	9	501	0	5.8509520081E+01	-3.8149815000E+01	-1.4531772534E+01	7.1466195768E+01	4.1800000000E+00	0.000E+00	0.0
</event>
<event>
    11  -1  1.0000000E+00  1.0000000E+00  -1.0000000E+00  -1.0000000E+00
	2212	-1	0	0	0	0	0.0000000000E+00	0.0000000000E+00	6.5000000000E+03	6.5000000000E+03	9.3827000000E-01	0.000E+00	0.0
	2212	-1	0	0	0	0	0.0000000000E+00	0.0000000000E+00	-6.5000000000E+03	6.5000000000E+03	9.3827000000E-01	0.000E+00	0.0
	2212	1	0	0	0	0	0.0000000000E+00	0.0000000000E+00	5.4084292076E+03	5.4084292076E+03	9.3827000000E-01	0.000E+00	0.0
	2212	1	0	0	0	0	0.0000000000E+00	0.0000000000E+00	-6.2481752060E+03	6.2481752060E+03	9.3827000000E-01	0.000E+00	0.0
	51	2	1	2	0	0	-1.0934115496E+02	-5.4597087803E+01	7.7263730967E+02	1.3082213506E+03	1.0485887467E+03	0.000E+00	0.0
	1000022	2	5	5	0	0	1.0934115496E+02	5.4597087803E+01	7.6623603275E+02	1.1536131329E+03	8.5367984187E+02	0.000E+00	0.0
	14	1	6	6	0	0	1.1330480267E+02	-2.4206476723E+02	3.4006802779E+02	5.4102180489E+02	3.2500000000E+02	0.000E+00	0.0
	-14	1	6	6	0	0	-3.9636477090E+00	2.9666185504E+02	4.2616800496E+02	6.1259132804E+02	3.2500000000E+02	0.000E+00	0.0
	25	2	5	5	0	0	-1.0934115496E+02	-5.4597087803E+01	7.3509965628E+01	1.8978245347E+02	1.2520916274E+02	0.000E+00	0.0
	-5	1	9	9	0	501	-7.1739778743E+01	-3.9836524664E+01	-2.2792657619E+01	8.5267357134E+01	4.1800000000E+00	0.000E+00	0.0
	5	1	9	9	501	0	-3.7601376218E+01	-1.4760563139E+01	9.6302623246E+01	1.0451509633E+02	4.1800000000E+00	0.000E+00	0.0
</event>
<event>
    11  -1  1.0000000E+00  1.0000000E+00  -1.0000000E+00  -1.0000000E+00
	2212	-1	0	0	0	0	0.0000000000E+00	0.0000000000E+00	6.5000000000E+03	6.5000000000E+03	9.3827000000E-01	0.000E+00	0.0
	2212	-1	0	0	0	0	0.0000000000E+00	0.0000000000E+00	-6.5000000000E+03	6.5000000000E+03	9.3827000000E-01	0.000E+00	0.0
	2212	1	0	0	0	0	0.0000000000E+00	0.0000000000E+00	5.9811823444E+03	5.9811823444E+03	9.3827000000E-01	0.000E+00	0.0
	2212	1	0	0	0	0	0.0000000000E+00	0.0000000000E+00	-5.9616102652E+03	5.9616102652E+03	9.3827000000E-01	0.000E+00	0.0
	51	2	1	2	0	0	4.0604026265E+01	-1.3777743783E+02	-6.2104891921E+01	1.0685470168E+03	1.0570262060E+03	0.000E+00	0.0
	1000022	2	5	5	0	0	-4.0604026265E+01	1.3777743783E+02	2.6379258510E+01	8.6121237770E+02	8.4873999841E+02	0.000E+00	0.0
	14	1	6	6	0	0	2.8826383828E+01	-1.8644724063E+02	-8.1557604788E+01	3.8453891460E+02	3.2500000000E+02	0.000E+00	0.0
	-14	1	6	6	0	0	-6.9430410093E+01	3.2422467846E+02	1.0793686330E+02	4.7667346310E+02	3.2500000000E+02	0.000E+00	0.0
	25	2	5	5	0	0	4.0604026265E+01	-1.3777743783E+02	-4.5951337692E+01	1.9599501278E+02	1.2518470463E+02	0.000E+00	0.0
	-5	1	9	9	0	501	3.8624847351E+01	-7.9937779117E+01	-8.7427306390E+01	1.2467130249E+02	4.1800000000E+00	0.000E+00	0.0
	5	1	9	9	501	0	1.9791789136E+00	-5.7839658713E+01	4.1475968698E+01	7.1323710284E+01	4.1800000000E+00	0.000E+00	0.0
</event>
<event>
    11  -1  1.0000000E+00  1.0000000E+00  -1.0000000E+00  -1.0000000E+00
	2212	-1	0	0	0	0	0.0000000000E+00	0.0000000000E+00	6.5000000000E+03	6.5000000000E+03	9.3827000000E-01	0.000E+00	0.0
	2212	-1	0	0	0	0	0.0000000000E+00	0.0000000000E+00	-6.5000000000E+03	6.5000000000E+03	9.3827000000E-01	0.000E+00	0.0
	2212	1	0	0	0	0	0.0000000000E+00	0.0000000000E+00	5.6217082106E+03	5.6217082106E+03	9.3827000000E-01	0.000E+00	0.0
	2212	1	0	0	0	0	0.0000000000E+00	0.0000000000E+00	-6.1832633578E+03	6.1832633578E+03	9.3827000000E-01	0.000E+00	0.0
	51	2	1	2	0	0	-1.1490782672E+00	-1.0618177643E+02	4.7620030237E+02	1.1622355128E+03	1.0548690768E+03	0.000E+00	0.0
	1000022	2	5	5	0	0	1.1490782672E+00	1.0618177643E+02	5.5428732648E+02	1.0307138728E+03	8.6247362698E+02	0.000E+00	0.0
	14	1	6	6	0	0	-1.5565022736E+01	1.6440329222E+02	-2.3206752998E+01	3.6528655301E+02	3.2500000000E+02	0.000E+00	0.0
	-14	1	6	6	0	0	1.6714101004E+01	-5.8221515790E+01	5.7749407948E+02	6.6542731978E+02	3.2500000000E+02	0.000E+00	0.0
	25	2	5	5	0	0	-1.1490782672E+00	-1.0618177643E+02	7.2678206913E+00	1.6431455887E+02	1.2518211938E+02	0.000E+00	0.0
	-5	1	9	9	0	501	-5.7909825788E+01	-8.2163554452E+01	-7.2111249691E+00	1.0086560527E+02	4.1800000000E+00	0.000E+00	0.0
	5	1	9	9	501	0	5.6760747520E+01	-2.4018221975E+01	1.4478945660E+01	6.3448953603E+01	4.1800000000E+00	0.000E+00	0.0
</event>
<event>
    11  -1  1.0000000E+00  1.0000000E+00  -1.0000000E+00  -1.0000000E+00
	2212	-1	0	0	0	0	0.0000000000E+00	0.0000000000E+00	6.5000000000E+03	6.5000000000E+03	9.3827000000E-01	0.000E+00	0.0
	2212	-1	0	0	0	0	0.0000000000E+00	0.0000000000E+00	-6.5000000000E+03	6.5000000000E+03	9.3827000000E-01	0.000E+00	0.0
	2212	1	0	0	0	0	0.0000000000E+00	0.0000000000E+00	5.9741775799E+03	5.9741775799E+03	9.3827000000E-01	0.000E+00	0.0
	2212	1	0	0	0	0	0.0000000000E+00	0.0000000000E+00	-5.9797258187E+03	5.9797258187E+03	9.3827000000E-01	0.000E+00	0.0
	51	2	1	2	0	0	-9.1823849964E+01	9.6434468120E+01	5.6866424134E+01	1.0560550804E+03	1.0460818880E+03	0.000E+00	0.0
	1000022	2	5	5	0	0	9.1823849964E+01	-9.6434468120E+01	-4.6725321058E+01	8.5600637412E+02	8.4429404288E+02	0.000E+00	0.0
	14	1	6	6	0	0	-1.6139390881E+02	-2.0728570378E+02	-8.8976399818E+01	4.2726707867E+02	3.2500000000E+02	0.000E+00	0.0
	-14	1	6	6	0	0	2.5321775878E+02	1.1085123566E+02	4.2251078760E+01	4.2873929545E+02	3.2500000000E+02	0.000E+00	0.0
	25	2	5	5	0	0	-9.1823849964E+01	9.6434468120E+01	5.2273559812E+01	1.9009022726E+02	1.2518204097E+02	0.000E+00	0.0
	-5	1	9	9	0	501	-4.7789926842E+01	1.1365346406E+02	6.7012508313E+01	1.4038922919E+02	4.1800000000E+00	0.000E+00	0.0
	5	1	9	9	501	0	-4.4033923122E+01	-1.7218995944E+01	-1.4738948501E+01	4.9700998076E+01	4.1800000000E+00	0.000E+00	0.0
</event>
<event>
    11  -1  1.0000000E+00  1.0000000E+00  -1.0000000E+00  -1.0000000E+00
	2212	-1	0	0	0	0	0.0000000000E+00	0.0000000000E+00	6.5000000000E+03	6.5000000000E+03	9.3827000000E-01	0.000E+00	0.0
	2212	-1	0	0	0	0	0.0000000000E+00	0.0000000000E+00	-6.5000000000E+03	6.5000000000E+03	9.3827000000E-01	0.000E+00	0.0
	2212	1	0	0	0	0	0.0000000000E+00	0.0000000000E+00	6.0795559982E+03	6.0795559982E+03	9.3827000000E-01	0.000E+00	0.0
	2212	1	0	0	0	0	0.0000000000E+00	0.0000000000E+00	-5.8108115295E+03	5.8108115295E+03	9.3827000000E-01	0.000E+00	0.0
	51	2	1	2	0	0	-1.3408349185E+02	4.6448426952E+01	-2.1998464591E+02	1.1079664786E+03	1.0765967834E+03	0.000E+00	0.0
	1000022	2	5	5	0	0	1.3408349185E+02	-4.6448426952E+01	-2.7126818785E+02	9.2039190621E+02	8.6798559442E+02	0.000E+00	0.0
	14	1	6	6	0	0	-1.0096084174E+02	-2.4841354035E+02	-6.5400239366E+01	4.2638547103E+02	3.2500000000E+02	0.000E+00	0.0
	-14	1	6	6	0	0	2.3504433360E+02	2.0196511340E+02	-2.0586794848E+02	4.9400643518E+02	3.2500000000E+02	0.000E+00	0.0
	25	2	5	5	0	0	-1.3408349185E+02	4.6448426952E+01	2.5237191598E+00	1.8924056604E+02	1.2517900591E+02	0.000E+00	0.0
	-5	1	9	9	0	501	-1.2889240297E+02	5.5331482295E+01	4.3396316434E+01	1.4688613670E+02	4.1800000000E+00	0.000E+00	0.0
	5	1	9	9	501	0	-5.1910888831E+00	-8.8830553434E+00	-4.0872597274E+01	4.2354429331E+01	4.1800000000E+00	0.000E+00	0.0
</event>
<event>
    11  -1  1.0000000E+00  1.0000000E+00  -1.0000000E+00  -1.0000000E+00
	2212	-1	0	0	0	0	0.0000000000E+00	0.0000000000E+00	6.5000000000E+03	6.5000000000E+03	9.3827000000E-01	0.000E+00	0.0
	2212	-1	0	0	0	0	0.0000000000E+00	0.0000000000E+00	-6.5000000000E+03	6.5000000000E+03	9.3827000000E-01	0.000E+00	0.0
	2212	1	0	0	0	0	0.0000000000E+00	0.0000000000E+00	6.3171018320E+03	6.3171018320E+03	9.3827000000E-01	0.000E+00	0.0
	2212	1	0	0	0	0	0.0000000000E+00	0.0000000000E+00	-5.0329363304E+03	5.0329363304E+03	9.3827000000E-01	0.000E+00	0.0
	51	2	1	2	0	0	-3.1397323179E+01	1.1955241026E+01	-1.5616027525E+03	1.8743065134E+03	1.0359985666E+03	0.000E+00	0.0
	1000022	2	5	5	0	0	3.1397323179E+01	-1.1955241026E+01	-7.6446269480E+02	1.1143419240E+03	8.1007776917E+02	0.000E+00	0.0
	14	1	6	6	0	0	7.6342584223E+01	1.7949838733E+02	-1.8578902970E+02	4.2212607687E+02	3.2500000000E+02	0.000E+00	0.0
	-14	1	6	6	0	0	-4.4945261043E+01	-1.9145362835E+02	-5.7867366510E+02	6.9221584710E+02	3.2500000000E+02	0.000E+00	0.0
	25	2	5	5	0	0	-3.1397323179E+01	1.1955241026E+01	-5.1970280680E+02	5.3561991359E+02	1.2517573547E+02	0.000E+00	0.0
	-5	1	9	9	0	501	3.5175600455E+01	1.4630281794E+01	-3.6657334999E+02	3.6857137889E+02	4.1800000000E+00	0.000E+00	0.0
	5	1	9	9	501	0	-6.6572923635E+01	-2.6750407672E+00	-1.5312945681E+02	1.6704853471E+02	4.1800000000E+00	0.000E+00	0.0
</event>
<event>
    11  -1  1.0000000E+00  1.0000000E+00  -1.0000000E+00  -1.0000000E+00
	2212	-1	0	0	0	0	0.0000000000E+00	0.0000000000E+00	6.5000000000E+03	6.5000000000E+03	9.3827000000E-01	0.000E+00	0.0
	2212	-1	0	0	0	0	0.0000000000E+00	0.0000000000E+00	-6.5000000000E+03	6.5000000000E+03	9.3827000000E-01	0.000E+00	0.0
	2212	1	0	0	0	0	0.0000000000E+00	0.0000000000E+00	5.4265654411E+03	5.4265654411E+03	9.3827000000E-01	0.000E+00	0.0
	2212	1	0	0	0	0	0.0000000000E+00	0.0000000000E+00	-6.1855587091E+03	6.1855587091E+03	9.3827000000E-01	0.000E+00	0.0
	51	2	1	2	0	0	-8.6506923444E+01	2.1853218627E+02	8.6157432014E+02	1.4654960480E+03	1.1619503403E+03	0.000E+00	0.0
	1000022	2	5	5	0	0	8.6506923444E+01	-2.1853218627E+02	4.9305517015E+02	1.0115450987E+03	8.5139903779E+02	0.000E+00	0.0
	14	1	6	6	0	0	-3.0958725791E+01	-2.7864410392E+02	5.0223947298E+02	6.6065911601E+02	3.2500000000E+02	0.000E+00	0.0
	-14	1	6	6	0	0	1.1746564924E+02	6.0111917646E+01	-9.1843028272E+00	3.5088598264E+02	3.2500000000E+02	0.000E+00	0.0
	25	2	5	5	0	0	-8.6506923444E+01	2.1853218627E+02	2.6593809786E+02	3.7633075108E+02	1.2514790478E+02	0.000E+00	0.0
	-5	1	9	9	0	501	-1.1000096856E+02	2.1343950753E+02	2.2750368911E+02	3.3080513511E+02	4.1800000000E+00	0.000E+00	0.0
	5	1	9	9	501	0	2.3494045120E+01	5.0926787492E+00	3.8434408752E+01	4.5525615966E+01	4.1800000000E+00	0.000E+00	0.0
</event>
<event>
    11  -1  1.0000000E+00  1.0000000E+00  -1.0000000E+00  -1.0000000E+00
	2212	-1	0	0	0	0	0.0000000000E+00	0.0000000000E+00	6.5000000000E+03	6.5000000000E+03	9.3827000000E-01	0.000E+00	0.0
	2212	-1	0	0	0	0	0.0000000000E+00	0.0000000000E+00	-6.5000000000E+03	6.5000000000E+03	9.3827000000E-01	0.000E+00	0.0
	2212	1	0	0	0	0	0.0000000000E+00	0.0000000000E+00	6.1941206999E+03	6.1941206999E+03	9.3827000000E-01	0.000E+00	0.0
	2212	1	0	0	0	0	0.0000000000E+00	0.0000000000E+00	-5.5799858517E+03	5.5799858517E+03	9.3827000000E-01	0.000E+00	0.0
	51	2	1	2	0	0	-9.3776777389E+01	-1.1196832174E+02	-5.3626095547E+02	1.1977311621E+03	1.0609680180E+03	0.000E+00	0.0
	1000022	2	5	5	0	0	9.3776777389E+01	1.1196832174E+02	-5.8003477899E+02	1.0305410676E+03	8.3919220575E+02	0.000E+00	0.0
	14	1	6	6	0	0	3.0192399184E+02	1.1481508527E+02	-3.8299075149E+02	5.9719972905E+02	3.2500000000E+02	0.000E+00	0.0
	-14	1	6	6	0	0	-2.0814721445E+02	-2.8467635311E+00	-1.9704402750E+02	4.3334133858E+02	3.2500000000E+02	0.000E+00	0.0
	25	2	5	5	0	0	-9.3776777389E+01	-1.1196832174E+02	-3.4100069129E+01	1.9535238077E+02	1.2517487330E+02	0.000E+00	0.0
	-5	1	9	9	0	501	-4.3647453753E+01	-1.3041925417E+02	-3.4169134194E+01	1.4177194436E+02	4.1800000000E+00	0.000E+00	0.0
	5	1	9	9	501	0	-5.0129323636E+01	1.8450932425E+01	6.9065064554E-02	5.3580436407E+01	4.1800000000E+00	0.000E+00	0.0
</event>
<event>
    11  -1  1.0000000E+00  1.0000000E+00  -1.0000000E+00  -1.0000000E+00
	2212	-1	0	0	0	0	0.0000000000E+00	0.0000000000E+00	6.5000000000E+03	6.5000000000E+03	9.3827000000E-01	0.000E+00	0.0
	2212	-1	0	0	0	0	0.0000000000E+00	0.0000000000E+00	-6.5000000000E+03	6.5000000000E+03	9.3827000000E-01	0.000E+00	0.0
	2212	1	0	0	0	0	0.0000000000E+00	0.0000000000E+00	6.2809673904E+03	6.2809673904E+03	9.3827000000E-01	0.000E+00	0.0
	2212	1	0	0	0	0	0.0000000000E+00	0.0000000000E+00	-5.1105967521E+03	5.1105967521E+03	9.3827000000E-01	0.000E+00	0.0
	51	2	1	2	0	0	-1.4176521847E+02	8.7073669451E+01	-1.3407079565E+03	1.7442693319E+03	1.1033125018E+03	0.000E+00	0.0
	1000022	2	5	5	0	0	1.4176521847E+02	-8.7073669451E+01	-7.7143637295E+02	1.1584424795E+03	8.4805406652E+02	0.000E+00	0.0
	14	1	6	6	0	0	5.1803953039E+01	-3.1449020946E+02	-3.6536510462E+02	5.8369889589E+02	3.2500000000E+02	0.000E+00	0.0
	-14	1	6	6	0	0	8.9961265428E+01	2.2741654000E+02	-4.0607126833E+02	5.7474358362E+02	3.2500000000E+02	0.000E+00	0.0
	25	2	5	5	0	0	-1.4176521847E+02	8.7073669451E+01	-3.9893426542E+02	4.4999337799E+02	1.2516505514E+02	0.000E+00	0.0
	-5	1	9	9	0	501	1.8763663185E+01	9.5578760510E+00	-9.6908800368E+01	9.9258329824E+01	4.1800000000E+00	0.000E+00	0.0
	5	1	9	9	501	0	-1.6052888165E+02	7.7515793400E+01	-3.0202546505E+02	3.5073504817E+02	4.1800000000E+00	0.000E+00	0.0
</event>
<event>
    11  -1  1.0000000E+00  1.0000000E+00  -1.0000000E+00  -1.0000000E+00
	2212	-1	0	0	0	0	0.0000000000E+00	0.0000000000E+00	6.5000000000E+03	6.5000000000E+03	9.3827000000E-01	0.000E+00	0.0
	2212	-1	0	0	0	0	0.0000000000E+00	0.0000000000E+00	-6.5000000000E+03	6.5000000000E+03	9.3827000000E-01	0.000E+00	0.0
	2212	1	0	0	0	0	0.0000000000E+00	0.0000000000E+00	5.2079446591E+03	5.2079446591E+03	9.3827000000E-01	0.000E+00	0.0
	2212	1	0	0	0	0	0.0000000000E+00	0.0000000000E+00	-6.2793339170E+03	6.2793339170E+03	9.3827000000E-01	0.000E+00	0.0
	51	2	1	2	0	0	-1.2686959820E+02	-4.9024158643E+00	1.2246560726E+03	1.6298323806E+03	1.0679190813E+03	0.000E+00	0.0
	1000022	2	5	5	0	0	1.2686959820E+02	4.9024158643E+00	7.2541318877E+02	1.1235194267E+03	8.4849966360E+02	0.000E+00	0.0
	14	1	6	6	0	0	1.1233259828E+02	2.5630395335E+01	7.1907081351E+02	7.9747311217E+02	3.2500000000E+02	0.000E+00	0.0
	-14	1	6	6	0	0	1.4536999919E+01	-2.0727979471E+01	6.3423752591E+00	3.2604631454E+02	3.2500000000E+02	0.000E+00	0.0
	25	2	5	5	0	0	-1.2686959820E+02	-4.9024158643E+00	3.4597606914E+02	3.8920199714E+02	1.2513522898E+02	0.000E+00	0.0
	-5	1	9	9	0	501	-5.3992069481E+01	2.3995886565E+01	3.5724706398E+01	6.9171332112E+01	4.1800000000E+00	0.000E+00	0.0
	5	1	9	9	501	0	-7.2877528722E+01	-2.8898302430E+01	3.1025136274E+02	3.2003066503E+02	4.1800000000E+00	0.000E+00	0.0
</event>
<event>
    11  -1  1.0000000E+00  1.0000000E+00  -1.0000000E+00  -1.0000000E+00
	2212	-1	0	0	0	0	0.0000000000E+00	0.0000000000E+00	6.5000000000E+03	6.5000000000E+03	9.3827000000E-01	0.000E+00	0.0
	2212	-1	0	0	0	0	0.0000000000E+00	0.0000000000E+00	-6.5000000000E+03	6.5000000000E+03	9.3827000000E-01	0.000E+00	0.0
	2212	1	0	0	0	0	0.0000000000E+00	0.0000000000E+00	5.8812791549E+03	5.8812791549E+03	9.3827000000E-01	0.000E+00	0.0
	2212	1	0	0	0	0	0.0000000000E+00	0.0000000000E+00	-6.0467020713E+03	6.0467020713E+03	9.3827000000E-01	0.000E+00	0.0
	51	2	1	2	0	0	-5.2082810382E+01	1.2253666013E+02	2.3603044111E+02	1.0932967262E+03	1.0591786961E+03	0.000E+00	0.0
	1000022	2	5	5	0	0	5.2082810382E+01	-1.2253666013E+02	6.5993519350E+01	8.6396145049E+02	8.5108541940E+02	0.000E+00	0.0
	14	1	6	6	0	0	9.7131652965E+01	9.9295496856E+01	-1.8110830547E+02	3.9713898325E+02	3.2500000000E+02	0.000E+00	0.0
	-14	1	6	6	0	0	-4.5048842583E+01	-2.2183215698E+02	2.4710182482E+02	4.6682246724E+02	3.2500000000E+02	0.000E+00	0.0
	25	2	5	5	0	0	-5.2082810382E+01	1.2253666013E+02	9.9429397063E+01	2.0805732337E+02	1.2519501825E+02	0.000E+00	0.0
	-5	1	9	9	0	501	1.6120762326E+01	1.0771427216E+02	3.9380416842E+01	1.1589017661E+02	4.1800000000E+00	0.000E+00	0.0
	5	1	9	9	501	0	-6.8203572708E+01	1.4822387970E+01	6.0048980221E+01	9.2167146755E+01	4.1800000000E+00	0.000E+00	0.0
</event>
<event>
    11  -1  1.0000000E+00  1.0000000E+00  -1.0000000E+00  -1.0000000E+00
	2212	-1	0	0	0	0	0.0000000000E+00	0.0000000000E+00	6.5000000000E+03	6.5000000000E+03	9.3827000000E-01	0.000E+00	0.0
	2212	-1	0	0	0	0	0.0000000000E+00	0.0000000000E+00	-6.5000000000E+03	6.5000000000E+03	9.3827000000E-01	0.000E+00	0.0
	2212	1	0	0	0	0	0.0000000000E+00	0.0000000000E+00	5.3636031302E+03	5.3636031302E+03	9.3827000000E-01	0.000E+00	0.0
	2212	1	0	0	0	0	0.0000000000E+00	0.0000000000E+00	-6.2576250585E+03	6.2576250585E+03	9.3827000000E-01	0.000E+00	0.0
	51	2	1	2	0	0	-9.5270147325E+01	8.2811595364E+01	8.6057839310E+02	1.3631822444E+03	1.0496363653E+03	0.000E+00	0.0
	1000022	2	5	5	0	0	9.5270147325E+01	-8.2811595364E+01	7.8063161170E+02	1.1679123736E+03	8.5947625788E+02	0.000E+00	0.0
	14	1	6	6	0	0	3.2182058505E+01	-1.3972950281E+02	7.5088961154E+02	8.3067456177E+02	3.2500000000E+02	0.000E+00	0.0
	-14	1	6	6	0	0	6.3088088820E+01	5.6917907451E+01	2.9742000160E+01	3.3723781181E+02	3.2500000000E+02	0.000E+00	0.0
	25	2	5	5	0	0	-9.5270147325E+01	8.2811595364E+01	1.1339031661E+02	2.1085943773E+02	1.2518057869E+02	0.000E+00	0.0
	-5	1	9	9	0	501	-6.1012364577E+01	2.0077306985E+01	-1.2934981912E+01	6.5653583635E+01	4.1800000000E+00	0.000E+00	0.0
	5	1	9	9	501	0	-3.4257782748E+01	6.2734288380E+01	1.2632529852E+02	1.4520585410E+02	4.1800000000E+00	0.000E+00	0.0
</event>
<event>
    11  -1  1.0000000E+00  1.0000000E+00  -1.0000000E+00  -1.0000000E+00
	2212	-1	0	0	0	0	0.0000000000E+00	0.0000000000E+00	6.5000000000E+03	6.5000000000E+03	9.3827000000E-01	0.000E+00	0.0
	2212	-1	0	0	0	0	0.0000000000E+00	0.0000000000E+00	-6.5000000000E+03	6.5000000000E+03	9.3827000000E-01	0.000E+00	0.0
	2212	1	0	0	0	0	0.0000000000E+00	0.0000000000E+00	5.9301788091E+03	5.9301788091E+03	9.3827000000E-01	0.000E+00	0.0
	2212	1	0	0	0	0	0.0000000000E+00	0.0000000000E+00	-6.0146447897E+03	6.0146447897E+03	9.3827000000E-01	0.000E+00	0.0
	51	2	1	2	0	0	-5.3825089837E+00	1.4050220336E+02	6.5962223116E+01	1.0631949921E+03	1.0517902528E+03	0.000E+00	0.0
	1000022	2	5	5	0	0	5.3825089837E+00	-1.4050220336E+02	8.8538067466E+01	8.6687270592E+02	8.5079930555E+02	0.000E+00	0.0
	14	1	6	6	0	0	-2.6077680336E+02	-6.3689032561E+01	1.2113201795E+02	4.3858727731E+02	3.2500000000E+02	0.000E+00	0.0
	-14	1	6	6	0	0	2.6615931235E+02	-7.6813170801E+01	-3.2593950483E+01	4.2828542862E+02	3.2500000000E+02	0.000E+00	0.0
	25	2	5	5	0	0	-5.3825089837E+00	1.4050220336E+02	-4.0720869366E+00	1.8830369529E+02	1.2518729653E+02	0.000E+00	0.0
	-5	1	9	9	0	501	-3.2998252505E+01	1.5049508035E+02	-1.8649722435E+01	1.5525121070E+02	4.1800000000E+00	0.000E+00	0.0
	5	1	9	9	501	0	2.7615743521E+01	-9.9928769829E+00	1.4577635498E+01	3.3052484587E+01	4.1800000000E+00	0.000E+00	0.0
</event>
<event>
    11  -1  1.0000000E+00  1.0000000E+00  -1.0000000E+00  -1.0000000E+00
	2212	-1	0	0	0	0	0.0000000000E+00	0.0000000000E+00	6.5000000000E+03	6.5000000000E+03	9.3827000000E-01	0.000E+00	0.0
	2212	-1	0	0	0	0	0.0000000000E+00	0.0000000000E+00	-6.5000000000E+03	6.5000000000E+03	9.3827000000E-01	0.000E+00	0.0
	2212	1	0	0	0	0	0.0000000000E+00	0.0000000000E+00	5.5603011365E+03	5.5603011365E+03	9.3827000000E-01	0.000E+00	0.0
	2212	1	0	0	0	0	0.0000000000E+00	0.0000000000E+00	-6.2025714632E+03	6.2025714632E+03	9.3827000000E-01	0.000E+00	0.0
	51	2	1	2	0	0	-4.1794190556E+01	-1.3685503215E+02	6.6943237800E+02	1.2595986643E+03	1.0573424384E+03	0.000E+00	0.0
	1000022	2	5	5	0	0	4.1794190556E+01	1.3685503215E+02	5.0504455567E+02	1.0026537479E+03	8.5426487742E+02	0.000E+00	0.0
	14	1	6	6	0	0	7.0480262735E+01	1.6905040358E+02	5.5733070142E+02	6.7066237194E+02	3.2500000000E+02	0.000E+00	0.0
	-14	1	6	6	0	0	-2.8686072179E+01	-3.2195371428E+01	-5.2286145754E+01	3.3199137597E+02	3.2500000000E+02	0.000E+00	0.0
	25	2	5	5	0	0	-4.1794190556E+01	-1.3685503215E+02	1.3722577095E+02	2.3447365238E+02	1.2518357425E+02	0.000E+00	0.0
	-5	1	9	9	0	501	5.0347790659E+00	-9.1394589586E+01	1.0967191594E+01	9.2282564427E+01	4.1800000000E+00	0.000E+00	0.0
	5	1	9	9	501	0	-4.6828969622E+01	-4.5460442564E+01	1.2625857935E+02	1.4219108796E+02	4.1800000000E+00	0.000E+00	0.0
</event>
<event>
    11  -1  1.0000000E+00  1.0000000E+00  -1.0000000E+00  -1.0000000E+00
	2212	-1	0	0	0	0	0.0000000000E+00	0.0000000000E+00	6.5000000000E+03	6.5000000000E+03	9.3827000000E-01	0.000E+00	0.0
	2212	-1	0	0	0	0	0.0000000000E+00	0.0000000000E+00	-6.5000000000E+03	6.5000000000E+03	9.3827000000E-01	0.000E+00	0.0
	2212	1	0	0	0	0	0.0000000000E+00	0.0000000000E+00	5.5534245463E+03	5.5534245463E+03	9.3827000000E-01	0.000E+00	0.0
	2212	1	0	0	0	0	0.0000000000E+00	0.0000000000E+00	-6.2053454609E+03	6.2053454609E+03	9.3827000000E-01	0.000E+00	0.0
	51	2	1	2	0	0	-6.6606058821E+01	1.2464620229E+02	5.9502533623E+02	1.2205241536E+03	1.0562438241E+03	0.000E+00	0.0
	1000022	2	5	5	0	0	6.6606058821E+01	-1.2464620229E+02	5.9425938169E+02	1.0438239117E+03	8.4643434661E+02	0.000E+00	0.0
	14	1	6	6	0	0	6.5413301379E+01	-2.4787678830E+02	5.5740338905E+02	6.9429485113E+02	3.2500000000E+02	0.000E+00	0.0
	-14	1	6	6	0	0	1.1927574421E+00	1.2323058601E+02	3.6855992640E+01	3.4952906058E+02	3.2500000000E+02	0.000E+00	0.0
	25	2	5	5	0	0	-6.6606058821E+01	1.2464620229E+02	5.7661532958E+01	1.9740608107E+02	1.2518492579E+02	0.000E+00	0.0
	-5	1	9	9	0	501	6.6446835684E+00	-2.1788103197E+01	-1.6327933674E+00	2.3216624967E+01	4.1800000000E+00	0.000E+00	0.0
	5	1	9	9	501	0	-7.3250742389E+01	1.4643430548E+02	5.9294326325E+01	1.7418945610E+02	4.1800000000E+00	0.000E+00	0.0
</event>
<event>
    11  -1  1.0000000E+00  1.0000000E+00  -1.0000000E+00  -1.0000000E+00
	2212	-1	0	0	0	0	0.0000000000E+00	0.0000000000E+00	6.5000000000E+03	6.5000000000E+03	9.3827000000E-01	0.000E+00	0.0
	2212	-1	0	0	0	0	0.0000000000E+00	0.0000000000E+00	-6.5000000000E+03	6.5000000000E+03	9.3827000000E-01	0.000E+00	0.0
	2212	1	0	0	0	0	0.0000000000E+00	0.0000000000E+00	5.2383238973E+03	5.2383238973E+03	9.3827000000E-01	0.000E+00	0.0
	2212	1	0	0	0	0	0.0000000000E+00	0.0000000000E+00	-6.2819726767E+03	6.2819726767E+03	9.3827000000E-01	0.000E+00	0.0
	51	2	1	2	0	0	-1.3541682719E+02	-4.3539628140E+01	1.0828440053E+03	1.5142998416E+03	1.0489611309E+03	0.000E+00	0.0
	1000022	2	5	5	0	0	1.3541682719E+02	4.3539628140E+01	8.2455122121E+02	1.1900383487E+03	8.4621104853E+02	0.000E+00	0.0
	14	1	6	6	0	0	-5.5556749759E+01	2.8707700226E+01	5.8440292673E+01	3.3608176431E+02	3.2500000000E+02	0.000E+00	0.0
	-14	1	6	6	0	0	1.9097357695E+02	1.4831927914E+01	7.6611092854E+02	8.5395658438E+02	3.2500000000E+02	0.000E+00	0.0
	25	2	5	5	0	0	-1.3541682719E+02	-4.3539628140E+01	2.1909755818E+02	2.8966507729E+02	1.2517468074E+02	0.000E+00	0.0
	-5	1	9	9	0	501	6.8519319649E+00	1.5794543902E+01	8.0187170602E+01	8.2121077184E+01	4.1800000000E+00	0.000E+00	0.0
	5	1	9	9	501	0	-1.4226875916E+02	-5.9334172042E+01	1.3891038758E+02	2.0754400011E+02	4.1800000000E+00	0.000E+00	0.0
</event>
<event>
    11  -1  1.0000000E+00  1.0000000E+00  -1.0000000E+00  -1.0000000E+00
	2212	-1	0	0	0	0	0.0000000000E+00	0.0000000000E+00	6.5000000000E+03	6.5000000000E+03	9.3827000000E-01	0.000E+00	0.0
	2212	-1	0	0	0	0	0.0000000000E+00	0.0000000000E+00	-6.5000000000E+03	6.5000000000E+03	9.3827000000E-01	0.000E+00	0.0
	2212	1	0	0	0	0	0.0000000000E+00	0.0000000000E+00	5.7456644186E+03	5.7456644186E+03	9.3827000000E-01	0.000E+00	0.0
	2212	1	0	0	0	0	0.0000000000E+00	0.0000000000E+00	-6.1240992555E+03	6.1240992555E+03	9.3827000000E-01	0.000E+00	0.0
	51	2	1	2	0	0	4.6724144535E+01	-5.7627095831E+01	4.2580476628E+02	1.1493628468E+03	1.0649982285E+03	0.000E+00	0.0
	1000022	2	5	5	0	0	-4.6724144535E+01	5.7627095831E+01	2.7833215259E+02	9.5361776338E+02	9.0907316736E+02	0.000E+00	0.0
	14	1	6	6	0	0	-1.3495825560E+02	-1.4414029129E+02	-1.1560260509E+02	3.9746586851E+02	3.2500000000E+02	0.000E+00	0.0
	-14	1	6	6	0	0	8.8234111063E+01	2.0176738712E+02	3.9393475768E+02	5.5615189487E+02	3.2500000000E+02	0.000E+00	0.0
	25	2	5	5	0	0	4.6724144535E+01	-5.7627095831E+01	1.0010268427E+02	1.7661856253E+02	1.2517803870E+02	0.000E+00	0.0
	-5	1	9	9	0	501	2.6163091095E+01	-1.5205842026E+01	-2.7137943661E+01	4.0861538805E+01	4.1800000000E+00	0.000E+00	0.0
	5	1	9	9	501	0	2.0561053440E+01	-4.2421253805E+01	1.2724062793E+02	1.3575702372E+02	4.1800000000E+00	0.000E+00	0.0
</event>
<event>
    11  -1  1.0000000E+00  1.0000000E+00  -1.0000000E+00  -1.0000000E+00
	2212	-1	0	0	0	0	0.0000000000E+00	0.0000000000E+00	6.5000000000E+03	6.5000000000E+03	9.3827000000E-01	0.000E+00	0.0
	2212	-1	0	0	0	0	0.0000000000E+00	0.0000000000E+00	-6.5000000000E+03	6.5000000000E+03	9.3827000000E-01	0.000E+00	0.0
	2212	1	0	0	0	0	0.0000000000E+00	0.0000000000E+00	6.1396071659E+03	6.1396071659E+03	9.3827000000E-01	0.000E+00	0.0
	2212	1	0	0	0	0	0.0000000000E+00	0.0000000000E+00	-5.7328321086E+03	5.7328321086E+03	9.3827000000E-01	0.000E+00	0.0
	51	2	1	2	0	0	-1.0690668372E+02	-5.5071551095E+01	-3.1195158167E+02	1.1034957845E+03	1.0516307538E+03	0.000E+00	0.0
	1000022	2	5	5	0	0	1.0690668372E+02	5.5071551095E+01	-4.2974750456E+02	9.5245810132E+02	8.4144613751E+02	0.000E+00	0.0
	14	1	6	6	0	0	4.2169927885E+01	-1.4626234521E+02	-4.3593786858E+02	5.6465724268E+02	3.2500000000E+02	0.000E+00	0.0
	-14	1	6	6	0	0	6.4736755836E+01	2.0133389631E+02	6.1903640246E+00	3.8780085864E+02	3.2500000000E+02	0.000E+00	0.0
	25	2	5	5	0	0	-1.0690668372E+02	-5.5071551095E+01	2.2972447243E+01	1.7510262416E+02	1.2518498669E+02	0.000E+00	0.0
	-5	1	9	9	0	501	-7.9608476122E+01	-7.2445961020E+01	6.1957155264E+01	1.2426619905E+02	4.1800000000E+00	0.000E+00	0.0
	5	1	9	9	501	0	-2.7298207599E+01	1.7374409925E+01	-3.8984708021E+01	5.0836425109E+01	4.1800000000E+00	0.000E+00	0.0
</event>
<event>
    11  -1  1.0000000E+00  1.0000000E+00  -1.0000000E+00  -1.0000000E+00
	2212	-1	0	0	0	0	0.0000000000E+00	0.0000000000E+00	6.5000000000E+03	6.5000000000E+03	9.3827000000E-01	0.000E+00	0.0
	2212	-1	0	0	0	0	0.0000000000E+00	0.0000000000E+00	-6.5000000000E+03	6.5000000000E+03	9.3827000000E-01	0.000E+00	0.0
	2212	1	0	0	0	0	0.0000000000E+00	0.0000000000E+00	5.5485873429E+03	5.5485873429E+03	9.3827000000E-01	0.000E+00	0.0
	2212	1	0	0	0	0	0.0000000000E+00	0.0000000000E+00	-6.2102169601E+03	6.2102169601E+03	9.3827000000E-01	0.000E+00	0.0
	51	2	1	2	0	0	8.8721656408E+00	-1.1383862013E+02	5.7576951101E+02	1.2030633751E+03	1.0501490408E+03	0.000E+00	0.0
	1000022	2	5	5	0	0	-8.8721656408E+00	1.1383862013E+02	6.3579817203E+02	1.0697982921E+03	8.5275501958E+02	0.000E+00	0.0
	14	1	6	6	0	0	-2.1806842135E+02	9.9314775966E+01	1.1266513426E+02	4.1920841308E+02	3.2500000000E+02	0.000E+00	0.0
	-14	1	6	6	0	0	2.0919625571E+02	1.4523844160E+01	5.2313303777E+02	6.5058987900E+02	3.2500000000E+02	0.000E+00	0.0
	25	2	5	5	0	0	8.8721656408E+00	-1.1383862013E+02	2.5831445182E+01	1.7139740493E+02	1.2518730008E+02	0.000E+00	0.0
	-5	1	9	9	0	501	3.6243151696E+01	-1.0276470495E+01	-3.1989663925E+01	4.9598214572E+01	4.1800000000E+00	0.000E+00	0.0
	5	1	9	9	501	0	-2.7370986055E+01	-1.0356214963E+02	5.7821109107E+01	1.2179919036E+02	4.1800000000E+00	0.000E+00	0.0
</event>
<event>
    11  -1  1.0000000E+00  1.0000000E+00  -1.0000000E+00  -1.0000000E+00
	2212	-1	0	0	0	0	0.0000000000E+00	0.0000000000E+00	6.5000000000E+03	6.5000000000E+03	9.3827000000E-01	0.000E+00	0.0
	2212	-1	0	0	0	0	0.0000000000E+00	0.0000000000E+00	-6.5000000000E+03	6.5000000000E+03	9.3827000000E-01	0.000E+00	0.0
	2212	1	0	0	0	0	0.0000000000E+00	0.0000000000E+00	5.2861806814E+03	5.2861806814E+03	9.3827000000E-01	0.000E+00	0.0
	2212	1	0	0	0	0	0.0000000000E+00	0.0000000000E+00	-6.2741886441E+03	6.2741886441E+03	9.3827000000E-01	0.000E+00	0.0
	51	2	1	2	0	0	1.1742195395E+02	8.3833526437E+01	1.1245739047E+03	1.5433273104E+03	1.0470801041E+03	0.000E+00	0.0
	1000022	2	5	5	0	0	-1.1742195395E+02	-8.3833526437E+01	6.6516218173E+02	1.0645048797E+03	8.1848270316E+02	0.000E+00	0.0
	14	1	6	6	0	0	4.7280121836E+01	-2.6380466371E+01	6.0760574074E+02	6.9118816187E+02	3.2500000000E+02	0.000E+00	0.0
	-14	1	6	6	0	0	-1.6470207578E+02	-5.7453060065E+01	5.7556440991E+01	3.7331671779E+02	3.2500000000E+02	0.000E+00	0.0
	25	2	5	5	0	0	1.1742195395E+02	8.3833526437E+01	3.2284578097E+02	3.7512579478E+02	1.2519579943E+02	0.000E+00	0.0
	-5	1	9	9	0	501	4.7241632649E+01	-3.0715344437E+01	8.9652369381E+01	1.0597275110E+02	4.1800000000E+00	0.000E+00	0.0
	5	1	9	9	501	0	7.0180321299E+01	1.1454887087E+02	2.3319341159E+02	2.6915304368E+02	4.1800000000E+00	0.000E+00	0.0
</event>
<event>
    11  -1  1.0000000E+00  1.0000000E+00  -1.0000000E+00  -1.0000000E+00
	2212	-1	0	0	0	0	0.0000000000E+00	0.0000000000E+00	6.5000000000E+03	6.5000000000E+03	9.3827000000E-01	0.000E+00	0.0
	2212	-1	0	0	0	0	0.0000000000E+00	0.0000000000E+00	-6.5000000000E+03	6.5000000000E+03	9.3827000000E-01	0.000E+00	0.0
	2212	1	0	0	0	0	0.0000000000E+00	0.0000000000E+00	6.0443323573E+03	6.0443323573E+03	9.3827000000E-01	0.000E+00	0.0
	2212	1	0	0	0	0	0.0000000000E+00	0.0000000000E+00	-5.8951718530E+03	5.8951718530E+03	9.3827000000E-01	0.000E+00	0.0
	51	2	1	2	0	0	1.9417934408E+01	-1.0798448856E+02	-5.9673551745E+01	1.0573557125E+03	1.0499535532E+03	0.000E+00	0.0
	1000022	2	5	5	0	0	-1.9417934408E+01	1.0798448856E+02	-2.1312423711E+02	8.8217183072E+02	8.4898026628E+02	0.000E+00	0.0
	14	1	6	6	0	0	-1.1309028434E+01	5.6587835956E+01	1.7473508142E+02	3.7348015473E+02	3.2500000000E+02	0.000E+00	0.0
	-14	1	6	6	0	0	-8.1089059739E+00	5.1396652604E+01	-3.8785931852E+02	5.0869167599E+02	3.2500000000E+02	0.000E+00	0.0
	25	2	5	5	0	0	1.9417934408E+01	-1.0798448856E+02	6.3963732768E+01	1.7832395900E+02	1.2518134564E+02	0.000E+00	0.0
	-5	1	9	9	0	501	-2.5546168791E+01	-9.6273596723E+01	8.1212867837E+01	1.2858543645E+02	4.1800000000E+00	0.000E+00	0.0
	5	1	9	9	501	0	4.4964103199E+01	-1.1710891837E+01	-1.7249135068E+01	4.9738522543E+01	4.1800000000E+00	0.000E+00	0.0
</event>
<event>
    11  -1  1.0000000E+00  1.0000000E+00  -1.0000000E+00  -1.0000000E+00
	2212	-1	0	0	0	0	0.0000000000E+00	0.0000000000E+00	6.5000000000E+03	6.5000000000E+03	9.3827000000E-01	0.000E+00	0.0
	2212	-1	0	0	0	0	0.0000000000E+00	0.0000000000E+00	-6.5000000000E+03	6.5000000000E+03	9.3827000000E-01	0.000E+00	0.0
	2212	1	0	0	0	0	0.0000000000E+00	0.0000000000E+00	6.3067578162E+03	6.3067578162E+03	9.3827000000E-01	0.000E+00	0.0
	2212	1	0	0	0	0	0.0000000000E+00	0.0000000000E+00	-5.0723297681E+03	5.0723297681E+03	9.3827000000E-01	0.000E+00	0.0
	51	2	1	2	0	0	-1.3618421623E+02	-8.3591359660E+00	-1.1828962989E+03	1.5878929823E+03	1.0504972409E+03	0.000E+00	0.0
	1000022	2	5	5	0	0	1.3618421623E+02	8.3591359660E+00	-1.0744573356E+03	1.3762105459E+03	8.4904704506E+02	0.000E+00	0.0
	14	1	6	6	0	0	-1.8992017032E+02	-2.8987453488E+01	-6.3436355214E+02	7.3820868312E+02	3.2500000000E+02	0.000E+00	0.0
	-14	1	6	6	0	0	3.2610438655E+02	3.7346589454E+01	-4.4009378347E+02	6.3800186279E+02	3.2500000000E+02	0.000E+00	0.0
	25	2	5	5	0	0	-1.3618421623E+02	-8.3591359660E+00	-1.5997071253E+02	2.4470186975E+02	1.2518929782E+02	0.000E+00	0.0
	-5	1	9	9	0	501	-5.4594865735E+01	-6.0759654791E+01	-1.0520759823E+02	1.3326081997E+02	4.1800000000E+00	0.000E+00	0.0
	5	1	9	9	501	0	-8.1589350499E+01	5.2400518825E+01	-5.4763114305E+01	1.1144104978E+02	4.1800000000E+00	0.000E+00	0.0
</event>
<event>
    11  -1  1.0000000E+00  1.0000000E+00  -1.0000000E+00  -1.0000000E+00
	2212	-1	0	0	0	0	0.0000000000E+00	0.0000000000E+00	6.5000000000E+03	6.5000000000E+03	9.3827000000E-01	0.000E+00	0.0
	2212	-1	0	0	0	0	0.0000000000E+00	0.0000000000E+00	-6.5000000000E+03	6.5000000000E+03	9.3827000000E-01	0.000E+00	0.0
	2212	1	0	0	0	0	0.0000000000E+00	0.0000000000E+00	4.9244465309E+03	4.9244465309E+03	9.3827000000E-01	0.000E+00	0.0
	2212	1	0	0	0	0	0.0000000000E+00	0.0000000000E+00	-6.3232884484E+03	6.3232884484E+03	9.3827000000E-01	0.000E+00	0.0
	51	2	1	2	0	0	9.2159511863E+01	3.2923115743E+00	1.2213146120E+03	1.6167212465E+03	1.0553075346E+03	0.000E+00	0.0
	1000022	2	5	5	0	0	-9.2159511863E+01	-3.2923115743E+00	1.3335207803E+03	1.5836037048E+03	8.4912826320E+02	0.000E+00	0.0
	14	1	6	6	0	0	-2.7424013585E+02	-2.8640700936E+01	9.8319217461E+02	1.0715968431E+03	3.2500000000E+02	0.000E+00	0.0
	-14	1	6	6	0	0	1.8208062399E+02	2.5348389362E+01	3.5032860569E+02	5.1200686171E+02	3.2500000000E+02	0.000E+00	0.0
	25	2	5	5	0	0	9.2159511863E+01	3.2923115743E+00	6.5321137221E+01	1.6866131590E+02	1.2520213086E+02	0.000E+00	0.0
	-5	1	9	9	0	501	6.8131818194E+01	-4.9401506797E+01	7.1180566829E+01	1.1030230740E+02	4.1800000000E+00	0.000E+00	0.0
	5	1	9	9	501	0	2.4027693669E+01	5.2693818371E+01	-5.8594296079E+00	5.8359008498E+01	4.1800000000E+00	0.000E+00	0.0
</event>
<event>
    11  -1  1.0000000E+00  1.0000000E+00  -1.0000000E+00  -1.0000000E+00
	2212	-1	0	0	0	0	0.0000000000E+00	0.0000000000E+00	6.5000000000E+03	6.5000000000E+03	9.3827000000E-01	0.000E+00	0.0
	2212	-1	0	0	0	0	0.0000000000E+00	0.0000000000E+00	-6.5000000000E+03	6.5000000000E+03	9.3827000000E-01	0.000E+00	0.0
	2212	1	0	0	0	0	0.0000000000E+00	0.0000000000E+00	5.9514024566E+03	5.9514024566E+03	9.3827000000E-01	0.000E+00	0.0
	2212	1	0	0	0	0	0.0000000000E+00	0.0000000000E+00	-5.9529869268E+03	5.9529869268E+03	9.3827000000E-01	0.000E+00	0.0
	51	2	1	2	0	0	1.0553358854E+02	9.9354034160E+01	1.2194328338E+02	1.1118627790E+03	1.0956094709E+03	0.000E+00	0.0
	1000022	2	5	5	0	0	-1.0553358854E+02	-9.9354034160E+01	-1.1907819221E+02	8.6925630506E+02	8.4877461414E+02	0.000E+00	0.0
	14	1	6	6	0	0	1.3225521078E+02	-4.0313265155E+01	1.4746669959E+02	3.8273754403E+02	3.2500000000E+02	0.000E+00	0.0
	-14	1	6	6	0	0	-2.3778879932E+02	-5.9040769005E+01	-2.6654489180E+02	4.8651876103E+02	3.2500000000E+02	0.000E+00	0.0
	25	2	5	5	0	0	1.0553358854E+02	9.9354034160E+01	1.2066266249E+02	2.2635431153E+02	1.2517281579E+02	0.000E+00	0.0
	-5	1	9	9	0	501	9.6618585867E+01	1.1306971618E+02	5.5114063308E+01	1.5866614077E+02	4.1800000000E+00	0.000E+00	0.0
	5	1	9	9	501	0	8.9150026754E+00	-1.3715682023E+01	6.5548599179E+01	6.7688170756E+01	4.1800000000E+00	0.000E+00	0.0
</event>
<event>
    11  -1  1.0000000E+00  1.0000000E+00  -1.0000000E+00  -1.0000000E+00
	2212	-1	0	0	0	0	0.0000000000E+00	0.0000000000E+00	6.5000000000E+03	6.5000000000E+03	9.3827000000E-01	0.000E+00	0.0
	2212	-1	0	0	0	0	0.0000000000E+00	0.0000000000E+00	-6.5000000000E+03	6.5000000000E+03	9.3827000000E-01	0.000E+00	0.0
	2212	1	0	0	0	0	0.0000000000E+00	0.0000000000E+00	6.1773613438E+03	6.1773613438E+03	9.3827000000E-01	0.000E+00	0.0
	2212	1	0	0	0	0	0.0000000000E+00	0.0000000000E+00	-5.6725794419E+03	5.6725794419E+03	9.3827000000E-01	0.000E+00	0.0
	51	2	1	2	0	0	-7.2686019627E+01	-5.3379963326E+01	-4.0701124823E+02	1.1142810517E+03	1.0333592928E+03	0.000E+00	0.0
	1000022	2	5	5	0	0	7.2686019627E+01	5.3379963326E+01	-5.1885125178E+02	9.9513827468E+02	8.4437011217E+02	0.000E+00	0.0
	14	1	6	6	0	0	6.6215996286E+01	1.5610842332E+02	-5.4101166341E+02	6.5350823862E+02	3.2500000000E+02	0.000E+00	0.0
	-14	1	6	6	0	0	6.4700233405E+00	-1.0272846000E+02	2.2160411631E+01	3.4163003606E+02	3.2500000000E+02	0.000E+00	0.0
	25	2	5	5	0	0	-7.2686019627E+01	-5.3379963326E+01	1.4069349941E+01	1.5492093965E+02	1.2517936331E+02	0.000E+00	0.0
	-5	1	9	9	0	501	-3.9058612904E+01	-7.1945468274E+01	-3.7779832562E+01	9.0258040060E+01	4.1800000000E+00	0.000E+00	0.0
	5	1	9	9	501	0	-3.3627406723E+01	1.8565504948E+01	5.1849182503E+01	6.4662899588E+01	4.1800000000E+00	0.000E+00	0.0
</event>
<event>
    11  -1  1.0000000E+00  1.0000000E+00  -1.0000000E+00  -1.0000000E+00
	2212	-1	0	0	0	0	0.0000000000E+00	0.0000000000E+00	6.5000000000E+03	6.5000000000E+03	9.3827000000E-01	0.000E+00	0.0
	2212	-1	0	0	0	0	0.0000000000E+00	0.0000000000E+00	-6.5000000000E+03	6.5000000000E+03	9.3827000000E-01	0.000E+00	0.0
	2212	1	0	0	0	0	0.0000000000E+00	0.0000000000E+00	5.7596598347E+03	5.7596598347E+03	9.3827000000E-01	0.000E+00	0.0
	2212	1	0	0	0	0	0.0000000000E+00	0.0000000000E+00	-6.1355131348E+03	6.1355131348E+03	9.3827000000E-01	0.000E+00	0.0
	51	2	1	2	0	0	5.2149054273E+01	5.5533724205E+01	4.1275525774E+02	1.1205121531E+03	1.0389307311E+03	0.000E+00	0.0
	1000022	2	5	5	0	0	-5.2149054273E+01	-5.5533724205E+01	2.8577659567E+02	9.3283385474E+02	8.8470742029E+02	0.000E+00	0.0
	14	1	6	6	0	0	1.7460724110E+02	-2.3141213248E+01	3.7367574622E+02	5.2562512089E+02	3.2500000000E+02	0.000E+00	0.0
	-14	1	6	6	0	0	-2.2675629537E+02	-3.2392510957E+01	-8.7899150545E+01	4.0720873385E+02	3.2500000000E+02	0.000E+00	0.0
	25	2	5	5	0	0	5.2149054273E+01	5.5533724205E+01	9.0076704422E+01	1.7199317568E+02	1.2515718684E+02	0.000E+00	0.0
	-5	1	9	9	0	501	-9.0120005371E+00	-9.3889333207E+00	-2.3701515480E+01	2.7360600480E+01	4.1800000000E+00	0.000E+00	0.0
	5	1	9	9	501	0	6.1161054810E+01	6.4922657526E+01	1.1377821990E+02	1.4463257520E+02	4.1800000000E+00	0.000E+00	0.0
</event>
<event>
    11  -1  1.0000000E+00  1.0000000E+00  -1.0000000E+00  -1.0000000E+00
	2212	-1	0	0	0	0	0.0000000000E+00	0.0000000000E+00	6.5000000000E+03	6.5000000000E+03	9.3827000000E-01	0.000E+00	0.0
	2212	-1	0	0	0	0	0.0000000000E+00	0.0000000000E+00	-6.5000000000E+03	6.5000000000E+03	9.3827000000E-01	0.000E+00	0.0
	2212	1	0	0	0	0	0.0000000000E+00	0.0000000000E+00	6.2097045377E+03	6.2097045377E+03	9.3827000000E-01	0.000E+00	0.0
	2212	1	0	0	0	0	0.0000000000E+00	0.0000000000E+00	-5.5468890265E+03	5.5468890265E+03	9.3827000000E-01	0.000E+00	0.0
	51	2	1	2	0	0	-7.8579703350E+01	1.1284168017E+01	-5.3150006139E+02	1.1813253490E+03	1.0520148111E+03	0.000E+00	0.0
	1000022	2	5	5	0	0	7.8579703350E+01	-1.1284168017E+01	-6.8139247146E+02	1.0939961481E+03	8.5219115792E+02	0.000E+00	0.0
	14	1	6	6	0	0	1.0327443797E+02	1.2123116095E+02	-4.2212388467E+01	3.6437547895E+02	3.2500000000E+02	0.000E+00	0.0
	-14	1	6	6	0	0	-2.4694734616E+01	-1.3251532897E+02	-6.3918008299E+02	7.2962066913E+02	3.2500000000E+02	0.000E+00	0.0
	25	2	5	5	0	0	-7.8579703350E+01	1.1284168017E+01	1.8576960231E+01	1.4941028773E+02	1.2520474593E+02	0.000E+00	0.0
	-5	1	9	9	0	501	-8.9432931865E+00	-4.3026049732E+01	3.8737792500E+01	5.8730847230E+01	4.1800000000E+00	0.000E+00	0.0
	5	1	9	9	501	0	-6.9636410163E+01	5.4310217748E+01	-2.0160832269E+01	9.0679440504E+01	4.1800000000E+00	0.000E+00	0.0
</event>
<event>
    11  -1  1.0000000E+00  1.0000000E+00  -1.0000000E+00  -1.0000000E+00
	2212	-1	0	0	0	0	0.0000000000E+00	0.0000000000E+00	6.5000000000E+03	6.5000000000E+03	9.3827000000E-01	0.000E+00	0.0
	2212	-1	0	0	0	0	0.0000000000E+00	0.0000000000E+00	-6.5000000000E+03	6.5000000000E+03	9.3827000000E-01	0.000E+00	0.0
	2212	1	0	0	0	0	0.0000000000E+00	0.0000000000E+00	6.1670422024E+03	6.1670422024E+03	9.3827000000E-01	0.000E+00	0.0
	2212	1	0	0	0	0	0.0000000000E+00	0.0000000000E+00	-5.6305244035E+03	5.6305244035E+03	9.3827000000E-01	0.000E+00	0.0
	51	2	1	2	0	0	1.0242804002E+02	1.2557213254E+02	-5.7286180052E+02	1.2298069869E+03	1.0761016303E+03	0.000E+00	0.0
	1000022	2	5	5	0	0	-1.0242804002E+02	-1.2557213254E+02	-4.0341868943E+02	9.5821411051E+02	8.5391321499E+02	0.000E+00	0.0
	14	1	6	6	0	0	-2.3029227369E+02	5.8099779378E+01	-1.2452289494E+01	4.0272841370E+02	3.2500000000E+02	0.000E+00	0.0
	-14	1	6	6	0	0	1.2786423368E+02	-1.8367191192E+02	-3.9096639993E+02	5.5548569681E+02	3.2500000000E+02	0.000E+00	0.0
	25	2	5	5	0	0	1.0242804002E+02	1.2557213254E+02	-1.3309910947E+02	2.4421928363E+02	1.2517116960E+02	0.000E+00	0.0
	-5	1	9	9	0	501	6.9128577987E+00	1.0570349377E+02	-8.1890838894E+01	1.3395744881E+02	4.1800000000E+00	0.000E+00	0.0
	5	1	9	9	501	0	9.5515182217E+01	1.9868638779E+01	-5.1208270579E+01	1.1026183481E+02	4.1800000000E+00	0.000E+00	0.0
</event>
<event>
    11  -1  1.0000000E+00  1.0000000E+00  -1.0000000E+00  -1.0000000E+00
	2212	-1	0	0	0	0	0.0000000000E+00	0.0000000000E+00	6.5000000000E+03	6.5000000000E+03	9.3827000000E-01	0.000E+00	0.0
	2212	-1	0	0	0	0	0.0000000000E+00	0.0000000000E+00	-6.5000000000E+03	6.5000000000E+03	9.3827000000E-01	0.000E+00	0.0
	2212	1	0	0	0	0	0.0000000000E+00	0.0000000000E+00	4.9676529795E+03	4.9676529795E+03	9.3827000000E-01	0.000E+00	0.0
	2212	1	0	0	0	0	0.0000000000E+00	0.0000000000E+00	-6.3205220133E+03	6.3205220133E+03	9.3827000000E-01	0.000E+00	0.0
	51	2	1	2	0	0	1.8489024634E+01	-5.4107588369E+01	1.4224863217E+03	1.7682836434E+03	1.0488518641E+03	0.000E+00	0.0
	1000022	2	5	5	0	0	-1.8489024634E+01	5.4107588369E+01	1.1011319095E+03	1.4249247819E+03	9.0257945726E+02	0.000E+00	0.0
	14	1	6	6	0	0	-4.2642743579E+01	-1.2124388657E+02	1.0911725029E+02	3.6612847188E+02	3.2500000000E+02	0.000E+00	0.0
	-14	1	6	6	0	0	2.4153718945E+01	1.7535147494E+02	9.9201465924E+02	1.0587963100E+03	3.2500000000E+02	0.000E+00	0.0
	25	2	5	5	0	0	1.8489024634E+01	-5.4107588369E+01	2.5173712429E+02	2.8690022541E+02	1.2518260441E+02	0.000E+00	0.0
	-5	1	9	9	0	501	-2.3868939766E+01	-3.4448858157E+01	2.3239842954E+02	2.3618414970E+02	4.1800000000E+00	0.000E+00	0.0
	5	1	9	9	501	0	4.2357964400E+01	-1.9658730213E+01	1.9338694744E+01	5.0716075717E+01	4.1800000000E+00	0.000E+00	0.0
</event>
<event>
    11  -1  1.0000000E+00  1.0000000E+00  -1.0000000E+00  -1.0000000E+00
	2212	-1	0	0	0	0	0.0000000000E+00	0.0000000000E+00	6.5000000000E+03	6.5000000000E+03	9.3827000000E-01	0.000E+00	0.0
	2212	-1	0	0	0	0	0.0000000000E+00	0.0000000000E+00	-6.5000000000E+03	6.5000000000E+03	9.3827000000E-01	0.000E+00	0.0
	2212	1	0	0	0	0	0.0000000000E+00	0.0000000000E+00	5.8540245904E+03	5.8540245904E+03	9.3827000000E-01	0.000E+00	0.0
	2212	1	0	0	0	0	0.0000000000E+00	0.0000000000E+00	-6.0719800009E+03	6.0719800009E+03	9.3827000000E-01	0.000E+00	0.0
	51	2	1	2	0	0	2.5387132086E+01	-3.3586974234E+01	9.0938415965E+01	1.0564108878E+03	1.0516470782E+03	0.000E+00	0.0
	1000022	2	5	5	0	0	-2.5387132086E+01	3.3586974234E+01	3.0886757464E+02	9.1367004461E+02	8.5884875294E+02	0.000E+00	0.0
	14	1	6	6	0	0	1.5970935370E+02	-1.8539928555E+02	2.4682995406E+02	4.7584661285E+02	3.2500000000E+02	0.000E+00	0.0
	-14	1	6	6	0	0	-1.8509648579E+02	2.1898625978E+02	6.2037620577E+01	4.3782343175E+02	3.2500000000E+02	0.000E+00	0.0
	25	2	5	5	0	0	2.5387132086E+01	-3.3586974234E+01	-9.0912164161E+01	1.6032536415E+02	1.2516632727E+02	0.000E+00	0.0
	-5	1	9	9	0	501	1.2731202789E+00	-4.7827467703E+01	-1.1405596141E+02	1.2375508973E+02	4.1800000000E+00	0.000E+00	0.0
	5	1	9	9	501	0	2.4114011808E+01	1.4240493469E+01	2.3143797248E+01	3.6570274414E+01	4.1800000000E+00	0.000E+00	0.0
</event>
<event>
    11  -1  1.0000000E+00  1.0000000E+00  -1.0000000E+00  -1.0000000E+00
	2212	-1	0	0	0	0	0.0000000000E+00	0.0000000000E+00	6.5000000000E+03	6.5000000000E+03	9.3827000000E-01	0.000E+00	0.0
	2212	-1	0	0	0	0	0.0000000000E+00	0.0000000000E+00	-6.5000000000E+03	6.5000000000E+03	9.3827000000E-01	0.000E+00	0.0
	2212	1	0	0	0	0	0.0000000000E+00	0.0000000000E+00	6.0252099668E+03	6.0252099668E+03	9.3827000000E-01	0.000E+00	0.0
	2212	1	0	0	0	0	0.0000000000E+00	0.0000000000E+00	-5.9126256739E+03	5.9126256739E+03	9.3827000000E-01	0.000E+00	0.0
	51	2	1	2	0	0	-9.8309938791E+01	1.0476552943E+02	-1.0190862049E+02	1.0707679162E+03	1.0561808099E+03	0.000E+00	0.0
	1000022	2	5	5	0	0	9.8309938791E+01	-1.0476552943E+02	-1.0395327846E+02	8.7141394946E+02	8.5317953971E+02	0.000E+00	0.0
	14	1	6	6	0	0	-1.5284904250E+01	1.8509335187E+02	-1.7938032170E+02	4.1508490339E+02	3.2500000000E+02	0.000E+00	0.0
	-14	1	6	6	0	0	1.1359484304E+02	-2.8985888130E+02	7.5427043244E+01	4.5632904607E+02	3.2500000000E+02	0.000E+00	0.0
	25	2	5	5	0	0	-9.8309938791E+01	1.0476552943E+02	-8.6310144321E+00	1.9075040986E+02	1.2518212424E+02	0.000E+00	0.0
	-5	1	9	9	0	501	-7.5984663614E+00	6.7713503238E+01	-4.9680519369E+01	8.4430335878E+01	4.1800000000E+00	0.000E+00	0.0
	5	1	9	9	501	0	-9.0711472430E+01	3.7052026193E+01	4.1049504937E+01	1.0632007398E+02	4.1800000000E+00	0.000E+00	0.0
</event>
<event>
    11  -1  1.0000000E+00  1.0000000E+00  -1.0000000E+00  -1.0000000E+00
	2212	-1	0	0	0	0	0.0000000000E+00	0.0000000000E+00	6.5000000000E+03	6.5000000000E+03	9.3827000000E-01	0.000E+00	0.0
	2212	-1	0	0	0	0	0.0000000000E+00	0.0000000000E+00	-6.5000000000E+03	6.5000000000E+03	9.3827000000E-01	0.000E+00	0.0
	2212	1	0	0	0	0	0.0000000000E+00	0.0000000000E+00	6.2885432846E+03	6.2885432846E+03	9.3827000000E-01	0.000E+00	0.0
	2212	1	0	0	0	0	0.0000000000E+00	0.0000000000E+00	-5.1596328027E+03	5.1596328027E+03	9.3827000000E-01	0.000E+00	0.0
	51	2	1	2	0	0	1.2870695209E+02	-9.1335984167E+01	-1.2076558120E+03	1.6177326360E+03	1.0647622175E+03	0.000E+00	0.0
	1000022	2	5	5	0	0	-1.2870695209E+02	9.1335984167E+01	-8.4468058055E+02	1.2034518085E+03	8.4255755336E+02	0.000E+00	0.0
	14	1	6	6	0	0	-2.2391733671E+02	2.6621816942E+02	-4.6890142673E+02	6.6821002342E+02	3.2500000000E+02	0.000E+00	0.0
	-14	1	6	6	0	0	9.5210384626E+01	-1.7488218525E+02	-3.7577915382E+02	5.3524178509E+02	3.2500000000E+02	0.000E+00	0.0
	25	2	5	5	0	0	1.2870695209E+02	-9.1335984167E+01	-2.8422990138E+02	3.4837210420E+02	1.2517485622E+02	0.000E+00	0.0
	-5	1	9	9	0	501	1.2681759249E+02	-9.7494578749E+01	-1.6844927885E+02	2.3233709690E+02	4.1800000000E+00	0.000E+00	0.0
	5	1	9	9	501	0	1.8893595960E+00	6.1585945821E+00	-1.1578062253E+02	1.1603500730E+02	4.1800000000E+00	0.000E+00	0.0
</event>
<event>
    11  -1  1.0000000E+00  1.0000000E+00  -1.0000000E+00  -1.0000000E+00
	2212	-1	0	0	0	0	0.0000000000E+00	0.0000000000E+00	6.5000000000E+03	6.5000000000E+03	9.3827000000E-01	0.000E+00	0.0
	2212	-1	0	0	0	0	0.0000000000E+00	0.0000000000E+00	-6.5000000000E+03	6.5000000000E+03	9.3827000000E-01	0.000E+00	0.0
	2212	1	0	0	0	0	0.0000000000E+00	0.0000000000E+00	6.2903203343E+03	6.2903203343E+03	9.3827000000E-01	0.000E+00	0.0
	2212	1	0	0	0	0	0.0000000000E+00	0.0000000000E+00	-5.0518832778E+03	5.0518832778E+03	9.3827000000E-01	0.000E+00	0.0
	51	2	1	2	0	0	8.9662706577E+01	-1.2639887908E+02	-1.4717699937E+03	1.8451789920E+03	1.1020719218E+03	0.000E+00	0.0
	1000022	2	5	5	0	0	-8.9662706577E+01	1.2639887908E+02	-7.5324907660E+02	1.1332756321E+03	8.3241420540E+02	0.000E+00	0.0
	14	1	6	6	0	0	-8.7563648208E+01	1.2431693557E+02	-7.2264721333E+02	8.0682469465E+02	3.2500000000E+02	0.000E+00	0.0
	-14	1	6	6	0	0	-2.0990583693E+00	2.0819435120E+00	-3.0601863270E+01	3.2645093746E+02	3.2500000000E+02	0.000E+00	0.0
	25	2	5	5	0	0	8.9662706577E+01	-1.2639887908E+02	-4.8518797994E+02	5.2452075583E+02	1.2529393375E+02	0.000E+00	0.0
	-5	1	9	9	0	501	7.8555607361E+01	-1.5017185757E+02	-4.4637913754E+02	4.7748756746E+02	4.1800000000E+00	0.000E+00	0.0
	5	1	9	9	501	0	1.1107099216E+01	2.3772978490E+01	-3.8808842402E+01	4.7033188366E+01	4.1800000000E+00	0.000E+00	0.0
</event>
<event>
    11  -1  1.0000000E+00  1.0000000E+00  -1.0000000E+00  -1.0000000E+00
	2212	-1	0	0	0	0	0.0000000000E+00	0.0000000000E+00	6.5000000000E+03	6.5000000000E+03	9.3827000000E-01	0.000E+00	0.0
	2212	-1	0	0	0	0	0.0000000000E+00	0.0000000000E+00	-6.5000000000E+03	6.5000000000E+03	9.3827000000E-01	0.000E+00	0.0
	2212	1	0	0	0	0	0.0000000000E+00	0.0000000000E+00	5.1100770645E+03	5.1100770645E+03	9.3827000000E-01	0.000E+00	0.0
	2212	1	0	0	0	0	0.0000000000E+00	0.0000000000E+00	-6.3208056503E+03	6.3208056503E+03	9.3827000000E-01	0.000E+00	0.0
	51	2	1	2	0	0	6.0216991053E+01	-5.0021074022E+01	1.2138051550E+03	1.5734409727E+03	9.9813092647E+02	0.000E+00	0.0
	1000022	2	5	5	0	0	-6.0216991053E+01	5.0021074022E+01	1.0323023257E+03	1.3375385102E+03	8.4689608614E+02	0.000E+00	0.0
	14	1	6	6	0	0	-1.4927065958E+02	-1.4538648864E+02	7.8865626858E+02	8.7807896619E+02	3.2500000000E+02	0.000E+00	0.0
	-14	1	6	6	0	0	8.9053668523E+01	1.9540756267E+02	2.4364605716E+02	4.5945954402E+02	3.2500000000E+02	0.000E+00	0.0
	25	2	5	5	0	0	6.0216991053E+01	-5.0021074022E+01	1.7842625999E+02	2.3157877498E+02	1.2515831937E+02	0.000E+00	0.0
	-5	1	9	9	0	501	-3.7002877936E+01	-2.6757822636E+01	4.0461321968E+01	6.1153781756E+01	4.1800000000E+00	0.000E+00	0.0
	5	1	9	9	501	0	9.7219868989E+01	-2.3263251386E+01	1.3796493802E+02	1.7042499322E+02	4.1800000000E+00	0.000E+00	0.0
</event>
<event>
    11  -1  1.0000000E+00  1.0000000E+00  -1.0000000E+00  -1.0000000E+00
	2212	-1	0	0	0	0	0.0000000000E+00	0.0000000000E+00	6.5000000000E+03	6.5000000000E+03	9.3827000000E-01	0.000E+00	0.0
	2212	-1	0	0	0	0	0.0000000000E+00	0.0000000000E+00	-6.5000000000E+03	6.5000000000E+03	9.3827000000E-01	0.000E+00	0.0
	2212	1	0	0	0	0	0.0000000000E+00	0.0000000000E+00	5.2552449344E+03	5.2552449344E+03	9.3827000000E-01	0.000E+00	0.0
	2212	1	0	0	0	0	0.0000000000E+00	0.0000000000E+00	-6.2786771892E+03	6.2786771892E+03	9.3827000000E-01	0.000E+00	0.0
	51	2	1	2	0	0	-1.4046795312E+00	-7.0881171144E+01	1.1160403446E+03	1.5338001578E+03	1.0497479505E+03	0.000E+00	0.0
	1000022	2	5	5	0	0	1.4046795312E+00	7.0881171144E+01	7.8177606554E+02	1.1848425657E+03	8.8749759174E+02	0.000E+00	0.0
	14	1	6	6	0	0	-1.5060280986E+02	-2.1204030566E+02	4.8897836921E+02	6.4215819166E+02	3.2500000000E+02	0.000E+00	0.0
	-14	1	6	6	0	0	1.5200748940E+02	2.8292147680E+02	2.9279769634E+02	5.4268437406E+02	3.2500000000E+02	0.000E+00	0.0
	25	2	5	5	0	0	-1.4046795312E+00	-7.0881171144E+01	2.4165618925E+02	2.8123531071E+02	1.2517776416E+02	0.000E+00	0.0
	-5	1	9	9	0	501	-4.6836334728E+01	-7.5576981631E+01	1.0814238932E+02	1.4006345409E+02	4.1800000000E+00	0.000E+00	0.0
	5	1	9	9	501	0	4.5431655197E+01	4.6958104870E+00	1.3351379993E+02	1.4117185662E+02	4.1800000000E+00	0.000E+00	0.0
</event>
<event>
    11  -1  1.0000000E+00  1.0000000E+00  -1.0000000E+00  -1.0000000E+00
	2212	-1	0	0	0	0	0.0000000000E+00	0.0000000000E+00	6.5000000000E+03	6.5000000000E+03	9.3827000000E-01	0.000E+00	0.0
	2212	-1	0	0	0	0	0.0000000000E+00	0.0000000000E+00	-6.5000000000E+03	6.5000000000E+03	9.3827000000E-01	0.000E+00	0.0
	2212	1	0	0	0	0	0.0000000000E+00	0.0000000000E+00	6.2742934890E+03	6.2742934890E+03	9.3827000000E-01	0.000E+00	0.0
	2212	1	0	0	0	0	0.0000000000E+00	0.0000000000E+00	-5.2659159370E+03	5.2659159370E+03	9.3827000000E-01	0.000E+00	0.0
	51	2	1	2	0	0	-1.0024558612E+02	1.1351674548E+02	-9.9384402320E+02	1.4576777435E+03	1.0555393088E+03	0.000E+00	0.0
	1000022	2	5	5	0	0	1.0024558612E+02	-1.1351674548E+02	-8.4488563599E+02	1.2041826075E+03	8.4456425756E+02	0.000E+00	0.0
	14	1	6	6	0	0	1.2403981757E+02	-1.4858552844E+02	-7.8447116343E+02	8.7090960602E+02	3.2500000000E+02	0.000E+00	0.0
	-14	1	6	6	0	0	-2.3794231455E+01	3.5068782964E+01	-6.0414472563E+01	3.3327300143E+02	3.2500000000E+02	0.000E+00	0.0
	25	2	5	5	0	0	-1.0024558612E+02	1.1351674548E+02	-1.6349191604E+02	2.5560796649E+02	1.2518225466E+02	0.000E+00	0.0
	-5	1	9	9	0	501	-9.0114548978E+01	1.3615867963E+02	-1.1123562394E+02	1.9761238425E+02	4.1800000000E+00	0.000E+00	0.0
	5	1	9	9	501	0	-1.0131037137E+01	-2.2641934149E+01	-5.2256292095E+01	5.7995582237E+01	4.1800000000E+00	0.000E+00	0.0
</event>
<event>
    11  -1  1.0000000E+00  1.0000000E+00  -1.0000000E+00  -1.0000000E+00
	2212	-1	0	0	0	0	0.0000000000E+00	0.0000000000E+00	6.5000000000E+03	6.5000000000E+03	9.3827000000E-01	0.000E+00	0.0
	2212	-1	0	0	0	0	0.0000000000E+00	0.0000000000E+00	-6.5000000000E+03	6.5000000000E+03	9.3827000000E-01	0.000E+00	0.0
	2212	1	0	0	0	0	0.0000000000E+00	0.0000000000E+00	5.6913225490E+03	5.6913225490E+03	9.3827000000E-01	0.000E+00	0.0
	2212	1	0	0	0	0	0.0000000000E+00	0.0000000000E+00	-6.1588512498E+03	6.1588512498E+03	9.3827000000E-01	0.000E+00	0.0
	51	2	1	2	0	0	-5.0312376693E+01	7.4046283269E+01	5.9843879423E+02	1.2122955022E+03	1.0504842725E+03	0.000E+00	0.0
	1000022	2	5	5	0	0	5.0312376693E+01	-7.4046283269E+01	2.5548589206E+02	8.8782150967E+02	8.4554113128E+02	0.000E+00	0.0
	14	1	6	6	0	0	2.8293684746E+02	2.0216307273E+01	1.9249784666E+02	4.7237948696E+02	3.2500000000E+02	0.000E+00	0.0
	-14	1	6	6	0	0	-2.3262447076E+02	-9.4262590542E+01	6.2988045398E+01	4.1544202271E+02	3.2500000000E+02	0.000E+00	0.0
	25	2	5	5	0	0	-5.0312376693E+01	7.4046283269E+01	2.1204280877E+02	2.6200469152E+02	1.2518034314E+02	0.000E+00	0.0
	-5	1	9	9	0	501	1.5315012414E+01	7.8676124918E+01	7.4632402015E+01	1.0959904228E+02	4.1800000000E+00	0.000E+00	0.0
	5	1	9	9	501	0	-6.5627389108E+01	-4.6298416491E+00	1.3741040676E+02	1.5240564924E+02	4.1800000000E+00	0.000E+00	0.0
</event>
<event>
    11  -1  1.0000000E+00  1.0000000E+00  -1.0000000E+00  -1.0000000E+00
	2212	-1	0	0	0	0	0.0000000000E+00	0.0000000000E+00	6.5000000000E+03	6.5000000000E+03	9.3827000000E-01	0.000E+00	0.0
	2212	-1	0	0	0	0	0.0000000000E+00	0.0000000000E+00	-6.5000000000E+03	6.5000000000E+03	9.3827000000E-01	0.000E+00	0.0
	2212	1	0	0	0	0	0.0000000000E+00	0.0000000000E+00	5.9606769482E+03	5.9606769482E+03	9.3827000000E-01	0.000E+00	0.0
	2212	1	0	0	0	0	0.0000000000E+00	0.0000000000E+00	-5.9902767340E+03	5.9902767340E+03	9.3827000000E-01	0.000E+00	0.0
	51	2	1	2	0	0	1.2433456755E+02	-4.9560668422E+01	4.1567366590E+01	1.0579533166E+03	1.0486286424E+03	0.000E+00	0.0
	1000022	2	5	5	0	0	-1.2433456755E+02	4.9560668422E+01	1.2690518772E+01	8.6500096515E+02	8.5448831233E+02	0.000E+00	0.0
	14	1	6	6	0	0	-2.2137597356E+02	2.3327030948E+02	1.0335761798E+02	4.6875383321E+02	3.2500000000E+02	0.000E+00	0.0
	-14	1	6	6	0	0	9.7041406008E+01	-1.8370964105E+02	-9.0667099206E+01	3.9624713194E+02	3.2500000000E+02	0.000E+00	0.0
	25	2	5	5	0	0	1.2433456755E+02	-4.9560668422E+01	1.6909267033E+01	1.8404535269E+02	1.2518555825E+02	0.000E+00	0.0
	-5	1	9	9	0	501	1.0583134037E+02	2.2757902081E+01	1.3903852098E+01	1.0921988928E+02	4.1800000000E+00	0.000E+00	0.0
	5	1	9	9	501	0	1.8503227180E+01	-7.2318570503E+01	3.0054149343E+00	7.4825463410E+01	4.1800000000E+00	0.000E+00	0.0
</event>
<event>
    11  -1  1.0000000E+00  1.0000000E+00  -1.0000000E+00  -1.0000000E+00
	2212	-1	0	0	0	0	0.0000000000E+00	0.0000000000E+00	6.5000000000E+03	6.5000000000E+03	9.3827000000E-01	0.000E+00	0.0
	2212	-1	0	0	0	0	0.0000000000E+00	0.0000000000E+00	-6.5000000000E+03	6.5000000000E+03	9.3827000000E-01	0.000E+00	0.0
	2212	1	0	0	0	0	0.0000000000E+00	0.0000000000E+00	5.0666671866E+03	5.0666671866E+03	9.3827000000E-01	0.000E+00	0.0
	2212	1	0	0	0	0	0.0000000000E+00	0.0000000000E+00	-6.3075185889E+03	6.3075185889E+03	9.3827000000E-01	0.000E+00	0.0
	51	2	1	2	0	0	-1.1585913063E+01	-4.6396180119E+01	1.4351472137E+03	1.7791835359E+03	1.0505044932E+03	0.000E+00	0.0
	1000022	2	5	5	0	0	1.1585913063E+01	4.6396180119E+01	8.4372403334E+02	1.2066867163E+03	8.6135692255E+02	0.000E+00	0.0
	14	1	6	6	0	0	1.4890482450E+02	2.5451780643E+02	5.4493519649E+02	6.9966515486E+02	3.2500000000E+02	0.000E+00	0.0
	-14	1	6	6	0	0	-1.3731891144E+02	-2.0812162631E+02	2.9878883685E+02	5.0702156148E+02	3.2500000000E+02	0.000E+00	0.0
	25	2	5	5	0	0	-1.1585913063E+01	-4.6396180119E+01	3.9712736894E+02	4.1912750824E+02	1.2518339383E+02	0.000E+00	0.0
	-5	1	9	9	0	501	2.0233302992E+01	2.6548712475E+01	2.4586872901E+02	2.4815947491E+02	4.1800000000E+00	0.000E+00	0.0
	5	1	9	9	501	0	-3.1819216055E+01	-7.2944892594E+01	1.5125863993E+02	1.7096803333E+02	4.1800000000E+00	0.000E+00	0.0
</event>
<event>
    11  -1  1.0000000E+00  1.0000000E+00  -1.0000000E+00  -1.0000000E+00
	2212	-1	0	0	0	0	0.0000000000E+00	0.0000000000E+00	6.5000000000E+03	6.5000000000E+03	9.3827000000E-01	0.000E+00	0.0
	2212	-1	0	0	0	0	0.0000000000E+00	0.0000000000E+00	-6.5000000000E+03	6.5000000000E+03	9.3827000000E-01	0.000E+00	0.0
	2212	1	0	0	0	0	0.0000000000E+00	0.0000000000E+00	5.6807877117E+03	5.6807877117E+03	9.3827000000E-01	0.000E+00	0.0
	2212	1	0	0	0	0	0.0000000000E+00	0.0000000000E+00	-6.1602086121E+03	6.1602086121E+03	9.3827000000E-01	0.000E+00	0.0
	51	2	1	2	0	0	-2.6927344575E+01	1.8443223265E+01	3.3452049880E+02	1.1074359215E+03	1.0551990911E+03	0.000E+00	0.0
	1000022	2	5	5	0	0	2.6927344575E+01	-1.8443223265E+01	5.4330938460E+02	1.0147245042E+03	8.5639681082E+02	0.000E+00	0.0
	14	1	6	6	0	0	-1.5927991967E+02	-3.1406177492E+01	5.2635203698E+02	6.3955289666E+02	3.2500000000E+02	0.000E+00	0.0
	-14	1	6	6	0	0	1.8620726425E+02	1.2962954227E+01	1.6957347623E+01	3.7517160751E+02	3.2500000000E+02	0.000E+00	0.0
	25	2	5	5	0	0	-2.6927344575E+01	1.8443223265E+01	-6.3888484255E+01	1.4427917207E+02	1.2517790022E+02	0.000E+00	0.0
	-5	1	9	9	0	501	4.8898245846E+01	1.0234574832E+01	-4.0343785827E+01	6.4349657526E+01	4.1800000000E+00	0.000E+00	0.0
	5	1	9	9	501	0	-7.5825590422E+01	8.2086484328E+00	-2.3544698428E+01	7.9929514548E+01	4.1800000000E+00	0.000E+00	0.0
</event>
<event>
    11  -1  1.0000000E+00  1.0000000E+00  -1.0000000E+00  -1.0000000E+00
	2212	-1	0	0	0	0	0.0000000000E+00	0.0000000000E+00	6.5000000000E+03	6.5000000000E+03	9.3827000000E-01	0.000E+00	0.0
	2212	-1	0	0	0	0	0.0000000000E+00	0.0000000000E+00	-6.5000000000E+03	6.5000000000E+03	9.3827000000E-01	0.000E+00	0.0
	2212	1	0	0	0	0	0.0000000000E+00	0.0000000000E+00	5.5813218085E+03	5.5813218085E+03	9.3827000000E-01	0.000E+00	0.0
	2212	1	0	0	0	0	0.0000000000E+00	0.0000000000E+00	-6.1733842222E+03	6.1733842222E+03	9.3827000000E-01	0.000E+00	0.0
	51	2	1	2	0	0	-1.1868770461E+02	-6.0135715332E+01	8.1563276273E+02	1.3722897097E+03	1.0955451466E+03	0.000E+00	0.0
	1000022	2	5	5	0	0	1.1868770461E+02	6.0135715332E+01	2.4050333188E+02	8.4909756122E+02	8.0338144137E+02	0.000E+00	0.0
	14	1	6	6	0	0	-1.2452838736E+02	1.3797889319E+02	2.2220096931E+02	4.3536624236E+02	3.2500000000E+02	0.000E+00	0.0
	-14	1	6	6	0	0	2.4321609197E+02	-7.7843177858E+01	1.8302362569E+01	4.1373131886E+02	3.2500000000E+02	0.000E+00	0.0
	25	2	5	5	0	0	-1.1868770461E+02	-6.0135715332E+01	3.5155908181E+02	3.9619640808E+02	1.2519876312E+02	0.000E+00	0.0
	-5	1	9	9	0	501	1.7035413714E+01	-1.8261396947E+01	1.3380642265E+02	1.3618118476E+02	4.1800000000E+00	0.000E+00	0.0
	5	1	9	9	501	0	-1.3572311833E+02	-4.1874318386E+01	2.1775265916E+02	2.6001522333E+02	4.1800000000E+00	0.000E+00	0.0
</event>
<event>
    11  -1  1.0000000E+00  1.0000000E+00  -1.0000000E+00  -1.0000000E+00
	2212	-1	0	0	0	0	0.0000000000E+00	0.0000000000E+00	6.5000000000E+03	6.5000000000E+03	9.3827000000E-01	0.000E+00	0.0
	2212	-1	0	0	0	0	0.0000000000E+00	0.0000000000E+00	-6.5000000000E+03	6.5000000000E+03	9.3827000000E-01	0.000E+00	0.0
	2212	1	0	0	0	0	0.0000000000E+00	0.0000000000E+00	5.1916549760E+03	5.1916549760E+03	9.3827000000E-01	0.000E+00	0.0
	2212	1	0	0	0	0	0.0000000000E+00	0.0000000000E+00	-6.2892626482E+03	6.2892626482E+03	9.3827000000E-01	0.000E+00	0.0
	51	2	1	2	0	0	-1.3950131667E+02	5.9291408724E+01	1.0665757920E+03	1.5044695647E+03	1.0501755389E+03	0.000E+00	0.0
	1000022	2	5	5	0	0	1.3950131667E+02	-5.9291408724E+01	9.3266251730E+02	1.2624641564E+03	8.3724565478E+02	0.000E+00	0.0
	14	1	6	6	0	0	2.9029010462E+02	1.1664367357E+02	4.7105247546E+02	6.5221892495E+02	3.2500000000E+02	0.000E+00	0.0
	-14	1	6	6	0	0	-1.5078878795E+02	-1.7593508229E+02	4.6161004184E+02	6.1024523142E+02	3.2500000000E+02	0.000E+00	0.0
	25	2	5	5	0	0	-1.3950131667E+02	5.9291408724E+01	1.6494515492E+02	2.5661821948E+02	1.2517954281E+02	0.000E+00	0.0
	-5	1	9	9	0	501	-1.4596342978E+02	3.6404216880E+01	8.4426617488E+01	1.7255699343E+02	4.1800000000E+00	0.000E+00	0.0
	5	1	9	9	501	0	6.4621131088E+00	2.2887191844E+01	8.0518537429E+01	8.4061226056E+01	4.1800000000E+00	0.000E+00	0.0
</event>
<event>
    11  -1  1.0000000E+00  1.0000000E+00  -1.0000000E+00  -1.0000000E+00
	2212	-1	0	0	0	0	0.0000000000E+00	0.0000000000E+00	6.5000000000E+03	6.5000000000E+03	9.3827000000E-01	0.000E+00	0.0
	2212	-1	0	0	0	0	0.0000000000E+00	0.0000000000E+00	-6.5000000000E+03	6.5000000000E+03	9.3827000000E-01	0.000E+00	0.0
	2212	1	0	0	0	0	0.0000000000E+00	0.0000000000E+00	5.9741707574E+03	5.9741707574E+03	9.3827000000E-01	0.000E+00	0.0
	2212	1	0	0	0	0	0.0000000000E+00	0.0000000000E+00	-5.9851949941E+03	5.9851949941E+03	9.3827000000E-01	0.000E+00	0.0
	51	2	1	2	0	0	-3.3136632980E+01	-5.5469170301E+01	-9.9824642016E+01	1.0473480461E+03	1.0405758527E+03	0.000E+00	0.0
	1000022	2	5	5	0	0	3.3136632980E+01	5.5469170301E+01	1.2005713283E+02	8.6250054313E+02	8.5165638990E+02	0.000E+00	0.0
	14	1	6	6	0	0	1.2138583968E+02	-2.0699688380E+02	1.5813958501E+02	4.3383794247E+02	3.2500000000E+02	0.000E+00	0.0
	-14	1	6	6	0	0	-8.8249206703E+01	2.6246605410E+02	-3.8082452183E+01	4.2866260066E+02	3.2500000000E+02	0.000E+00	0.0
	25	2	5	5	0	0	-3.3136632980E+01	-5.5469170301E+01	-1.0903289615E+02	1.7813370532E+02	1.2517419554E+02	0.000E+00	0.0
	-5	1	9	9	0	501	3.6584881847E+01	-7.4309564927E+00	-8.0253218131E+01	8.8609954941E+01	4.1800000000E+00	0.000E+00	0.0
	5	1	9	9	501	0	-6.9721514827E+01	-4.8038213808E+01	-2.8779678016E+01	8.9523750381E+01	4.1800000000E+00	0.000E+00	0.0
</event>
<event>
    11  -1  1.0000000E+00  1.0000000E+00  -1.0000000E+00  -1.0000000E+00
	2212	-1	0	0	0	0	0.0000000000E+00	0.0000000000E+00	6.5000000000E+03	6.5000000000E+03	9.3827000000E-01	0.000E+00	0.0
	2212	-1	0	0	0	0	0.0000000000E+00	0.0000000000E+00	-6.5000000000E+03	6.5000000000E+03	9.3827000000E-01	0.000E+00	0.0
	2212	1	0	0	0	0	0.0000000000E+00	0.0000000000E+00	5.7511213111E+03	5.7511213111E+03	9.3827000000E-01	0.000E+00	0.0
	2212	1	0	0	0	0	0.0000000000E+00	0.0000000000E+00	-6.1305632281E+03	6.1305632281E+03	9.3827000000E-01	0.000E+00	0.0
	51	2	1	2	0	0	8.0395679556E+01	1.1750970577E+02	3.5303144436E+02	1.1187298595E+03	1.0519759035E+03	0.000E+00	0.0
	1000022	2	5	5	0	0	-8.0395679556E+01	-1.1750970577E+02	3.4031093244E+02	9.2473309227E+02	8.4796684190E+02	0.000E+00	0.0
	14	1	6	6	0	0	-1.3111009003E+02	-1.0019351714E+02	-9.7069062667E+01	3.7719490918E+02	3.2500000000E+02	0.000E+00	0.0
	-14	1	6	6	0	0	5.0714410479E+01	-1.7316188626E+01	4.3737999511E+02	5.4753818309E+02	3.2500000000E+02	0.000E+00	0.0
	25	2	5	5	0	0	8.0395679556E+01	1.1750970577E+02	3.9130984501E+01	1.9358236856E+02	1.2518347826E+02	0.000E+00	0.0
	-5	1	9	9	0	501	-4.3732967034E+00	6.8931808703E+01	-2.8338746745E+01	7.4774841639E+01	4.1800000000E+00	0.000E+00	0.0
	5	1	9	9	501	0	8.4768976259E+01	4.8577897064E+01	6.7469731246E+01	1.1880752692E+02	4.1800000000E+00	0.000E+00	0.0
</event>
<event>
    11  -1  1.0000000E+00  1.0000000E+00  -1.0000000E+00  -1.0000000E+00
	2212	-1	0	0	0	0	0.0000000000E+00	0.0000000000E+00	6.5000000000E+03	6.5000000000E+03	9.3827000000E-01	0.000E+00	0.0
	2212	-1	0	0	0	0	0.0000000000E+00	0.0000000000E+00	-6.5000000000E+03	6.5000000000E+03	9.3827000000E-01	0.000E+00	0.0
	2212	1	0	0	0	0	0.0000000000E+00	0.0000000000E+00	5.2651584332E+03	5.2651584332E+03	9.3827000000E-01	0.000E+00	0.0
	2212	1	0	0	0	0	0.0000000000E+00	0.0000000000E+00	-6.2744325583E+03	6.2744325583E+03	9.3827000000E-01	0.000E+00	0.0
	51	2	1	2	0	0	-3.8307814001E+01	-1.3050614904E+02	9.7234936121E+02	1.4415695739E+03	1.0555378784E+03	0.000E+00	0.0
	1000022	2	5	5	0	0	3.8307814001E+01	1.3050614904E+02	8.7548151420E+02	1.2322222034E+03	8.5639029259E+02	0.000E+00	0.0
	14	1	6	6	0	0	1.3201539191E+02	-8.3661191626E+01	7.1521993561E+02	8.0099426651E+02	3.2500000000E+02	0.000E+00	0.0
	-14	1	6	6	0	0	-9.3707577908E+01	2.1416734067E+02	1.6026157859E+02	4.3122793687E+02	3.2500000000E+02	0.000E+00	0.0
	25	2	5	5	0	0	-3.8307814001E+01	-1.3050614904E+02	1.3379261090E+02	2.2818680518E+02	1.2517752105E+02	0.000E+00	0.0
	-5	1	9	9	0	501	-5.5558214707E+01	-4.8628162082E+01	4.4558640678E+00	7.4086034402E+01	4.1800000000E+00	0.000E+00	0.0
	5	1	9	9	501	0	1.7250400706E+01	-8.1877986958E+01	1.2933674683E+02	1.5410077077E+02	4.1800000000E+00	0.000E+00	0.0
</event>
<event>
    11  -1  1.0000000E+00  1.0000000E+00  -1.0000000E+00  -1.0000000E+00
	2212	-1	0	0	0	0	0.0000000000E+00	0.0000000000E+00	6.5000000000E+03	6.5000000000E+03	9.3827000000E-01	0.000E+00	0.0
	2212	-1	0	0	0	0	0.0000000000E+00	0.0000000000E+00	-6.5000000000E+03	6.5000000000E+03	9.3827000000E-01	0.000E+00	0.0
	2212	1	0	0	0	0	0.0000000000E+00	0.0000000000E+00	5.6775054962E+03	5.6775054962E+03	9.3827000000E-01	0.000E+00	0.0
	2212	1	0	0	0	0	0.0000000000E+00	0.0000000000E+00	-6.1619263917E+03	6.1619263917E+03	9.3827000000E-01	0.000E+00	0.0
	51	2	1	2	0	0	9.8338339752E+01	-8.4760456384E+01	4.1518309028E+02	1.1408271128E+03	1.0546348841E+03	0.000E+00	0.0
	1000022	2	5	5	0	0	-9.8338339752E+01	8.4760456384E+01	4.6988735318E+02	9.7961100834E+02	8.4969926383E+02	0.000E+00	0.0
	14	1	6	6	0	0	1.8351873063E+02	1.7730805368E+01	3.8407772673E+02	5.3584905162E+02	3.2500000000E+02	0.000E+00	0.0
	-14	1	6	6	0	0	-2.8185707039E+02	6.7029651017E+01	8.5809626451E+01	4.4376195672E+02	3.2500000000E+02	0.000E+00	0.0
	25	2	5	5	0	0	9.8338339752E+01	-8.4760456384E+01	1.4533542399E+01	1.8095710377E+02	1.2521775241E+02	0.000E+00	0.0
	-5	1	9	9	0	501	1.0688252934E+02	-8.6496851280E+01	-2.5385458058E+01	1.3988378834E+02	4.1800000000E+00	0.000E+00	0.0
	5	1	9	9	501	0	-8.5441895893E+00	1.7363948957E+00	3.9919000457E+01	4.1073315431E+01	4.1800000000E+00	0.000E+00	0.0
</event>
<event>
    11  -1  1.0000000E+00  1.0000000E+00  -1.0000000E+00  -1.0000000E+00
	2212	-1	0	0	0	0	0.0000000000E+00	0.0000000000E+00	6.5000000000E+03	6.5000000000E+03	9.3827000000E-01	0.000E+00	0.0
	2212	-1	0	0	0	0	0.0000000000E+00	0.0000000000E+00	-6.5000000000E+03	6.5000000000E+03	9.3827000000E-01	0.000E+00	0.0
	2212	1	0	0	0	0	0.0000000000E+00	0.0000000000E+00	5.0916972658E+03	5.0916972658E+03	9.3827000000E-01	0.000E+00	0.0
	2212	1	0	0	0	0	0.0000000000E+00	0.0000000000E+00	-6.3211124441E+03	6.3211124441E+03	9.3827000000E-01	0.000E+00	0.0
	51	2	1	2	0	0	-1.3488510502E+01	-1.0655477311E+00	1.3634927990E+03	1.6932238553E+03	1.0038482635E+03	0.000E+00	0.0
	1000022	2	5	5	0	0	1.3488510502E+01	1.0655477311E+00	9.1545415802E+02	1.2489250180E+03	8.4945530179E+02	0.000E+00	0.0
	14	1	6	6	0	0	2.1293165535E+02	1.2734646621E+02	2.7439977340E+02	4.9241978834E+02	3.2500000000E+02	0.000E+00	0.0
	-14	1	6	6	0	0	-1.9944314485E+02	-1.2628091847E+02	6.4105438461E+02	7.5650522961E+02	3.2500000000E+02	0.000E+00	0.0
	25	2	5	5	0	0	-1.3488510502E+01	-1.0655477311E+00	3.1396102028E+02	3.3826527210E+02	1.2517506439E+02	0.000E+00	0.0
	-5	1	9	9	0	501	-4.7523939856E+01	-1.9353297101E+01	5.1068578584E+01	7.2515840247E+01	4.1800000000E+00	0.000E+00	0.0
	5	1	9	9	501	0	3.4035429355E+01	1.8287749370E+01	2.6289244170E+02	2.6574943185E+02	4.1800000000E+00	0.000E+00	0.0
</event>
<event>
    11  -1  1.0000000E+00  1.0000000E+00  -1.0000000E+00  -1.0000000E+00
	2212	-1	0	0	0	0	0.0000000000E+00	0.0000000000E+00	6.5000000000E+03	6.5000000000E+03	9.3827000000E-01	0.000E+00	0.0
	2212	-1	0	0	0	0	0.0000000000E+00	0.0000000000E+00	-6.5000000000E+03	6.5000000000E+03	9.3827000000E-01	0.000E+00	0.0
	2212	1	0	0	0	0	0.0000000000E+00	0.0000000000E+00	6.3353486961E+03	6.3353486961E+03	9.3827000000E-01	0.000E+00	0.0
	2212	1	0	0	0	0	0.0000000000E+00	0.0000000000E+00	-4.8733311004E+03	4.8733311004E+03	9.3827000000E-01	0.000E+00	0.0
	51	2	1	2	0	0	7.0726414554E+01	-8.9029869890E+01	-1.5810137050E+03	1.8931100073E+03	1.0350519896E+03	0.000E+00	0.0
	1000022	2	5	5	0	0	-7.0726414554E+01	8.9029869890E+01	-1.0999444481E+03	1.3917030608E+03	8.4500359585E+02	0.000E+00	0.0
	14	1	6	6	0	0	-1.5741196329E+02	1.5443381496E+01	-9.4947127274E+02	1.0159417906E+03	3.2500000000E+02	0.000E+00	0.0
	-14	1	6	6	0	0	8.6685548736E+01	7.3586488394E+01	-1.5047317540E+02	3.7576127016E+02	3.2500000000E+02	0.000E+00	0.0
	25	2	5	5	0	0	7.0726414554E+01	-8.9029869890E+01	-3.6207314762E+02	3.9961714271E+02	1.2517329217E+02	0.000E+00	0.0
	-5	1	9	9	0	501	-1.5156537301E+01	-2.8915034024E+01	-2.2296434752E+02	2.2538050599E+02	4.1800000000E+00	0.000E+00	0.0
	5	1	9	9	501	0	8.5882951855E+01	-6.0114835866E+01	-1.3910880010E+02	1.7423663672E+02	4.1800000000E+00	0.000E+00	0.0
</event>
<event>
    11  -1  1.0000000E+00  1.0000000E+00  -1.0000000E+00  -1.0000000E+00
	2212	-1	0	0	0	0	0.0000000000E+00	0.0000000000E+00	6.5000000000E+03	6.5000000000E+03	9.3827000000E-01	0.000E+00	0.0
	2212	-1	0	0	0	0	0.0000000000E+00	0.0000000000E+00	-6.5000000000E+03	6.5000000000E+03	9.3827000000E-01	0.000E+00	0.0
	2212	1	0	0	0	0	0.0000000000E+00	0.0000000000E+00	6.3249259698E+03	6.3249259698E+03	9.3827000000E-01	0.000E+00	0.0
	2212	1	0	0	0	0	0.0000000000E+00	0.0000000000E+00	-4.9396068561E+03	4.9396068561E+03	9.3827000000E-01	0.000E+00	0.0
	51	2	1	2	0	0	5.2196653637E+01	-7.7698719359E+01	-1.2346981086E+03	1.6204870461E+03	1.0453407414E+03	0.000E+00	0.0
	1000022	2	5	5	0	0	-5.2196653637E+01	7.7698719359E+01	-1.3032407628E+03	1.5589317301E+03	8.5033527016E+02	0.000E+00	0.0
	14	1	6	6	0	0	-1.7412921004E+01	-2.3432433312E+02	-6.7305156745E+02	7.8347591881E+02	3.2500000000E+02	0.000E+00	0.0
	-14	1	6	6	0	0	-3.4783732633E+01	3.1202305248E+02	-6.3018919534E+02	7.7545581129E+02	3.2500000000E+02	0.000E+00	0.0
	25	2	5	5	0	0	5.2196653637E+01	-7.7698719359E+01	-8.2078350940E+01	1.7653544403E+02	1.2516519350E+02	0.000E+00	0.0
	-5	1	9	9	0	501	5.6904065064E+01	-2.5010863394E+01	1.6620146567E+01	6.4477264059E+01	4.1800000000E+00	0.000E+00	0.0
	5	1	9	9	501	0	-4.7074114269E+00	-5.2687855964E+01	-9.8698497507E+01	1.1205817997E+02	4.1800000000E+00	0.000E+00	0.0
</event>
<event>
    11  -1  1.0000000E+00  1.0000000E+00  -1.0000000E+00  -1.0000000E+00
	2212	-1	0	0	0	0	0.0000000000E+00	0.0000000000E+00	6.5000000000E+03	6.5000000000E+03	9.3827000000E-01	0.000E+00	0.0
	2212	-1	0	0	0	0	0.0000000000E+00	0.0000000000E+00	-6.5000000000E+03	6.5000000000E+03	9.3827000000E-01	0.000E+00	0.0
	2212	1	0	0	0	0	0.0000000000E+00	0.0000000000E+00	5.8330921917E+03	5.8330921917E+03	9.3827000000E-01	0.000E+00	0.0
	2212	1	0	0	0	0	0.0000000000E+00	0.0000000000E+00	-6.0842896490E+03	6.0842896490E+03	9.3827000000E-01	0.000E+00	0.0
	51	2	1	2	0	0	4.8380447232E+01	1.1490288979E+02	1.7458411780E+02	1.0747022248E+03	1.0530726073E+03	0.000E+00	0.0
	1000022	2	5	5	0	0	-4.8380447232E+01	-1.1490288979E+02	2.8426750940E+02	9.0286995808E+02	8.4783418340E+02	0.000E+00	0.0
	14	1	6	6	0	0	-1.8510397599E+02	-8.8604280739E+01	-8.2831075865E+01	3.9319230362E+02	3.2500000000E+02	0.000E+00	0.0
	-14	1	6	6	0	0	1.3672352876E+02	-2.6298609054E+01	3.6709858527E+02	5.0967765446E+02	3.2500000000E+02	0.000E+00	0.0
	25	2	5	5	0	0	4.8380447232E+01	1.1490288979E+02	-3.3070052087E+01	1.7974820116E+02	1.2518963902E+02	0.000E+00	0.0
	-5	1	9	9	0	501	1.6837275303E+01	9.5636420529E+01	-7.5680329666E+01	1.2318605225E+02	4.1800000000E+00	0.000E+00	0.0
	5	1	9	9	501	0	3.1543171929E+01	1.9266469264E+01	4.2610277580E+01	5.6562148904E+01	4.1800000000E+00	0.000E+00	0.0
</event>
<event>
    11  -1  1.0000000E+00  1.0000000E+00  -1.0000000E+00  -1.0000000E+00
	2212	-1	0	0	0	0	0.0000000000E+00	0.0000000000E+00	6.5000000000E+03	6.5000000000E+03	9.3827000000E-01	0.000E+00	0.0
	2212	-1	0	0	0	0	0.0000000000E+00	0.0000000000E+00	-6.5000000000E+03	6.5000000000E+03	9.3827000000E-01	0.000E+00	0.0
	2212	1	0	0	0	0	0.0000000000E+00	0.0000000000E+00	6.2838522852E+03	6.2838522852E+03	9.3827000000E-01	0.000E+00	0.0
	2212	1	0	0	0	0	0.0000000000E+00	0.0000000000E+00	-5.2292370261E+03	5.2292370261E+03	9.3827000000E-01	0.000E+00	0.0
	51	2	1	2	0	0	9.6957275292E+01	2.7832860839E+01	-9.2642137851E+02	1.4025412661E+03	1.0481841686E+03	0.000E+00	0.0
	1000022	2	5	5	0	0	-9.6957275292E+01	-2.7832860839E+01	-1.0032739508E+03	1.3181519783E+03	8.4899389638E+02	0.000E+00	0.0
	14	1	6	6	0	0	1.7514373043E+02	-8.6076214632E+01	-2.5720727047E+02	4.5811027168E+02	3.2500000000E+02	0.000E+00	0.0
	-14	1	6	6	0	0	-2.7210100572E+02	5.8243353793E+01	-7.4606668036E+02	8.6004170661E+02	3.2500000000E+02	0.000E+00	0.0
	25	2	5	5	0	0	9.6957275292E+01	2.7832860839E+01	-5.1341308348E+01	1.6875871039E+02	1.2517264483E+02	0.000E+00	0.0
	-5	1	9	9	0	501	6.9033835219E+01	5.9143217721E+01	1.2908185615E+01	9.1911284744E+01	4.1800000000E+00	0.000E+00	0.0
	5	1	9	9	501	0	2.7923440073E+01	-3.1310356882E+01	-6.4249493963E+01	7.6847425644E+01	4.1800000000E+00	0.000E+00	0.0
</event>
<event>
    11  -1  1.0000000E+00  1.0000000E+00  -1.0000000E+00  -1.0000000E+00
	2212	-1	0	0	0	0	0.0000000000E+00	0.0000000000E+00	6.5000000000E+03	6.5000000000E+03	9.3827000000E-01	0.000E+00	0.0
	2212	-1	0	0	0	0	0.0000000000E+00	0.0000000000E+00	-6.5000000000E+03	6.5000000000E+03	9.3827000000E-01	0.000E+00	0.0
	2212	1	0	0	0	0	0.0000000000E+00	0.0000000000E+00	6.2859914190E+03	6.2859914190E+03	9.3827000000E-01	0.000E+00	0.0
	2212	1	0	0	0	0	0.0000000000E+00	0.0000000000E+00	-5.2255074865E+03	5.2255074865E+03	9.3827000000E-01	0.000E+00	0.0
	51	2	1	2	0	0	-7.6038803698E+01	-1.8790113408E+01	-1.2177709563E+03	1.6062722083E+03	1.0445139239E+03	0.000E+00	0.0
	1000022	2	5	5	0	0	7.6038803698E+01	1.8790113408E+01	-7.2775461039E+02	1.1244782034E+03	8.5363311148E+02	0.000E+00	0.0
	14	1	6	6	0	0	1.8839274920E+02	-1.3617590316E+02	-1.3474878252E+02	4.2168464395E+02	3.2500000000E+02	0.000E+00	0.0
	-14	1	6	6	0	0	-1.1235394550E+02	1.5496601656E+02	-5.9300582787E+02	7.0279355948E+02	3.2500000000E+02	0.000E+00	0.0
	25	2	5	5	0	0	-7.6038803698E+01	-1.8790113408E+01	-3.3272932211E+02	3.6402289104E+02	1.2517545840E+02	0.000E+00	0.0
	-5	1	9	9	0	501	-3.1369697156E+00	4.8249776349E+01	-1.0885691763E+02	1.1918549581E+02	4.1800000000E+00	0.000E+00	0.0
	5	1	9	9	501	0	-7.2901833982E+01	-6.7039889756E+01	-2.2387240448E+02	2.4483739523E+02	4.1800000000E+00	0.000E+00	0.0
</event>
<event>
    11  -1  1.0000000E+00  1.0000000E+00  -1.0000000E+00  -1.0000000E+00
	2212	-1	0	0	0	0	0.0000000000E+00	0.0000000000E+00	6.5000000000E+03	6.5000000000E+03	9.3827000000E-01	0.000E+00	0.0
	2212	-1	0	0	0	0	0.0000000000E+00	0.0000000000E+00	-6.5000000000E+03	6.5000000000E+03	9.3827000000E-01	0.000E+00	0.0
	2212	1	0	0	0	0	0.0000000000E+00	0.0000000000E+00	6.0098360524E+03	6.0098360524E+03	9.3827000000E-01	0.000E+00	0.0
	2212	1	0	0	0	0	0.0000000000E+00	0.0000000000E+00	-5.9530291901E+03	5.9530291901E+03	9.3827000000E-01	0.000E+00	0.0
	51	2	1	2	0	0	1.8062333450E+01	1.0539727262E+02	1.2375301251E+01	1.0411577530E+03	1.0355778511E+03	0.000E+00	0.0
	1000022	2	5	5	0	0	-1.8062333450E+01	-1.0539727262E+02	-1.1661532413E+02	8.6197412871E+02	8.4732840846E+02	0.000E+00	0.0
	14	1	6	6	0	0	-2.7134768283E+02	-1.2436652146E+02	-4.8887511483E+01	4.4397250525E+02	3.2500000000E+02	0.000E+00	0.0
	-14	1	6	6	0	0	2.5328534938E+02	1.8969248835E+01	-6.7727812643E+01	4.1800162346E+02	3.2500000000E+02	0.000E+00	0.0
	25	2	5	5	0	0	1.8062333450E+01	1.0539727262E+02	5.9808461772E+01	1.7516062880E+02	1.2517731749E+02	0.000E+00	0.0
	-5	1	9	9	0	501	6.3253285473E+01	3.5087082219E+01	5.5673389869E+01	9.1373301359E+01	4.1800000000E+00	0.000E+00	0.0
	5	1	9	9	501	0	-4.5190952023E+01	7.0310190402E+01	4.1350719021E+00	8.3787327436E+01	4.1800000000E+00	0.000E+00	0.0
</event>
<event>
    11  -1  1.0000000E+00  1.0000000E+00  -1.0000000E+00  -1.0000000E+00
	2212	-1	0	0	0	0	0.0000000000E+00	0.0000000000E+00	6.5000000000E+03	6.5000000000E+03	9.3827000000E-01	0.000E+00	0.0
	2212	-1	0	0	0	0	0.0000000000E+00	0.0000000000E+00	-6.5000000000E+03	6.5000000000E+03	9.3827000000E-01	0.000E+00	0.0
	2212	1	0	0	0	0	0.0000000000E+00	0.0000000000E+00	4.8832072996E+03	4.8832072996E+03	9.3827000000E-01	0.000E+00	0.0
	2212	1	0	0	0	0	0.0000000000E+00	0.0000000000E+00	-6.3282500886E+03	6.3282500886E+03	9.3827000000E-01	0.000E+00	0.0
	51	2	1	2	0	0	8.4128007475E+01	4.2095786197E+01	1.6375194095E+03	1.9496295560E+03	1.0539146132E+03	0.000E+00	0.0
	1000022	2	5	5	0	0	-8.4128007475E+01	-4.2095786197E+01	1.0064348180E+03	1.3228166549E+03	8.5327796343E+02	0.000E+00	0.0
	14	1	6	6	0	0	-2.6191517922E+02	-7.8113937899E-01	7.8549594731E+02	8.8951057022E+02	3.2500000000E+02	0.000E+00	0.0
	-14	1	6	6	0	0	1.7778717175E+02	-4.1314646818E+01	2.2093887067E+02	4.3330608472E+02	3.2500000000E+02	0.000E+00	0.0
	25	2	5	5	0	0	8.4128007475E+01	4.2095786197E+01	4.3860797099E+02	4.6572595678E+02	1.2519639670E+02	0.000E+00	0.0
	-5	1	9	9	0	501	7.0061637671E+01	8.2550059684E+01	2.5358338226E+02	2.7576285026E+02	4.1800000000E+00	0.000E+00	0.0
	5	1	9	9	501	0	1.4066369804E+01	-4.0454273487E+01	1.8502458873E+02	1.8996310652E+02	4.1800000000E+00	0.000E+00	0.0
</event>
<event>
    11  -1  1.0000000E+00  1.0000000E+00  -1.0000000E+00  -1.0000000E+00
	2212	-1	0	0	0	0	0.0000000000E+00	0.0000000000E+00	6.5000000000E+03	6.5000000000E+03	9.3827000000E-01	0.000E+00	0.0
	2212	-1	0	0	0	0	0.0000000000E+00	0.0000000000E+00	-6.5000000000E+03	6.5000000000E+03	9.3827000000E-01	0.000E+00	0.0
	2212	1	0	0	0	0	0.0000000000E+00	0.0000000000E+00	5.3301774776E+03	5.3301774776E+03	9.3827000000E-01	0.000E+00	0.0
	2212	1	0	0	0	0	0.0000000000E+00	0.0000000000E+00	-6.2635735190E+03	6.2635735190E+03	9.3827000000E-01	0.000E+00	0.0
	51	2	1	2	0	0	-9.9652249565E+01	3.0755772089E+01	1.0649163801E+03	1.5004104354E+03	1.0518118128E+03	0.000E+00	0.0
	1000022	2	5	5	0	0	9.9652249565E+01	-3.0755772089E+01	6.4385532908E+02	1.0740150032E+03	8.5327724327E+02	0.000E+00	0.0
	14	1	6	6	0	0	5.8175362404E+01	5.6277520108E+00	6.6626300458E+02	7.4360435425E+02	3.2500000000E+02	0.000E+00	0.0
	-14	1	6	6	0	0	4.1476887161E+01	-3.6383524100E+01	-2.2407675503E+01	3.3041064891E+02	3.2500000000E+02	0.000E+00	0.0
	25	2	5	5	0	0	-9.9652249565E+01	3.0755772089E+01	2.8954071232E+02	3.3223400029E+02	1.2517634960E+02	0.000E+00	0.0
	-5	1	9	9	0	501	-8.8607766157E+01	4.3863149570E+01	2.9702022188E+02	3.1307155208E+02	4.1800000000E+00	0.000E+00	0.0
	5	1	9	9	501	0	-1.1044483408E+01	-1.3107377481E+01	-7.4795095653E+00	1.9162448213E+01	4.1800000000E+00	0.000E+00	0.0
</event>
<event>
    11  -1  1.0000000E+00  1.0000000E+00  -1.0000000E+00  -1.0000000E+00
	2212	-1	0	0	0	0	0.0000000000E+00	0.0000000000E+00	6.5000000000E+03	6.5000000000E+03	9.3827000000E-01	0.000E+00	0.0
	2212	-1	0	0	0	0	0.0000000000E+00	0.0000000000E+00	-6.5000000000E+03	6.5000000000E+03	9.3827000000E-01	0.000E+00	0.0
	2212	1	0	0	0	0	0.0000000000E+00	0.0000000000E+00	6.2970891257E+03	6.2970891257E+03	9.3827000000E-01	0.000E+00	0.0
	2212	1	0	0	0	0	0.0000000000E+00	0.0000000000E+00	-5.1585348506E+03	5.1585348506E+03	9.3827000000E-01	0.000E+00	0.0
	51	2	1	2	0	0	-8.5469363304E+01	-9.0016409680E+01	-1.0442015598E+03	1.4814034997E+03	1.0434517073E+03	0.000E+00	0.0
	1000022	2	5	5	0	0	8.5469363304E+01	9.0016409680E+01	-1.0362151041E+03	1.3405485894E+03	8.4138030200E+02	0.000E+00	0.0
	14	1	6	6	0	0	-1.8038713654E+02	5.5085551840E+01	-2.5868939724E+02	4.5620076863E+02	3.2500000000E+02	0.000E+00	0.0
	-14	1	6	6	0	0	2.6585649985E+02	3.4930857840E+01	-7.7752570685E+02	8.8434782080E+02	3.2500000000E+02	0.000E+00	0.0
	25	2	5	5	0	0	-8.5469363304E+01	-9.0016409680E+01	-1.0233917094E+02	2.0382743428E+02	1.2515730494E+02	0.000E+00	0.0
	-5	1	9	9	0	501	1.1531382923E+01	-7.5877950054E+01	-3.2801709651E+01	8.3569495946E+01	4.1800000000E+00	0.000E+00	0.0
	5	1	9	9	501	0	-9.7000746228E+01	-1.4138459626E+01	-6.9537461292E+01	1.2025793833E+02	4.1800000000E+00	0.000E+00	0.0
</event>
<event>
    11  -1  1.0000000E+00  1.0000000E+00  -1.0000000E+00  -1.0000000E+00
	2212	-1	0	0	0	0	0.0000000000E+00	0.0000000000E+00	6.5000000000E+03	6.5000000000E+03	9.3827000000E-01	0.000E+00	0.0
	2212	-1	0	0	0	0	0.0000000000E+00	0.0000000000E+00	-6.5000000000E+03	6.5000000000E+03	9.3827000000E-01	0.000E+00	0.0
	2212	1	0	0	0	0	0.0000000000E+00	0.0000000000E+00	6.2202970545E+03	6.2202970545E+03	9.3827000000E-01	0.000E+00	0.0
	2212	1	0	0	0	0	0.0000000000E+00	0.0000000000E+00	-5.5389333526E+03	5.5389333526E+03	9.3827000000E-01	0.000E+00	0.0
	51	2	1	2	0	0	8.8545486487E+01	4.4279909726E+01	-7.8129031154E+02	1.3021014757E+03	1.0369439177E+03	0.000E+00	0.0
	1000022	2	5	5	0	0	-8.8545486487E+01	-4.4279909726E+01	-4.6941813959E+02	9.7545016317E+02	8.4932244611E+02	0.000E+00	0.0
	14	1	6	6	0	0	1.6179018843E+02	-1.9279520686E+02	-2.9321286813E+02	5.0492063029E+02	3.2500000000E+02	0.000E+00	0.0
	-14	1	6	6	0	0	-2.5033567492E+02	1.4851529713E+02	-1.7620527147E+02	4.7052953288E+02	3.2500000000E+02	0.000E+00	0.0
	25	2	5	5	0	0	8.8545486487E+01	4.4279909726E+01	-2.1194556223E+02	2.6531942972E+02	1.2518971545E+02	0.000E+00	0.0
	-5	1	9	9	0	501	6.4130760304E-01	5.4180278634E+01	-2.7928119243E+01	6.1101277505E+01	4.1800000000E+00	0.000E+00	0.0
	5	1	9	9	501	0	8.7904178884E+01	-9.9003689075E+00	-1.8401744299E+02	2.0421815221E+02	4.1800000000E+00	0.000E+00	0.0
</event>
<event>
    11  -1  1.0000000E+00  1.0000000E+00  -1.0000000E+00  -1.0000000E+00
	2212	-1	0	0	0	0	0.0000000000E+00	0.0000000000E+00	6.5000000000E+03	6.5000000000E+03	9.3827000000E-01	0.000E+00	0.0
	2212	-1	0	0	0	0	0.0000000000E+00	0.0000000000E+00	-6.5000000000E+03	6.5000000000E+03	9.3827000000E-01	0.000E+00	0.0
	2212	1	0	0	0	0	0.0000000000E+00	0.0000000000E+00	5.7835070041E+03	5.7835070041E+03	9.3827000000E-01	0.000E+00	0.0
	2212	1	0	0	0	0	0.0000000000E+00	0.0000000000E+00	-6.1132027057E+03	6.1132027057E+03	9.3827000000E-01	0.000E+00	0.0
	51	2	1	2	0	0	-7.7716175669E+01	-1.1711040593E+02	3.9475803333E+02	1.1331984666E+03	1.0528771100E+03	0.000E+00	0.0
	1000022	2	5	5	0	0	7.7716175669E+01	1.1711040593E+02	2.0631835321E+02	8.7823734439E+02	8.4200885926E+02	0.000E+00	0.0
	14	1	6	6	0	0	2.3709242081E+02	1.7410378405E+02	2.5728294366E+02	5.0827596513E+02	3.2500000000E+02	0.000E+00	0.0
	-14	1	6	6	0	0	-1.5937624514E+02	-5.6993378121E+01	-5.0964590447E+01	3.6996137926E+02	3.2500000000E+02	0.000E+00	0.0
	25	2	5	5	0	0	-7.7716175669E+01	-1.1711040593E+02	1.2337734839E+02	2.2505294581E+02	1.2518868633E+02	0.000E+00	0.0
	-5	1	9	9	0	501	-6.0722029892E+01	-1.8245447862E+01	-3.0420386703E+00	6.3614366939E+01	4.1800000000E+00	0.000E+00	0.0
	5	1	9	9	501	0	-1.6994145778E+01	-9.8864958068E+01	1.2641938706E+02	1.6143857887E+02	4.1800000000E+00	0.000E+00	0.0
</event>
<event>
    11  -1  1.0000000E+00  1.0000000E+00  -1.0000000E+00  -1.0000000E+00
	2212	-1	0	0	0	0	0.0000000000E+00	0.0000000000E+00	6.5000000000E+03	6.5000000000E+03	9.3827000000E-01	0.000E+00	0.0
	2212	-1	0	0	0	0	0.0000000000E+00	0.0000000000E+00	-6.5000000000E+03	6.5000000000E+03	9.3827000000E-01	0.000E+00	0.0
	2212	1	0	0	0	0	0.0000000000E+00	0.0000000000E+00	6.3031249433E+03	6.3031249433E+03	9.3827000000E-01	0.000E+00	0.0
	2212	1	0	0	0	0	0.0000000000E+00	0.0000000000E+00	-5.0998663097E+03	5.0998663097E+03	9.3827000000E-01	0.000E+00	0.0
	51	2	1	2	0	0	-8.6084803194E+01	-8.8908546030E+01	-1.1237805650E+03	1.5429853143E+03	1.0500502839E+03	0.000E+00	0.0
	1000022	2	5	5	0	0	8.6084803194E+01	8.8908546030E+01	-1.0802253326E+03	1.3822517036E+03	8.5347388945E+02	0.000E+00	0.0
	14	1	6	6	0	0	-2.9371037402E+01	2.5013186129E+02	-2.8407143250E+02	4.9975012219E+02	3.2500000000E+02	0.000E+00	0.0
	-14	1	6	6	0	0	1.1545584060E+02	-1.6122331526E+02	-7.9615390011E+02	8.8250158140E+02	3.2500000000E+02	0.000E+00	0.0
	25	2	5	5	0	0	-8.6084803194E+01	-8.8908546030E+01	-1.2303330101E+02	2.1475704347E+02	1.2517216809E+02	0.000E+00	0.0
	-5	1	9	9	0	501	-1.0601245307E+02	-1.0427448719E+02	-1.1495464640E+02	1.8799960642E+02	4.1800000000E+00	0.000E+00	0.0
	5	1	9	9	501	0	1.9927649872E+01	1.5365941160E+01	-8.0786546049E+00	2.6757437048E+01	4.1800000000E+00	0.000E+00	0.0
</event>
<event>
    11  -1  1.0000000E+00  1.0000000E+00  -1.0000000E+00  -1.0000000E+00
	2212	-1	0	0	0	0	0.0000000000E+00	0.0000000000E+00	6.5000000000E+03	6.5000000000E+03	9.3827000000E-01	0.000E+00	0.0
	2212	-1	0	0	0	0	0.0000000000E+00	0.0000000000E+00	-6.5000000000E+03	6.5000000000E+03	9.3827000000E-01	0.000E+00	0.0
	2212	1	0	0	0	0	0.0000000000E+00	0.0000000000E+00	6.2563217625E+03	6.2563217625E+03	9.3827000000E-01	0.000E+00	0.0
	2212	1	0	0	0	0	0.0000000000E+00	0.0000000000E+00	-5.3359124407E+03	5.3359124407E+03	9.3827000000E-01	0.000E+00	0.0
	51	2	1	2	0	0	-4.0414511634E+01	1.5276725066E+02	-8.7663222370E+02	1.3885627246E+03	1.0652000840E+03	0.000E+00	0.0
	1000022	2	5	5	0	0	4.0414511634E+01	-1.5276725066E+02	-7.9713512426E+02	1.1714639597E+03	8.4376076990E+02	0.000E+00	0.0
	14	1	6	6	0	0	2.7744473932E+02	-1.2852641881E+02	-5.0393228194E+02	6.7310279192E+02	3.2500000000E+02	0.000E+00	0.0
	-14	1	6	6	0	0	-2.3703022769E+02	-2.4240831854E+01	-2.9320284232E+02	4.9836116774E+02	3.2500000000E+02	0.000E+00	0.0
	25	2	5	5	0	0	-4.0414511634E+01	1.5276725066E+02	-1.2327419752E+02	2.3630183713E+02	1.2518332488E+02	0.000E+00	0.0
	-5	1	9	9	0	501	-4.6108376448E+01	1.2179989426E+02	-2.4551131022E+01	1.3259497372E+02	4.1800000000E+00	0.000E+00	0.0
	5	1	9	9	501	0	5.6938648138E+00	3.0967356406E+01	-9.8723066502E+01	1.0370686341E+02	4.1800000000E+00	0.000E+00	0.0
</event>
<event>
    11  -1  1.0000000E+00  1.0000000E+00  -1.0000000E+00  -1.0000000E+00
	2212	-1	0	0	0	0	0.0000000000E+00	0.0000000000E+00	6.5000000000E+03	6.5000000000E+03	9.3827000000E-01	0.000E+00	0.0
	2212	-1	0	0	0	0	0.0000000000E+00	0.0000000000E+00	-6.5000000000E+03	6.5000000000E+03	9.3827000000E-01	0.000E+00	0.0
	2212	1	0	0	0	0	0.0000000000E+00	0.0000000000E+00	6.3164593645E+03	6.3164593645E+03	9.3827000000E-01	0.000E+00	0.0
	2212	1	0	0	0	0	0.0000000000E+00	0.0000000000E+00	-5.0218495199E+03	5.0218495199E+03	9.3827000000E-01	0.000E+00	0.0
	51	2	1	2	0	0	2.2174952786E+01	9.7500016598E+01	-1.4540586613E+03	1.7915041965E+03	1.0417306340E+03	0.000E+00	0.0
	1000022	2	5	5	0	0	-2.2174952786E+01	-9.7500016598E+01	-9.1600738748E+02	1.2505842851E+03	8.4551377189E+02	0.000E+00	0.0
	14	1	6	6	0	0	1.8790433006E+02	1.2839688419E+02	-5.0788493784E+02	6.4448887283E+02	3.2500000000E+02	0.000E+00	0.0
	-14	1	6	6	0	0	-2.1007928284E+02	-2.2589690079E+02	-4.0812244964E+02	6.0609541226E+02	3.2500000000E+02	0.000E+00	0.0
	25	2	5	5	0	0	2.2174952786E+01	9.7500016598E+01	-3.7860245721E+02	4.1110683051E+02	1.2518395953E+02	0.000E+00	0.0
	-5	1	9	9	0	501	4.5712466426E+00	-2.9832399474E+01	-5.4855130138E+01	6.2748912793E+01	4.1800000000E+00	0.000E+00	0.0
	5	1	9	9	501	0	1.7603706144E+01	1.2733241607E+02	-3.2374732707E+02	3.4835791772E+02	4.1800000000E+00	0.000E+00	0.0
</event>
<event>
    11  -1  1.0000000E+00  1.0000000E+00  -1.0000000E+00  -1.0000000E+00
	2212	-1	0	0	0	0	0.0000000000E+00	0.0000000000E+00	6.5000000000E+03	6.5000000000E+03	9.3827000000E-01	0.000E+00	0.0
	2212	-1	0	0	0	0	0.0000000000E+00	0.0000000000E+00	-6.5000000000E+03	6.5000000000E+03	9.3827000000E-01	0.000E+00	0.0
	2212	1	0	0	0	0	0.0000000000E+00	0.0000000000E+00	5.5273296262E+03	5.5273296262E+03	9.3827000000E-01	0.000E+00	0.0
	2212	1	0	0	0	0	0.0000000000E+00	0.0000000000E+00	-6.2216696764E+03	6.2216696764E+03	9.3827000000E-01	0.000E+00	0.0
	51	2	1	2	0	0	1.0013763618E+02	1.0990510870E+02	6.5165296280E+02	1.2367913740E+03	1.0406222368E+03	0.000E+00	0.0
	1000022	2	5	5	0	0	-1.0013763618E+02	-1.0990510870E+02	6.1197650119E+02	1.0399048072E+03	8.2751440528E+02	0.000E+00	0.0
	14	1	6	6	0	0	-1.5230376087E+02	7.7197696311E+01	6.2186235426E+01	3.7235473378E+02	3.2500000000E+02	0.000E+00	0.0
	-14	1	6	6	0	0	5.2166124690E+01	-1.8710280501E+02	5.4979026576E+02	6.6755007343E+02	3.2500000000E+02	0.000E+00	0.0
	25	2	5	5	0	0	1.0013763618E+02	1.0990510870E+02	8.2363549032E+01	2.1109589025E+02	1.2518403082E+02	0.000E+00	0.0
	-5	1	9	9	0	501	1.2250206470E+02	6.1687089905E+01	7.7411516637E+01	1.5755020858E+02	4.1800000000E+00	0.000E+00	0.0
	5	1	9	9	501	0	-2.2364428522E+01	4.8218018797E+01	4.9520323951E+00	5.3545681662E+01	4.1800000000E+00	0.000E+00	0.0
</event>
<event>
    11  -1  1.0000000E+00  1.0000000E+00  -1.0000000E+00  -1.0000000E+00
	2212	-1	0	0	0	0	0.0000000000E+00	0.0000000000E+00	6.5000000000E+03	6.5000000000E+03	9.3827000000E-01	0.000E+00	0.0
	2212	-1	0	0	0	0	0.0000000000E+00	0.0000000000E+00	-6.5000000000E+03	6.5000000000E+03	9.3827000000E-01	0.000E+00	0.0
	2212	1	0	0	0	0	0.0000000000E+00	0.0000000000E+00	5.2736543478E+03	5.2736543478E+03	9.3827000000E-01	0.000E+00	0.0
	2212	1	0	0	0	0	0.0000000000E+00	0.0000000000E+00	-6.2783209742E+03	6.2783209742E+03	9.3827000000E-01	0.000E+00	0.0
	51	2	1	2	0	0	2.1571848437E+01	-1.2059300967E+02	1.0841533173E+03	1.5092438080E+03	1.0427945329E+03	0.000E+00	0.0
	1000022	2	5	5	0	0	-2.1571848437E+01	1.2059300967E+02	7.5743461070E+02	1.1450344335E+03	8.4993449497E+02	0.000E+00	0.0
	14	1	6	6	0	0	-1.0191747049E+02	1.9905648321E+02	1.0613033102E+02	4.0853310938E+02	3.2500000000E+02	0.000E+00	0.0
	-14	1	6	6	0	0	8.0345622058E+01	-7.8463473543E+01	6.5130427968E+02	7.3650132410E+02	3.2500000000E+02	0.000E+00	0.0
	25	2	5	5	0	0	2.1571848437E+01	-1.2059300967E+02	2.4723201575E+02	3.0299024456E+02	1.2518546264E+02	0.000E+00	0.0
	-5	1	9	9	0	501	3.7384520148E+01	-1.3384439711E+02	1.5426833945E+02	2.0767310356E+02	4.1800000000E+00	0.000E+00	0.0
	5	1	9	9	501	0	-1.5812671711E+01	1.3251387442E+01	9.2963676305E+01	9.5317140998E+01	4.1800000000E+00	0.000E+00	0.0
</event>
<event>
    11  -1  1.0000000E+00  1.0000000E+00  -1.0000000E+00  -1.0000000E+00
	2212	-1	0	0	0	0	0.0000000000E+00	0.0000000000E+00	6.5000000000E+03	6.5000000000E+03	9.3827000000E-01	0.000E+00	0.0
	2212	-1	0	0	0	0	0.0000000000E+00	0.0000000000E+00	-6.5000000000E+03	6.5000000000E+03	9.3827000000E-01	0.000E+00	0.0
	2212	1	0	0	0	0	0.0000000000E+00	0.0000000000E+00	6.3227085336E+03	6.3227085336E+03	9.3827000000E-01	0.000E+00	0.0
	2212	1	0	0	0	0	0.0000000000E+00	0.0000000000E+00	-4.9713381394E+03	4.9713381394E+03	9.3827000000E-01	0.000E+00	0.0
	51	2	1	2	0	0	2.3955332514E+01	5.7884909562E+01	-1.1563846670E+03	1.5573133373E+03	1.0411891335E+03	0.000E+00	0.0
	1000022	2	5	5	0	0	-2.3955332514E+01	-5.7884909562E+01	-1.3137817697E+03	1.5609943222E+03	8.4068794139E+02	0.000E+00	0.0
	14	1	6	6	0	0	-2.2124311553E+02	-1.9059014508E+02	-6.1337008359E+02	7.5307435158E+02	3.2500000000E+02	0.000E+00	0.0
	-14	1	6	6	0	0	1.9728778302E+02	1.3270523551E+02	-7.0041168615E+02	8.0791997064E+02	3.2500000000E+02	0.000E+00	0.0
	25	2	5	5	0	0	2.3955332514E+01	5.7884909562E+01	-3.7588624491E+01	1.4495900482E+02	1.2520258654E+02	0.000E+00	0.0
	-5	1	9	9	0	501	-3.8970920410E+00	-1.7516050372E+01	-5.8884790900E+01	6.1700002807E+01	4.1800000000E+00	0.000E+00	0.0
	5	1	9	9	501	0	2.7852424555E+01	7.5400959934E+01	2.1296166409E+01	8.3259002013E+01	4.1800000000E+00	0.000E+00	0.0
</event>
<event>
    11  -1  1.0000000E+00  1.0000000E+00  -1.0000000E+00  -1.0000000E+00
	2212	-1	0	0	0	0	0.0000000000E+00	0.0000000000E+00	6.5000000000E+03	6.5000000000E+03	9.3827000000E-01	0.000E+00	0.0
	2212	-1	0	0	0	0	0.0000000000E+00	0.0000000000E+00	-6.5000000000E+03	6.5000000000E+03	9.3827000000E-01	0.000E+00	0.0
	2212	1	0	0	0	0	0.0000000000E+00	0.0000000000E+00	6.1272410551E+03	6.1272410551E+03	9.3827000000E-01	0.000E+00	0.0
	2212	1	0	0	0	0	0.0000000000E+00	0.0000000000E+00	-5.7588310639E+03	5.7588310639E+03	9.3827000000E-01	0.000E+00	0.0
	51	2	1	2	0	0	-7.8353574891E+01	1.0467634545E+02	-3.3097665512E+02	1.1098429477E+03	1.0512418382E+03	0.000E+00	0.0
	1000022	2	5	5	0	0	7.8353574891E+01	-1.0467634545E+02	-3.4408702812E+02	9.3128589253E+02	8.5545374551E+02	0.000E+00	0.0
	14	1	6	6	0	0	7.2031406494E+00	1.8131722315E+02	-3.2171760623E+02	4.9199089301E+02	3.2500000000E+02	0.000E+00	0.0
	-14	1	6	6	0	0	7.1150434242E+01	-2.8599356859E+02	-2.2369421889E+01	4.3929499952E+02	3.2500000000E+02	0.000E+00	0.0
	25	2	5	5	0	0	-7.8353574891E+01	1.0467634545E+02	-2.4322963145E+01	1.8264198848E+02	1.2518014789E+02	0.000E+00	0.0
	-5	1	9	9	0	501	-1.7925295630E+01	-8.5426616585E+00	3.5574248999E+01	4.0954766310E+01	4.1800000000E+00	0.000E+00	0.0
	5	1	9	9	501	0	-6.0428279261E+01	1.1321900710E+02	-5.9897212144E+01	1.4168722217E+02	4.1800000000E+00	0.000E+00	0.0
</event>
<event>
    11  -1  1.0000000E+00  1.0000000E+00  -1.0000000E+00  -1.0000000E+00
	2212	-1	0	0	0	0	0.0000000000E+00	0.0000000000E+00	6.5000000000E+03	6.5000000000E+03	9.3827000000E-01	0.000E+00	0.0
	2212	-1	0	0	0	0	0.0000000000E+00	0.0000000000E+00	-6.5000000000E+03	6.5000000000E+03	9.3827000000E-01	0.000E+00	0.0
	2212	1	0	0	0	0	0.0000000000E+00	0.0000000000E+00	6.1371673142E+03	6.1371673142E+03	9.3827000000E-01	0.000E+00	0.0
	2212	1	0	0	0	0	0.0000000000E+00	0.0000000000E+00	-5.7497919595E+03	5.7497919595E+03	9.3827000000E-01	0.000E+00	0.0
	51	2	1	2	0	0	1.1415843126E+02	5.7569414963E+01	-3.3318860136E+02	1.1027969087E+03	1.0434557934E+03	0.000E+00	0.0
	1000022	2	5	5	0	0	-1.1415843126E+02	-5.7569414963E+01	-3.7558667472E+02	9.3371816212E+02	8.4523243613E+02	0.000E+00	0.0
	14	1	6	6	0	0	1.4041112296E+02	-1.9390569076E+02	-9.0067656400E+01	4.1358419105E+02	3.2500000000E+02	0.000E+00	0.0
	-14	1	6	6	0	0	-2.5456955422E+02	1.3633627580E+02	-2.8551901832E+02	5.2013397107E+02	3.2500000000E+02	0.000E+00	0.0
	25	2	5	5	0	0	1.1415843126E+02	5.7569414963E+01	-1.1788680047E+01	1.7932256416E+02	1.2518475975E+02	0.000E+00	0.0
	-5	1	9	9	0	501	-3.1714617512E+00	-2.5924071290E+01	1.8280581727E+01	3.2152258243E+01	4.1800000000E+00	0.000E+00	0.0
	5	1	9	9	501	0	1.1732989301E+02	8.3493486253E+01	-3.0069261773E+01	1.4717030592E+02	4.1800000000E+00	0.000E+00	0.0
</event>
<event>
    11  -1  1.0000000E+00  1.0000000E+00  -1.0000000E+00  -1.0000000E+00
	2212	-1	0	0	0	0	0.0000000000E+00	0.0000000000E+00	6.5000000000E+03	6.5000000000E+03	9.3827000000E-01	0.000E+00	0.0
	2212	-1	0	0	0	0	0.0000000000E+00	0.0000000000E+00	-6.5000000000E+03	6.5000000000E+03	9.3827000000E-01	0.000E+00	0.0
	2212	1	0	0	0	0	0.0000000000E+00	0.0000000000E+00	6.1132859632E+03	6.1132859632E+03	9.3827000000E-01	0.000E+00	0.0
	2212	1	0	0	0	0	0.0000000000E+00	0.0000000000E+00	-5.7865580365E+03	5.7865580365E+03	9.3827000000E-01	0.000E+00	0.0
	51	2	1	2	0	0	4.9614685979E+01	1.2115404318E+02	-2.7024591929E+02	1.0925954709E+03	1.0505199127E+03	0.000E+00	0.0
	1000022	2	5	5	0	0	-4.9614685979E+01	-1.2115404318E+02	-3.2717318198E+02	9.1902996783E+02	8.4878376016E+02	0.000E+00	0.0
	14	1	6	6	0	0	-9.0961728623E+01	-2.1936133562E+02	5.4891676292E+01	4.0624072638E+02	3.2500000000E+02	0.000E+00	0.0
	-14	1	6	6	0	0	4.1347042644E+01	9.8207292445E+01	-3.8206485827E+02	5.1278924145E+02	3.2500000000E+02	0.000E+00	0.0
	25	2	5	5	0	0	4.9614685979E+01	1.2115404318E+02	4.4525524612E-01	1.8112603247E+02	1.2516597837E+02	0.000E+00	0.0
	-5	1	9	9	0	501	-3.8018804391E+01	6.1358746530E+01	-1.4979866829E+01	7.3838973945E+01	4.1800000000E+00	0.000E+00	0.0
	5	1	9	9	501	0	8.7633490370E+01	5.9795296649E+01	1.5425122075E+01	1.0728705852E+02	4.1800000000E+00	0.000E+00	0.0
</event>
<event>
    11  -1  1.0000000E+00  1.0000000E+00  -1.0000000E+00  -1.0000000E+00
	2212	-1	0	0	0	0	0.0000000000E+00	0.0000000000E+00	6.5000000000E+03	6.5000000000E+03	9.3827000000E-01	0.000E+00	0.0
	2212	-1	0	0	0	0	0.0000000000E+00	0.0000000000E+00	-6.5000000000E+03	6.5000000000E+03	9.3827000000E-01	0.000E+00	0.0
	2212	1	0	0	0	0	0.0000000000E+00	0.0000000000E+00	6.3134167883E+03	6.3134167883E+03	9.3827000000E-01	0.000E+00	0.0
	2212	1	0	0	0	0	0.0000000000E+00	0.0000000000E+00	-4.9748458955E+03	4.9748458955E+03	9.3827000000E-01	0.000E+00	0.0
	51	2	1	2	0	0	-1.4160128423E+02	4.6648734264E+01	-1.4235279112E+03	1.7851978453E+03	1.0668985915E+03	0.000E+00	0.0
	1000022	2	5	5	0	0	1.4160128423E+02	-4.6648734264E+01	-1.0173281795E+03	1.3361194316E+03	8.5324760913E+02	0.000E+00	0.0
	14	1	6	6	0	0	-8.5361014024E+01	1.3749734503E+02	-2.1362761638E+02	4.2125263333E+02	3.2500000000E+02	0.000E+00	0.0
	-14	1	6	6	0	0	2.2696229826E+02	-1.8414607929E+02	-8.0370056316E+02	9.1486679826E+02	3.2500000000E+02	0.000E+00	0.0
	25	2	5	5	0	0	-1.4160128423E+02	4.6648734264E+01	-3.2124271328E+02	3.7561788461E+02	1.2515944351E+02	0.000E+00	0.0
	-5	1	9	9	0	501	-3.6375427570E-01	-2.9913951601E+01	-8.2203641231E+01	8.7577895894E+01	4.1800000000E+00	0.000E+00	0.0
	5	1	9	9	501	0	-1.4123752996E+02	7.6562685865E+01	-2.3903907205E+02	2.8803998872E+02	4.1800000000E+00	0.000E+00	0.0
</event>
<event>
    11  -1  1.0000000E+00  1.0000000E+00  -1.0000000E+00  -1.0000000E+00
	2212	-1	0	0	0	0	0.0000000000E+00	0.0000000000E+00	6.5000000000E+03	6.5000000000E+03	9.3827000000E-01	0.000E+00	0.0
	2212	-1	0	0	0	0	0.0000000000E+00	0.0000000000E+00	-6.5000000000E+03	6.5000000000E+03	9.3827000000E-01	0.000E+00	0.0
	2212	1	0	0	0	0	0.0000000000E+00	0.0000000000E+00	5.6756891063E+03	5.6756891063E+03	9.3827000000E-01	0.000E+00	0.0
	2212	1	0	0	0	0	0.0000000000E+00	0.0000000000E+00	-6.1621114663E+03	6.1621114663E+03	9.3827000000E-01	0.000E+00	0.0
	51	2	1	2	0	0	-3.6851934346E+01	-1.2383806227E+02	3.9111004887E+02	1.1330321257E+03	1.0555097332E+03	0.000E+00	0.0
	1000022	2	5	5	0	0	3.6851934346E+01	1.2383806227E+02	4.9416283842E+02	9.8213306291E+02	8.3886501397E+02	0.000E+00	0.0
	14	1	6	6	0	0	-2.0285465986E+02	1.9937437336E+02	3.1158219621E+02	5.3254917029E+02	3.2500000000E+02	0.000E+00	0.0
	-14	1	6	6	0	0	2.3970659421E+02	-7.5536311087E+01	1.8258064221E+02	4.4958389263E+02	3.2500000000E+02	0.000E+00	0.0
	25	2	5	5	0	0	-3.6851934346E+01	-1.2383806227E+02	-7.7404784738E+00	1.8006636451E+02	1.2518006986E+02	0.000E+00	0.0
	-5	1	9	9	0	501	-6.4441671370E+01	-7.9970944563E+01	3.9210429263E+01	1.1001368618E+02	4.1800000000E+00	0.000E+00	0.0
	5	1	9	9	501	0	2.7589737023E+01	-4.3867117706E+01	-4.6950907736E+01	7.0052678336E+01	4.1800000000E+00	0.000E+00	0.0
</event>
<event>
    11  -1  1.0000000E+00  1.0000000E+00  -1.0000000E+00  -1.0000000E+00
	2212	-1	0	0	0	0	0.0000000000E+00	0.0000000000E+00	6.5000000000E+03	6.5000000000E+03	9.3827000000E-01	0.000E+00	0.0
	2212	-1	0	0	0	0	0.0000000000E+00	0.0000000000E+00	-6.5000000000E+03	6.5000000000E+03	9.3827000000E-01	0.000E+00	0.0
	2212	1	0	0	0	0	0.0000000000E+00	0.0000000000E+00	4.9313629014E+03	4.9313629014E+03	9.3827000000E-01	0.000E+00	0.0
	2212	1	0	0	0	0	0.0000000000E+00	0.0000000000E+00	-6.3237972004E+03	6.3237972004E+03	9.3827000000E-01	0.000E+00	0.0
	51	2	1	2	0	0	-8.8986344592E+01	-9.5250246776E+01	1.3102642397E+03	1.6850449698E+03	1.0514718224E+03	0.000E+00	0.0
	1000022	2	5	5	0	0	8.8986344592E+01	9.5250246776E+01	1.2362898279E+03	1.5060062297E+03	8.5008884616E+02	0.000E+00	0.0
	14	1	6	6	0	0	2.1901463454E+02	6.5113006730E+01	1.0170076628E+03	1.0918501271E+03	3.2500000000E+02	0.000E+00	0.0
	-14	1	6	6	0	0	-1.3002828994E+02	3.0137240046E+01	2.1928216506E+02	4.1415610262E+02	3.2500000000E+02	0.000E+00	0.0
	25	2	5	5	0	0	-8.8986344592E+01	-9.5250246776E+01	1.5614447108E+02	2.3883366844E+02	1.2517686007E+02	0.000E+00	0.0
	-5	1	9	9	0	501	1.3008113989E+01	-7.2579125813E+01	8.3690521283E+01	1.1161772389E+02	4.1800000000E+00	0.000E+00	0.0
	5	1	9	9	501	0	-1.0199445858E+02	-2.2671120963E+01	7.2453949801E+01	1.2721594455E+02	4.1800000000E+00	0.000E+00	0.0
</event>
<event>
    11  -1  1.0000000E+00  1.0000000E+00  -1.0000000E+00  -1.0000000E+00
	2212	-1	0	0	0	0	0.0000000000E+00	0.0000000000E+00	6.5000000000E+03	6.5000000000E+03	9.3827000000E-01	0.000E+00	0.0
	2212	-1	0	0	0	0	0.0000000000E+00	0.0000000000E+00	-6.5000000000E+03	6.5000000000E+03	9.3827000000E-01	0.000E+00	0.0
	2212	1	0	0	0	0	0.0000000000E+00	0.0000000000E+00	6.1822775476E+03	6.1822775476E+03	9.3827000000E-01	0.000E+00	0.0
	2212	1	0	0	0	0	0.0000000000E+00	0.0000000000E+00	-5.6010197871E+03	5.6010197871E+03	9.3827000000E-01	0.000E+00	0.0
	51	2	1	2	0	0	4.0067818669E+01	-4.4688744629E+01	-4.0651320949E+02	1.1451464077E+03	1.0688801577E+03	0.000E+00	0.0
	1000022	2	5	5	0	0	-4.0067818669E+01	4.4688744629E+01	-6.4819244652E+02	1.0625887314E+03	8.3984453942E+02	0.000E+00	0.0
	14	1	6	6	0	0	1.7151143607E+01	2.8476684541E+02	-3.0230608938E+02	5.2763651281E+02	3.2500000000E+02	0.000E+00	0.0
	-14	1	6	6	0	0	-5.7218962277E+01	-2.4007810078E+02	-3.4588635715E+02	5.3495221860E+02	3.2500000000E+02	0.000E+00	0.0
	25	2	5	5	0	0	4.0067818669E+01	-4.4688744629E+01	6.6934686000E+01	1.5411393391E+02	1.2517323375E+02	0.000E+00	0.0
	-5	1	9	9	0	501	-5.0705589070E+00	1.2910424927E+01	7.8573287736E+01	7.9897581847E+01	4.1800000000E+00	0.000E+00	0.0
	5	1	9	9	501	0	4.5138377576E+01	-5.7599169555E+01	-1.1638601735E+01	7.4216352066E+01	4.1800000000E+00	0.000E+00	0.0
</event>
<event>
    11  -1  1.0000000E+00  1.0000000E+00  -1.0000000E+00  -1.0000000E+00
	2212	-1	0	0	0	0	0.0000000000E+00	0.0000000000E+00	6.5000000000E+03	6.5000000000E+03	9.3827000000E-01	0.000E+00	0.0
	2212	-1	0	0	0	0	0.0000000000E+00	0.0000000000E+00	-6.5000000000E+03	6.5000000000E+03	9.3827000000E-01	0.000E+00	0.0
	2212	1	0	0	0	0	0.0000000000E+00	0.0000000000E+00	6.0580640454E+03	6.0580640454E+03	9.3827000000E-01	0.000E+00	0.0
	2212	1	0	0	0	0	0.0000000000E+00	0.0000000000E+00	-5.9222400207E+03	5.9222400207E+03	9.3827000000E-01	0.000E+00	0.0
	51	2	1	2	0	0	1.7997917553E+01	-1.3688766304E+01	-2.3476321382E+02	1.0377652460E+03	1.0106095348E+03	0.000E+00	0.0
	1000022	2	5	5	0	0	-1.7997917553E+01	1.3688766304E+01	-1.6015801875E+01	8.4495280200E+02	8.4449832702E+02	0.000E+00	0.0
	14	1	6	6	0	0	-5.9649479123E+01	-1.1832937314E+02	2.2536792506E+02	4.1710382707E+02	3.2500000000E+02	0.000E+00	0.0
	-14	1	6	6	0	0	4.1651561570E+01	1.3201813945E+02	-2.4138372694E+02	4.2784897494E+02	3.2500000000E+02	0.000E+00	0.0
	25	2	5	5	0	0	1.7997917553E+01	-1.3688766304E+01	-1.1980822280E+02	1.7474313189E+02	1.2517924961E+02	0.000E+00	0.0
	-5	1	9	9	0	501	-3.5257829613E+01	-2.7592418032E+01	-1.0979101856E+02	1.1864230375E+02	4.1800000000E+00	0.000E+00	0.0
	5	1	9	9	501	0	5.3255747166E+01	1.3903651728E+01	-1.0017204243E+01	5.6100828144E+01	4.1800000000E+00	0.000E+00	0.0
</event>
<event>
    11  -1  1.0000000E+00  1.0000000E+00  -1.0000000E+00  -1.0000000E+00
	2212	-1	0	0	0	0	0.0000000000E+00	0.0000000000E+00	6.5000000000E+03	6.5000000000E+03	9.3827000000E-01	0.000E+00	0.0
	2212	-1	0	0	0	0	0.0000000000E+00	0.0000000000E+00	-6.5000000000E+03	6.5000000000E+03	9.3827000000E-01	0.000E+00	0.0
	2212	1	0	0	0	0	0.0000000000E+00	0.0000000000E+00	5.5010859314E+03	5.5010859314E+03	9.3827000000E-01	0.000E+00	0.0
	2212	1	0	0	0	0	0.0000000000E+00	0.0000000000E+00	-6.2456827107E+03	6.2456827107E+03	9.3827000000E-01	0.000E+00	0.0
	51	2	1	2	0	0	5.4941136598E+01	-4.8344947936E+01	7.0799846975E+02	1.2340105625E+03	1.0080498364E+03	0.000E+00	0.0
	1000022	2	5	5	0	0	-5.4941136598E+01	4.8344947936E+01	6.7392919943E+02	1.0919128600E+03	8.5600079766E+02	0.000E+00	0.0
	14	1	6	6	0	0	-2.9331253826E+02	-2.0076477046E+01	4.3946716957E+02	6.2063814188E+02	3.2500000000E+02	0.000E+00	0.0
	-14	1	6	6	0	0	2.3837140166E+02	6.8421424982E+01	2.3446202986E+02	4.7127471815E+02	3.2500000000E+02	0.000E+00	0.0
	25	2	5	5	0	0	5.4941136598E+01	-4.8344947936E+01	7.0667579919E+01	1.6131849791E+02	1.2519580039E+02	0.000E+00	0.0
	-5	1	9	9	0	501	-2.1832836734E+01	-1.8741217560E+01	7.3331770072E+01	7.8885530343E+01	4.1800000000E+00	0.000E+00	0.0
	5	1	9	9	501	0	7.6773973332E+01	-2.9603730376E+01	-2.6641901529E+00	8.2432967570E+01	4.1800000000E+00	0.000E+00	0.0
</event>
<event>
    11  -1  1.0000000E+00  1.0000000E+00  -1.0000000E+00  -1.0000000E+00
	2212	-1	0	0	0	0	0.0000000000E+00	0.0000000000E+00	6.5000000000E+03	6.5000000000E+03	9.3827000000E-01	0.000E+00	0.0
	2212	-1	0	0	0	0	0.0000000000E+00	0.0000000000E+00	-6.5000000000E+03	6.5000000000E+03	9.3827000000E-01	0.000E+00	0.0
	2212	1	0	0	0	0	0.0000000000E+00	0.0000000000E+00	5.7335356775E+03	5.7335356775E+03	9.3827000000E-01	0.000E+00	0.0
	2212	1	0	0	0	0	0.0000000000E+00	0.0000000000E+00	-6.1390041414E+03	6.1390041414E+03	9.3827000000E-01	0.000E+00	0.0
	51	2	1	2	0	0	-1.1585282826E+02	8.1114862796E+00	5.0341476618E+02	1.1720391996E+03	1.0520274638E+03	0.000E+00	0.0
	1000022	2	5	5	0	0	1.1585282826E+02	-8.1114862796E+00	2.3738504316E+02	8.8785537056E+02	8.4761301683E+02	0.000E+00	0.0
	14	1	6	6	0	0	-1.0980480468E+02	2.0850760458E+02	7.4679947334E+01	4.0833149625E+02	3.2500000000E+02	0.000E+00	0.0
	-14	1	6	6	0	0	2.2565763294E+02	-2.1661909085E+02	1.6270509583E+02	4.7952387431E+02	3.2500000000E+02	0.000E+00	0.0
	25	2	5	5	0	0	-1.1585282826E+02	8.1114862796E+00	1.6808342074E+02	2.3960481050E+02	1.2518288566E+02	0.000E+00	0.0
	-5	1	9	9	0	501	1.9371294850E+01	9.8088285968E+00	6.7455637272E+01	7.0987291697E+01	4.1800000000E+00	0.000E+00	0.0
	5	1	9	9	501	0	-1.3522412311E+02	-1.6973423172E+00	1.0062778347E+02	1.6861751881E+02	4.1800000000E+00	0.000E+00	0.0
</event>
<event>
    11  -1  1.0000000E+00  1.0000000E+00  -1.0000000E+00  -1.0000000E+00
	2212	-1	0	0	0	0	0.0000000000E+00	0.0000000000E+00	6.5000000000E+03	6.5000000000E+03	9.3827000000E-01	0.000E+00	0.0
	2212	-1	0	0	0	0	0.0000000000E+00	0.0000000000E+00	-6.5000000000E+03	6.5000000000E+03	9.3827000000E-01	0.000E+00	0.0
	2212	1	0	0	0	0	0.0000000000E+00	0.0000000000E+00	5.7953231980E+03	5.7953231980E+03	9.3827000000E-01	0.000E+00	0.0
	2212	1	0	0	0	0	0.0000000000E+00	0.0000000000E+00	-6.1136883546E+03	6.1136883546E+03	9.3827000000E-01	0.000E+00	0.0
	51	2	1	2	0	0	-7.3458039735E+01	-9.5049434256E+01	3.7383799360E+02	1.1149371029E+03	1.0435034352E+03	0.000E+00	0.0
	1000022	2	5	5	0	0	7.3458039735E+01	9.5049434256E+01	2.1022215527E+02	8.8654723573E+02	8.5284357772E+02	0.000E+00	0.0
	14	1	6	6	0	0	1.6361808803E+02	2.3779104150E+02	-4.9620349571E+01	4.3749587111E+02	3.2500000000E+02	0.000E+00	0.0
	-14	1	6	6	0	0	-9.0160048299E+01	-1.4274160724E+02	2.5984250484E+02	4.4905136462E+02	3.2500000000E+02	0.000E+00	0.0
	25	2	5	5	0	0	-7.3458039735E+01	-9.5049434256E+01	1.0814300138E+02	2.0444121166E+02	1.2518315271E+02	0.000E+00	0.0
	-5	1	9	9	0	501	-7.7917686149E+01	-1.2060084519E+02	1.0511405822E+02	1.7799485192E+02	4.1800000000E+00	0.000E+00	0.0
	5	1	9	9	501	0	4.4596464140E+00	2.5551410933E+01	3.0289431621E+00	2.6446359739E+01	4.1800000000E+00	0.000E+00	0.0
</event>
<event>
    11  -1  1.0000000E+00  1.0000000E+00  -1.0000000E+00  -1.0000000E+00
	2212	-1	0	0	0	0	0.0000000000E+00	0.0000000000E+00	6.5000000000E+03	6.5000000000E+03	9.3827000000E-01	0.000E+00	0.0
	2212	-1	0	0	0	0	0.0000000000E+00	0.0000000000E+00	-6.5000000000E+03	6.5000000000E+03	9.3827000000E-01	0.000E+00	0.0
	2212	1	0	0	0	0	0.0000000000E+00	0.0000000000E+00	6.3248104780E+03	6.3248104780E+03	9.3827000000E-01	0.000E+00	0.0
	2212	1	0	0	0	0	0.0000000000E+00	0.0000000000E+00	-4.9330681889E+03	4.9330681889E+03	9.3827000000E-01	0.000E+00	0.0
	51	2	1	2	0	0	-1.3306984376E+02	9.2655124574E+00	-1.3963641771E+03	1.7509044772E+03	1.0478741050E+03	0.000E+00	0.0
	1000022	2	5	5	0	0	1.3306984376E+02	-9.2655124574E+00	-1.1553377336E+03	1.4432029155E+03	8.5453843904E+02	0.000E+00	0.0
	14	1	6	6	0	0	-8.5652612232E+01	4.3331477764E+01	-1.6502600900E+02	3.7692515251E+02	3.2500000000E+02	0.000E+00	0.0
	-14	1	6	6	0	0	2.1872245600E+02	-5.2596990221E+01	-9.9031172456E+02	1.0662777630E+03	3.2500000000E+02	0.000E+00	0.0
	25	2	5	5	0	0	-1.3306984376E+02	9.2655124574E+00	-2.3640455550E+02	2.9891841753E+02	1.2518655454E+02	0.000E+00	0.0
	-5	1	9	9	0	501	-8.0588486779E+01	-5.3984052320E+01	-9.8363041063E+01	1.3820832954E+02	4.1800000000E+00	0.000E+00	0.0
	5	1	9	9	501	0	-5.2481356984E+01	6.3249564778E+01	-1.3804151444E+02	1.6071008800E+02	4.1800000000E+00	0.000E+00	0.0
</event>
<event>
    11  -1  1.0000000E+00  1.0000000E+00  -1.0000000E+00  -1.0000000E+00
	2212	-1	0	0	0	0	0.0000000000E+00	0.0000000000E+00	6.5000000000E+03	6.5000000000E+03	9.3827000000E-01	0.000E+00	0.0
	2212	-1	0	0	0	0	0.0000000000E+00	0.0000000000E+00	-6.5000000000E+03	6.5000000000E+03	9.3827000000E-01	0.000E+00	0.0
	2212	1	0	0	0	0	0.0000000000E+00	0.0000000000E+00	6.3329837178E+03	6.3329837178E+03	9.3827000000E-01	0.000E+00	0.0
	2212	1	0	0	0	0	0.0000000000E+00	0.0000000000E+00	-4.8594787572E+03	4.8594787572E+03	9.3827000000E-01	0.000E+00	0.0
	51	2	1	2	0	0	5.5194158187E+01	1.0776373799E+02	-1.3734890044E+03	1.7312153243E+03	1.0468882632E+03	0.000E+00	0.0
	1000022	2	5	5	0	0	-5.5194158187E+01	-1.0776373799E+02	-1.3244166616E+03	1.5782853973E+03	8.4985050658E+02	0.000E+00	0.0
	14	1	6	6	0	0	-2.5695027839E+02	-1.5875886524E+01	-9.4396058400E+02	1.0310005206E+03	3.2500000000E+02	0.000E+00	0.0
	-14	1	6	6	0	0	2.0175612021E+02	-9.1887851470E+01	-3.8045607757E+02	5.4728487669E+02	3.2500000000E+02	0.000E+00	0.0
	25	2	5	5	0	0	5.5194158187E+01	1.0776373799E+02	-1.4908829897E+02	2.2925212771E+02	1.2517906712E+02	0.000E+00	0.0
	-5	1	9	9	0	501	1.0484346924E+01	-2.9771353090E+00	1.9428719622E+01	2.2665665912E+01	4.1800000000E+00	0.000E+00	0.0
	5	1	9	9	501	0	4.4709811262E+01	1.1074087330E+02	-1.6851701859E+02	2.0658646180E+02	4.1800000000E+00	0.000E+00	0.0
</event>
<event>
    11  -1  1.0000000E+00  1.0000000E+00  -1.0000000E+00  -1.0000000E+00
	2212	-1	0	0	0	0	0.0000000000E+00	0.0000000000E+00	6.5000000000E+03	6.5000000000E+03	9.3827000000E-01	0.000E+00	0.0
	2212	-1	0	0	0	0	0.0000000000E+00	0.0000000000E+00	-6.5000000000E+03	6.5000000000E+03	9.3827000000E-01	0.000E+00	0.0
	2212	1	0	0	0	0	0.0000000000E+00	0.0000000000E+00	5.9549725039E+03	5.9549725039E+03	9.3827000000E-01	0.000E+00	0.0
	2212	1	0	0	0	0	0.0000000000E+00	0.0000000000E+00	-5.9944962843E+03	5.9944962843E+03	9.3827000000E-01	0.000E+00	0.0
	51	2	1	2	0	0	-3.7223880839E+01	-6.3153474040E+01	-7.2337218917E+01	1.0548271657E+03	1.0497874536E+03	0.000E+00	0.0
	1000022	2	5	5	0	0	3.7223880839E+01	6.3153474040E+01	1.4480283001E+02	8.7128884772E+02	8.5603879468E+02	0.000E+00	0.0
	14	1	6	6	0	0	-7.4657212366E+01	2.0713125751E+02	-1.2414236275E+02	4.1172003039E+02	3.2500000000E+02	0.000E+00	0.0
	-14	1	6	6	0	0	1.1188109320E+02	-1.4397778347E+02	2.6894519276E+02	4.5956881733E+02	3.2500000000E+02	0.000E+00	0.0
	25	2	5	5	0	0	-3.7223880839E+01	-6.3153474040E+01	-1.0527904967E+02	1.7924236407E+02	1.2518054239E+02	0.000E+00	0.0
	-5	1	9	9	0	501	2.6975248159E+01	-5.0553543285E+01	-9.7576474888E+01	1.1323411855E+02	4.1800000000E+00	0.000E+00	0.0
	5	1	9	9	501	0	-6.4199128997E+01	-1.2599930755E+01	-7.7025747781E+00	6.6008245525E+01	4.1800000000E+00	0.000E+00	0.0
</event>
<event>
    11  -1  1.0000000E+00  1.0000000E+00  -1.0000000E+00  -1.0000000E+00
	2212	-1	0	0	0	0	0.0000000000E+00	0.0000000000E+00	6.5000000000E+03	6.5000000000E+03	9.3827000000E-01	0.000E+00	0.0
	2212	-1	0	0	0	0	0.0000000000E+00	0.0000000000E+00	-6.5000000000E+03	6.5000000000E+03	9.3827000000E-01	0.000E+00	0.0
	2212	1	0	0	0	0	0.0000000000E+00	0.0000000000E+00	6.2268696576E+03	6.2268696576E+03	9.3827000000E-01	0.000E+00	0.0
	2212	1	0	0	0	0	0.0000000000E+00	0.0000000000E+00	-5.5797715335E+03	5.5797715335E+03	9.3827000000E-01	0.000E+00	0.0
	51	2	1	2	0	0	-2.0722985336E+01	1.6398925583E+01	-6.3845744866E+02	1.1889892957E+03	1.0026810383E+03	0.000E+00	0.0
	1000022	2	5	5	0	0	2.0722985336E+01	-1.6398925583E+01	-5.7327070260E+02	1.0456431497E+03	8.7408920089E+02	0.000E+00	0.0
	14	1	6	6	0	0	-2.0357859918E+02	-9.6384768621E+01	-7.1008920036E+01	4.0174810067E+02	3.2500000000E+02	0.000E+00	0.0
	-14	1	6	6	0	0	2.2430158452E+02	7.9985843037E+01	-5.0226178257E+02	6.4389504900E+02	3.2500000000E+02	0.000E+00	0.0
	25	2	5	5	0	0	-2.0722985336E+01	1.6398925583E+01	-7.3827421423E+01	1.4771565920E+02	1.2518410817E+02	0.000E+00	0.0
	-5	1	9	9	0	501	1.4417435303E+01	5.5923499315E+01	-1.3786160433E+00	5.7919540731E+01	4.1800000000E+00	0.000E+00	0.0
	5	1	9	9	501	0	-3.5140420639E+01	-3.9524573732E+01	-7.2448805380E+01	8.9796118470E+01	4.1800000000E+00	0.000E+00	0.0
</event>
<event>
    11  -1  1.0000000E+00  1.0000000E+00  -1.0000000E+00  -1.0000000E+00
	2212	-1	0	0	0	0	0.0000000000E+00	0.0000000000E+00	6.5000000000E+03	6.5000000000E+03	9.3827000000E-01	0.000E+00	0.0
	2212	-1	0	0	0	0	0.0000000000E+00	0.0000000000E+00	-6.5000000000E+03	6.5000000000E+03	9.3827000000E-01	0.000E+00	0.0
	2212	1	0	0	0	0	0.0000000000E+00	0.0000000000E+00	6.2935966884E+03	6.2935966884E+03	9.3827000000E-01	0.000E+00	0.0
	2212	1	0	0	0	0	0.0000000000E+00	0.0000000000E+00	-5.1601053511E+03	5.1601053511E+03	9.3827000000E-01	0.000E+00	0.0
	51	2	1	2	0	0	1.2667341225E+02	-6.6862698306E+01	-1.1722317230E+03	1.5814166931E+03	1.0517769588E+03	0.000E+00	0.0
	1000022	2	5	5	0	0	-1.2667341225E+02	6.6862698306E+01	-8.9935768687E+02	1.2446256190E+03	8.4837014836E+02	0.000E+00	0.0
	14	1	6	6	0	0	-3.3014968773E+01	2.6923126278E+02	-2.7019770894E+02	5.0220241232E+02	3.2500000000E+02	0.000E+00	0.0
	-14	1	6	6	0	0	-9.3658443475E+01	-2.0236856447E+02	-6.2915997793E+02	7.4242320664E+02	3.2500000000E+02	0.000E+00	0.0
	25	2	5	5	0	0	1.2667341225E+02	-6.6862698306E+01	-2.3413365043E+02	3.0167234162E+02	1.2518331216E+02	0.000E+00	0.0
	-5	1	9	9	0	501	5.9281452344E+01	-5.7733029366E+00	-1.1051257189E+01	6.0722518922E+01	4.1800000000E+00	0.000E+00	0.0
	5	1	9	9	501	0	6.7391959904E+01	-6.1089395369E+01	-2.2308239324E+02	2.4094982270E+02	4.1800000000E+00	0.000E+00	0.0
</event>
<event>
    11  -1  1.0000000E+00  1.0000000E+00  -1.0000000E+00  -1.0000000E+00
	2212	-1	0	0	0	0	0.0000000000E+00	0.0000000000E+00	6.5000000000E+03	6.5000000000E+03	9.3827000000E-01	0.000E+00	0.0
	2212	-1	0	0	0	0	0.0000000000E+00	0.0000000000E+00	-6.5000000000E+03	6.5000000000E+03	9.3827000000E-01	0.000E+00	0.0
	2212	1	0	0	0	0	0.0000000000E+00	0.0000000000E+00	4.8462858824E+03	4.8462858824E+03	9.3827000000E-01	0.000E+00	0.0
	2212	1	0	0	0	0	0.0000000000E+00	0.0000000000E+00	-6.3360416321E+03	6.3360416321E+03	9.3827000000E-01	0.000E+00	0.0
	51	2	1	2	0	0	-1.0925033615E+02	1.4088135987E+01	1.6562760655E+03	1.9595779105E+03	1.0414226187E+03	0.000E+00	0.0
	1000022	2	5	5	0	0	1.0925033615E+02	-1.4088135987E+01	1.0672983878E+03	1.3634945777E+03	8.4134267886E+02	0.000E+00	0.0
	14	1	6	6	0	0	-9.8506820833E+01	1.6428352905E+02	2.8350825651E+02	4.7190529047E+02	3.2500000000E+02	0.000E+00	0.0
	-14	1	6	6	0	0	2.0775715698E+02	-1.7837166504E+02	7.8379013132E+02	8.9158928724E+02	3.2500000000E+02	0.000E+00	0.0
	25	2	5	5	0	0	-1.0925033615E+02	1.4088135987E+01	4.2245736187E+02	4.5417790780E+02	1.2519280256E+02	0.000E+00	0.0
	-5	1	9	9	0	501	-5.9309708384E+00	-3.7931421723E+01	4.4640081424E+01	5.9026929774E+01	4.1800000000E+00	0.000E+00	0.0
	5	1	9	9	501	0	-1.0331936531E+02	5.2019557710E+01	3.7781728045E+02	3.9515097803E+02	4.1800000000E+00	0.000E+00	0.0
</event>
<event>
    11  -1  1.0000000E+00  1.0000000E+00  -1.0000000E+00  -1.0000000E+00
	2212	-1	0	0	0	0	0.0000000000E+00	0.0000000000E+00	6.5000000000E+03	6.5000000000E+03	9.3827000000E-01	0.000E+00	0.0
	2212	-1	0	0	0	0	0.0000000000E+00	0.0000000000E+00	-6.5000000000E+03	6.5000000000E+03	9.3827000000E-01	0.000E+00	0.0
	2212	1	0	0	0	0	0.0000000000E+00	0.0000000000E+00	6.2626085691E+03	6.2626085691E+03	9.3827000000E-01	0.000E+00	0.0
	2212	1	0	0	0	0	0.0000000000E+00	0.0000000000E+00	-5.3416844420E+03	5.3416844420E+03	9.3827000000E-01	0.000E+00	0.0
	51	2	1	2	0	0	1.4928176912E+01	1.3015134248E+02	-9.8992637620E+02	1.4481067652E+03	1.0487596249E+03	0.000E+00	0.0
	1000022	2	5	5	0	0	-1.4928176912E+01	-1.3015134248E+02	-6.9583375961E+02	1.1067477921E+03	8.5061379708E+02	0.000E+00	0.0
	14	1	6	6	0	0	1.7149984671E+02	-2.0530299370E+02	-1.6376160368E+02	4.5166843977E+02	3.2500000000E+02	0.000E+00	0.0
	-14	1	6	6	0	0	-1.8642802362E+02	7.5151651220E+01	-5.3207215593E+02	6.5507935228E+02	3.2500000000E+02	0.000E+00	0.0
	25	2	5	5	0	0	1.4928176912E+01	1.3015134248E+02	-2.2509036749E+02	2.8895919677E+02	1.2517795911E+02	0.000E+00	0.0
	-5	1	9	9	0	501	2.8118131432E+00	5.4841775008E+01	-4.2005841036E+00	5.5232634248E+01	4.1800000000E+00	0.000E+00	0.0
	5	1	9	9	501	0	1.2116363769E+01	7.5309567473E+01	-2.2088978339E+02	2.3372656252E+02	4.1800000000E+00	0.000E+00	0.0
</event>
<event>
    11  -1  1.0000000E+00  1.0000000E+00  -1.0000000E+00  -1.0000000E+00
	2212	-1	0	0	0	0	0.0000000000E+00	0.0000000000E+00	6.5000000000E+03	6.5000000000E+03	9.3827000000E-01	0.000E+00	0.0
	2212	-1	0	0	0	0	0.0000000000E+00	0.0000000000E+00	-6.5000000000E+03	6.5000000000E+03	9.3827000000E-01	0.000E+00	0.0
	2212	1	0	0	0	0	0.0000000000E+00	0.0000000000E+00	5.1153790055E+03	5.1153790055E+03	9.3827000000E-01	0.000E+00	0.0
	2212	1	0	0	0	0	0.0000000000E+00	0.0000000000E+00	-6.3046377598E+03	6.3046377598E+03	9.3827000000E-01	0.000E+00	0.0
	51	2	1	2	0	0	1.0744658805E+02	-4.5372736828E+01	1.1998918502E+03	1.5922796689E+03	1.0401974030E+03	0.000E+00	0.0
	1000022	2	5	5	0	0	-1.0744658805E+02	4.5372736828E+01	9.9045404429E+02	1.3176924285E+03	8.6122625812E+02	0.000E+00	0.0
	14	1	6	6	0	0	1.2203755119E+02	2.4617612752E+01	1.3367618382E+02	3.7281833764E+02	3.2500000000E+02	0.000E+00	0.0
	-14	1	6	6	0	0	-2.2948413925E+02	2.0755124075E+01	8.5677786047E+02	9.4487409083E+02	3.2500000000E+02	0.000E+00	0.0
	25	2	5	5	0	0	1.0744658805E+02	-4.5372736828E+01	1.9880470996E+02	2.6229080618E+02	1.2517867139E+02	0.000E+00	0.0
	-5	1	9	9	0	501	-1.6880380174E+01	-9.6617479421E+00	9.3059394071E+01	9.5162071399E+01	4.1800000000E+00	0.000E+00	0.0
	5	1	9	9	501	0	1.2432696823E+02	-3.5710988886E+01	1.0574531589E+02	1.6712873478E+02	4.1800000000E+00	0.000E+00	0.0
</event>
<event>
    11  -1  1.0000000E+00  1.0000000E+00  -1.0000000E+00  -1.0000000E+00
	2212	-1	0	0	0	0	0.0000000000E+00	0.0000000000E+00	6.5000000000E+03	6.5000000000E+03	9.3827000000E-01	0.000E+00	0.0
	2212	-1	0	0	0	0	0.0000000000E+00	0.0000000000E+00	-6.5000000000E+03	6.5000000000E+03	9.3827000000E-01	0.000E+00	0.0
	2212	1	0	0	0	0	0.0000000000E+00	0.0000000000E+00	5.0005934079E+03	5.0005934079E+03	9.3827000000E-01	0.000E+00	0.0
	2212	1	0	0	0	0	0.0000000000E+00	0.0000000000E+00	-6.3172728260E+03	6.3172728260E+03	9.3827000000E-01	0.000E+00	0.0
	51	2	1	2	0	0	-9.2380389319E+00	-2.2767683128E+01	1.2284672518E+03	1.6142071783E+03	1.0468664275E+03	0.000E+00	0.0
	1000022	2	5	5	0	0	9.2380389319E+00	2.2767683128E+01	1.2317818022E+03	1.5289026401E+03	9.0534698651E+02	0.000E+00	0.0
	14	1	6	6	0	0	1.8721728494E+02	-1.0968292807E+02	9.9660113385E+02	1.0704762849E+03	3.2500000000E+02	0.000E+00	0.0
	-14	1	6	6	0	0	-1.7797924601E+02	1.3245061120E+02	2.3518066835E+02	4.5842635524E+02	3.2500000000E+02	0.000E+00	0.0
	25	2	5	5	0	0	-9.2380389319E+00	-2.2767683128E+01	8.4897615891E+01	1.5323112596E+02	1.2517373534E+02	0.000E+00	0.0
	-5	1	9	9	0	501	4.2103320497E+01	3.1462301286E+01	3.7027649508E+01	6.4428916079E+01	4.1800000000E+00	0.000E+00	0.0
	5	1	9	9	501	0	-5.1341359429E+01	-5.4229984413E+01	4.7869966383E+01	8.8802209877E+01	4.1800000000E+00	0.000E+00	0.0
</event>
<event>
    11  -1  1.0000000E+00  1.0000000E+00  -1.0000000E+00  -1.0000000E+00
	2212	-1	0	0	0	0	0.0000000000E+00	0.0000000000E+00	6.5000000000E+03	6.5000000000E+03	9.3827000000E-01	0.000E+00	0.0
	2212	-1	0	0	0	0	0.0000000000E+00	0.0000000000E+00	-6.5000000000E+03	6.5000000000E+03	9.3827000000E-01	0.000E+00	0.0
	2212	1	0	0	0	0	0.0000000000E+00	0.0000000000E+00	5.9476018017E+03	5.9476018017E+03	9.3827000000E-01	0.000E+00	0.0
	2212	1	0	0	0	0	0.0000000000E+00	0.0000000000E+00	-6.0020912355E+03	6.0020912355E+03	9.3827000000E-01	0.000E+00	0.0
	51	2	1	2	0	0	-5.3891827056E+01	-8.7309058599E+01	1.5468453702E+02	1.0651901823E+03	1.0488925673E+03	0.000E+00	0.0
	1000022	2	5	5	0	0	5.3891827056E+01	8.7309058599E+01	-5.5072266561E+01	8.5487860923E+02	8.4691043283E+02	0.000E+00	0.0
	14	1	6	6	0	0	-9.9661686773E+01	3.6128676315E+01	2.1369658720E+02	4.0314881179E+02	3.2500000000E+02	0.000E+00	0.0
	-14	1	6	6	0	0	1.5355351383E+02	5.1180382284E+01	-2.6876885376E+02	4.5172979744E+02	3.2500000000E+02	0.000E+00	0.0
	25	2	5	5	0	0	-5.3891827056E+01	-8.7309058599E+01	1.0956170033E+02	1.9542835360E+02	1.2514501379E+02	0.000E+00	0.0
	-5	1	9	9	0	501	3.6880877669E+01	-2.0245852766E+00	2.3485724971E+01	4.3969873329E+01	4.1800000000E+00	0.000E+00	0.0
	5	1	9	9	501	0	-9.0772704725E+01	-8.5284473323E+01	8.6075975355E+01	1.5145848027E+02	4.1800000000E+00	0.000E+00	0.0
</event>
<event>
    11  -1  1.0000000E+00  1.0000000E+00  -1.0000000E+00  -1.0000000E+00
	2212	-1	0	0	0	0	0.0000000000E+00	0.0000000000E+00	6.5000000000E+03	6.5000000000E+03	9.3827000000E-01	0.000E+00	0.0
	2212	-1	0	0	0	0	0.0000000000E+00	0.0000000000E+00	-6.5000000000E+03	6.5000000000E+03	9.3827000000E-01	0.000E+00	0.0
	2212	1	0	0	0	0	0.0000000000E+00	0.0000000000E+00	6.2424636011E+03	6.2424636011E+03	9.3827000000E-01	0.000E+00	0.0
	2212	1	0	0	0	0	0.0000000000E+00	0.0000000000E+00	-5.4279786473E+03	5.4279786473E+03	9.3827000000E-01	0.000E+00	0.0
	51	2	1	2	0	0	-1.3770181164E+02	2.5817498505E+01	-8.5492370844E+02	1.3619328009E+03	1.0508749092E+03	0.000E+00	0.0
	1000022	2	5	5	0	0	1.3770181164E+02	-2.5817498505E+01	-6.3449212315E+02	1.0693759112E+03	8.4932694114E+02	0.000E+00	0.0
	14	1	6	6	0	0	1.8562961929E+02	-2.6977016263E+01	-2.3889117558E+01	3.7600771920E+02	3.2500000000E+02	0.000E+00	0.0
	-14	1	6	6	0	0	-4.7927807648E+01	1.1595177578E+00	-6.1060300559E+02	6.9336819199E+02	3.2500000000E+02	0.000E+00	0.0
	25	2	5	5	0	0	-1.3770181164E+02	2.5817498505E+01	-1.7999283073E+02	2.6018184039E+02	1.2517523236E+02	0.000E+00	0.0
	-5	1	9	9	0	501	-5.1105537457E+01	4.0592261370E+01	-1.5579796419E+02	1.6896741013E+02	4.1800000000E+00	0.000E+00	0.0
	5	1	9	9	501	0	-8.6596274182E+01	-1.4774762865E+01	-2.4194866539E+01	9.1214430255E+01	4.1800000000E+00	0.000E+00	0.0
</event>
<event>
    11  -1  1.0000000E+00  1.0000000E+00  -1.0000000E+00  -1.0000000E+00
	2212	-1	0	0	0	0	0.0000000000E+00	0.0000000000E+00	6.5000000000E+03	6.5000000000E+03	9.3827000000E-01	0.000E+00	0.0
	2212	-1	0	0	0	0	0.0000000000E+00	0.0000000000E+00	-6.5000000000E+03	6.5000000000E+03	9.3827000000E-01	0.000E+00	0.0
	2212	1	0	0	0	0	0.0000000000E+00	0.0000000000E+00	5.3916551429E+03	5.3916551429E+03	9.3827000000E-01	0.000E+00	0.0
	2212	1	0	0	0	0	0.0000000000E+00	0.0000000000E+00	-6.2533226567E+03	6.2533226567E+03	9.3827000000E-01	0.000E+00	0.0
	51	2	1	2	0	0	-7.9088517058E+01	-1.2743098785E+02	9.1266813392E+02	1.3960913409E+03	1.0457601347E+03	0.000E+00	0.0
	1000022	2	5	5	0	0	7.9088517058E+01	1.2743098785E+02	6.5675188095E+02	1.0719127648E+03	8.3377472504E+02	0.000E+00	0.0
	14	1	6	6	0	0	2.1691112548E+02	1.7916087643E+02	5.5286567064E+02	7.0031029249E+02	3.2500000000E+02	0.000E+00	0.0
	-14	1	6	6	0	0	-1.3782260842E+02	-5.1729888580E+01	1.0388621031E+02	3.7160247235E+02	3.2500000000E+02	0.000E+00	0.0
	25	2	5	5	0	0	-7.9088517058E+01	-1.2743098785E+02	2.0491563290E+02	2.8310943560E+02	1.2516743075E+02	0.000E+00	0.0
	-5	1	9	9	0	501	-4.9035828732E+01	-1.4806381502E+02	1.8252152714E+02	2.4012285623E+02	4.1800000000E+00	0.000E+00	0.0
	5	1	9	9	501	0	-3.0052688326E+01	2.0632827163E+01	2.2394105763E+01	4.2986579362E+01	4.1800000000E+00	0.000E+00	0.0
</event>
<event>
    11  -1  1.0000000E+00  1.0000000E+00  -1.0000000E+00  -1.0000000E+00
	2212	-1	0	0	0	0	0.0000000000E+00	0.0000000000E+00	6.5000000000E+03	6.5000000000E+03	9.3827000000E-01	0.000E+00	0.0
	2212	-1	0	0	0	0	0.0000000000E+00	0.0000000000E+00	-6.5000000000E+03	6.5000000000E+03	9.3827000000E-01	0.000E+00	0.0
	2212	1	0	0	0	0	0.0000000000E+00	0.0000000000E+00	5.3429871775E+03	5.3429871775E+03	9.3827000000E-01	0.000E+00	0.0
	2212	1	0	0	0	0	0.0000000000E+00	0.0000000000E+00	-6.2644357658E+03	6.2644357658E+03	9.3827000000E-01	0.000E+00	0.0
	51	2	1	2	0	0	-6.8815729561E+00	3.8701469937E+00	1.0703621515E+03	1.4953062653E+03	1.0441280371E+03	0.000E+00	0.0
	1000022	2	5	5	0	0	6.8815729561E+00	-3.8701469937E+00	6.3143767327E+02	1.0766086748E+03	8.7195777955E+02	0.000E+00	0.0
	14	1	6	6	0	0	-7.1463002496E+01	-1.7377460387E+02	4.1669041623E+01	3.7771137487E+02	3.2500000000E+02	0.000E+00	0.0
	-14	1	6	6	0	0	7.8344575452E+01	1.6990445687E+02	5.8976863164E+02	6.9889729992E+02	3.2500000000E+02	0.000E+00	0.0
	25	2	5	5	0	0	-6.8815729561E+00	3.8701469937E+00	2.9001091511E+02	3.1596838189E+02	1.2516929892E+02	0.000E+00	0.0
	-5	1	9	9	0	501	4.6861767431E+01	-2.4862598057E+00	2.3114262588E+02	2.3589530015E+02	4.1800000000E+00	0.000E+00	0.0
	5	1	9	9	501	0	-5.3743340387E+01	6.3564067994E+00	5.8868289224E+01	8.0073081741E+01	4.1800000000E+00	0.000E+00	0.0
</event>
<event>
    11  -1  1.0000000E+00  1.0000000E+00  -1.0000000E+00  -1.0000000E+00
	2212	-1	0	0	0	0	0.0000000000E+00	0.0000000000E+00	6.5000000000E+03	6.5000000000E+03	9.3827000000E-01	0.000E+00	0.0
	2212	-1	0	0	0	0	0.0000000000E+00	0.0000000000E+00	-6.5000000000E+03	6.5000000000E+03	9.3827000000E-01	0.000E+00	0.0
	2212	1	0	0	0	0	0.0000000000E+00	0.0000000000E+00	6.2278956781E+03	6.2278956781E+03	9.3827000000E-01	0.000E+00	0.0
	2212	1	0	0	0	0	0.0000000000E+00	0.0000000000E+00	-5.5129351626E+03	5.5129351626E+03	9.3827000000E-01	0.000E+00	0.0
	51	2	1	2	0	0	-1.2782782983E+02	6.7794341640E+01	-6.8986476800E+02	1.2534703259E+03	1.0365029826E+03	0.000E+00	0.0
	1000022	2	5	5	0	0	1.2782782983E+02	-6.7794341640E+01	-6.1397857900E+02	1.0428233791E+03	8.3040645334E+02	0.000E+00	0.0
	14	1	6	6	0	0	2.3515618042E+02	-6.4197080532E+01	-8.8637283321E+01	4.1581397563E+02	3.2500000000E+02	0.000E+00	0.0
	-14	1	6	6	0	0	-1.0732835059E+02	-3.5972611083E+00	-5.2534129568E+02	6.2700940350E+02	3.2500000000E+02	0.000E+00	0.0
	25	2	5	5	0	0	-1.2782782983E+02	6.7794341640E+01	-1.0098193650E+02	2.1634578017E+02	1.2518833117E+02	0.000E+00	0.0
	-5	1	9	9	0	501	6.8670797874E+00	4.8099440439E+01	-3.5589587467E+00	4.8896334655E+01	4.1800000000E+00	0.000E+00	0.0
	5	1	9	9	501	0	-1.3469490962E+02	1.9694901201E+01	-9.7422977750E+01	1.6744944552E+02	4.1800000000E+00	0.000E+00	0.0
</event>
<event>
    11  -1  1.0000000E+00  1.0000000E+00  -1.0000000E+00  -1.0000000E+00
	2212	-1	0	0	0	0	0.0000000000E+00	0.0000000000E+00	6.5000000000E+03	6.5000000000E+03	9.3827000000E-01	0.000E+00	0.0
	2212	-1	0	0	0	0	0.0000000000E+00	0.0000000000E+00	-6.5000000000E+03	6.5000000000E+03	9.3827000000E-01	0.000E+00	0.0
	2212	1	0	0	0	0	0.0000000000E+00	0.0000000000E+00	5.7126632754E+03	5.7126632754E+03	9.3827000000E-01	0.000E+00	0.0
	2212	1	0	0	0	0	0.0000000000E+00	0.0000000000E+00	-6.1485487047E+03	6.1485487047E+03	9.3827000000E-01	0.000E+00	0.0
	51	2	1	2	0	0	1.1171325265E+02	-7.4613731151E+01	4.5361977913E+02	1.1535423748E+03	1.0520656095E+03	0.000E+00	0.0
	1000022	2	5	5	0	0	-1.1171325265E+02	7.4613731151E+01	3.4545098384E+02	9.3409843767E+02	8.5741264822E+02	0.000E+00	0.0
	14	1	6	6	0	0	9.1906938709E+01	-1.5538781445E+02	3.1253345476E+02	4.8568963197E+02	3.2500000000E+02	0.000E+00	0.0
	-14	1	6	6	0	0	-2.0362019136E+02	2.3000154560E+02	3.2917529084E+01	4.4840880570E+02	3.2500000000E+02	0.000E+00	0.0
	25	2	5	5	0	0	1.1171325265E+02	-7.4613731151E+01	9.0434445538E+01	2.0468958224E+02	1.2518936235E+02	0.000E+00	0.0
	-5	1	9	9	0	501	2.3283963369E+01	2.0126572130E+01	6.5721013423E+01	7.2690754991E+01	4.1800000000E+00	0.000E+00	0.0
	5	1	9	9	501	0	8.8429289278E+01	-9.4740303282E+01	2.4713432115E+01	1.3199882725E+02	4.1800000000E+00	0.000E+00	0.0
</event>
<event>
    11  -1  1.0000000E+00  1.0000000E+00  -1.0000000E+00  -1.0000000E+00
	2212	-1	0	0	0	0	0.0000000000E+00	0.0000000000E+00	6.5000000000E+03	6.5000000000E+03	9.3827000000E-01	0.000E+00	0.0
	2212	-1	0	0	0	0	0.0000000000E+00	0.0000000000E+00	-6.5000000000E+03	6.5000000000E+03	9.3827000000E-01	0.000E+00	0.0
	2212	1	0	0	0	0	0.0000000000E+00	0.0000000000E+00	6.1257205757E+03	6.1257205757E+03	9.3827000000E-01	0.000E+00	0.0
	2212	1	0	0	0	0	0.0000000000E+00	0.0000000000E+00	-5.7589057835E+03	5.7589057835E+03	9.3827000000E-01	0.000E+00	0.0
	51	2	1	2	0	0	9.5713112178E+01	-7.9553420974E+01	-4.0157146384E+02	1.1341316740E+03	1.0533305591E+03	0.000E+00	0.0
	1000022	2	5	5	0	0	-9.5713112178E+01	7.9553420974E+01	-2.7238897630E+02	9.1517965673E+02	8.6479379221E+02	0.000E+00	0.0
	14	1	6	6	0	0	-2.4392759234E+02	-1.3333747347E+02	-1.8719544659E+01	4.2808290493E+02	3.2500000000E+02	0.000E+00	0.0
	-14	1	6	6	0	0	1.4821448016E+02	2.1289089445E+02	-2.5366943164E+02	4.8709675180E+02	3.2500000000E+02	0.000E+00	0.0
	25	2	5	5	0	0	9.5713112178E+01	-7.9553420974E+01	-9.4425815852E+01	2.0019398402E+02	1.2518646055E+02	0.000E+00	0.0
	-5	1	9	9	0	501	5.1195929254E+01	-3.6783171254E+01	-1.1810597450E+02	1.3394222064E+02	4.1800000000E+00	0.000E+00	0.0
	5	1	9	9	501	0	4.4517182924E+01	-4.2770249720E+01	2.3680158643E+01	6.6251763372E+01	4.1800000000E+00	0.000E+00	0.0
</event>
<event>
    11  -1  1.0000000E+00  1.0000000E+00  -1.0000000E+00  -1.0000000E+00
	2212	-1	0	0	0	0	0.0000000000E+00	0.0000000000E+00	6.5000000000E+03	6.5000000000E+03	9.3827000000E-01	0.000E+00	0.0
	2212	-1	0	0	0	0	0.0000000000E+00	0.0000000000E+00	-6.5000000000E+03	6.5000000000E+03	9.3827000000E-01	0.000E+00	0.0
	2212	1	0	0	0	0	0.0000000000E+00	0.0000000000E+00	4.8856720573E+03	4.8856720573E+03	9.3827000000E-01	0.000E+00	0.0
	2212	1	0	0	0	0	0.0000000000E+00	0.0000000000E+00	-6.3276957518E+03	6.3276957518E+03	9.3827000000E-01	0.000E+00	0.0
	51	2	1	2	0	0	1.5197758469E+02	2.7712693188E+01	1.5574684360E+03	1.8873779056E+03	1.0548091059E+03	0.000E+00	0.0
	1000022	2	5	5	0	0	-1.5197758469E+02	-2.7712693188E+01	1.0610265112E+03	1.3568734768E+03	8.3154265964E+02	0.000E+00	0.0
	14	1	6	6	0	0	4.2665431292E+01	3.1470805851E+01	1.3737748153E+02	3.5680291910E+02	3.2500000000E+02	0.000E+00	0.0
	-14	1	6	6	0	0	-1.9464301598E+02	-5.9183499039E+01	9.2364902971E+02	1.0000705577E+03	3.2500000000E+02	0.000E+00	0.0
	25	2	5	5	0	0	1.5197758469E+02	2.7712693188E+01	3.8099718327E+02	4.2975871410E+02	1.2517395526E+02	0.000E+00	0.0
	-5	1	9	9	0	501	1.1569756859E+02	-3.2293763248E+01	1.7654361864E+02	2.1357419368E+02	4.1800000000E+00	0.000E+00	0.0
	5	1	9	9	501	0	3.6280016105E+01	6.0006456436E+01	2.0445356462E+02	2.1618452042E+02	4.1800000000E+00	0.000E+00	0.0
</event>
<event>
    11  -1  1.0000000E+00  1.0000000E+00  -1.0000000E+00  -1.0000000E+00
	2212	-1	0	0	0	0	0.0000000000E+00	0.0000000000E+00	6.5000000000E+03	6.5000000000E+03	9.3827000000E-01	0.000E+00	0.0
	2212	-1	0	0	0	0	0.0000000000E+00	0.0000000000E+00	-6.5000000000E+03	6.5000000000E+03	9.3827000000E-01	0.000E+00	0.0
	2212	1	0	0	0	0	0.0000000000E+00	0.0000000000E+00	6.2468354505E+03	6.2468354505E+03	9.3827000000E-01	0.000E+00	0.0
	2212	1	0	0	0	0	0.0000000000E+00	0.0000000000E+00	-5.4123320979E+03	5.4123320979E+03	9.3827000000E-01	0.000E+00	0.0
	51	2	1	2	0	0	-2.6610113686E+01	-1.4233132823E+02	-7.9683060247E+02	1.3256474388E+03	1.0494931242E+03	0.000E+00	0.0
	1000022	2	5	5	0	0	2.6610113686E+01	1.4233132823E+02	-7.2568863184E+02	1.1206497404E+03	8.4158513837E+02	0.000E+00	0.0
	14	1	6	6	0	0	-4.1321739886E+00	-1.5311800179E+02	-5.2646425052E+02	6.3737885469E+02	3.2500000000E+02	0.000E+00	0.0
	-14	1	6	6	0	0	3.0742287674E+01	2.9544933001E+02	-1.9922438132E+02	4.8327088571E+02	3.2500000000E+02	0.000E+00	0.0
	25	2	5	5	0	0	-2.6610113686E+01	-1.4233132823E+02	-1.0881472080E+02	2.2018271122E+02	1.2519376067E+02	0.000E+00	0.0
	-5	1	9	9	0	501	3.9674534050E+01	-3.7971628731E+01	-7.2912965555E+01	9.1376617286E+01	4.1800000000E+00	0.000E+00	0.0
	5	1	9	9	501	0	-6.6284647736E+01	-1.0435969950E+02	-3.5901755249E+01	1.2880609393E+02	4.1800000000E+00	0.000E+00	0.0
</event>
<event>
    11  -1  1.0000000E+00  1.0000000E+00  -1.0000000E+00  -1.0000000E+00
	2212	-1	0	0	0	0	0.0000000000E+00	0.0000000000E+00	6.5000000000E+03	6.5000000000E+03	9.3827000000E-01	0.000E+00	0.0
	2212	-1	0	0	0	0	0.0000000000E+00	0.0000000000E+00	-6.5000000000E+03	6.5000000000E+03	9.3827000000E-01	0.000E+00	0.0
	2212	1	0	0	0	0	0.0000000000E+00	0.0000000000E+00	6.1991615401E+03	6.1991615401E+03	9.3827000000E-01	0.000E+00	0.0
	2212	1	0	0	0	0	0.0000000000E+00	0.0000000000E+00	-5.3602075086E+03	5.3602075086E+03	9.3827000000E-01	0.000E+00	0.0
	51	2	1	2	0	0	-1.1910836982E+02	-2.2618396031E+02	-7.5762432578E+02	1.4180670920E+03	1.1711420370E+03	0.000E+00	0.0
	1000022	2	5	5	0	0	1.1910836982E+02	2.2618396031E+02	-7.2956799251E+02	1.1357024875E+03	8.3198839946E+02	0.000E+00	0.0
	14	1	6	6	0	0	2.9712057049E+02	9.9614954358E+00	-3.4396415641E+02	5.5885257957E+02	3.2500000000E+02	0.000E+00	0.0
	-14	1	6	6	0	0	-1.7801220067E+02	2.1622246488E+02	-3.8560383610E+02	5.7684990797E+02	3.2500000000E+02	0.000E+00	0.0
	25	2	5	5	0	0	-1.1910836982E+02	-2.2618396031E+02	-1.0938603895E+02	3.0492846374E+02	1.2518016941E+02	0.000E+00	0.0
	-5	1	9	9	0	501	-3.0179628785E+01	-7.5132981566E+01	2.4079615080E+01	8.4575854563E+01	4.1800000000E+00	0.000E+00	0.0
	5	1	9	9	501	0	-8.8928741039E+01	-1.5105097875E+02	-1.3346565403E+02	2.2035260917E+02	4.1800000000E+00	0.000E+00	0.0
</event>
<event>
    11  -1  1.0000000E+00  1.0000000E+00  -1.0000000E+00  -1.0000000E+00
	2212	-1	0	0	0	0	0.0000000000E+00	0.0000000000E+00	6.5000000000E+03	6.5000000000E+03	9.3827000000E-01	0.000E+00	0.0
	2212	-1	0	0	0	0	0.0000000000E+00	0.0000000000E+00	-6.5000000000E+03	6.5000000000E+03	9.3827000000E-01	0.000E+00	0.0
	2212	1	0	0	0	0	0.0000000000E+00	0.0000000000E+00	6.3080031430E+03	6.3080031430E+03	9.3827000000E-01	0.000E+00	0.0
	2212	1	0	0	0	0	0.0000000000E+00	0.0000000000E+00	-5.0661167656E+03	5.0661167656E+03	9.3827000000E-01	0.000E+00	0.0
	51	2	1	2	0	0	1.3276629159E+02	-3.6447027638E+01	-1.2324790701E+03	1.6245504700E+03	1.0493828174E+03	0.000E+00	0.0
	1000022	2	5	5	0	0	-1.3276629159E+02	3.6447027638E+01	-1.0412756063E+03	1.3522536310E+03	8.5169226854E+02	0.000E+00	0.0
	14	1	6	6	0	0	1.9875039057E+02	6.7099225507E+01	-3.6832610024E+02	5.3412839274E+02	3.2500000000E+02	0.000E+00	0.0
	-14	1	6	6	0	0	-3.3151668216E+02	-3.0652197869E+01	-6.7294950602E+02	8.1812523824E+02	3.2500000000E+02	0.000E+00	0.0
	25	2	5	5	0	0	1.3276629159E+02	-3.6447027638E+01	-2.0061077107E+02	2.7362646043E+02	1.2518579942E+02	0.000E+00	0.0
	-5	1	9	9	0	501	-3.4034030521E+00	2.9356643901E+01	-6.0309690075E+01	6.7291357620E+01	4.1800000000E+00	0.000E+00	0.0
	5	1	9	9	501	0	1.3616969464E+02	-6.5803671539E+01	-1.4030108099E+02	2.0633510281E+02	4.1800000000E+00	0.000E+00	0.0
</event>
<event>
    11  -1  1.0000000E+00  1.0000000E+00  -1.0000000E+00  -1.0000000E+00
	2212	-1	0	0	0	0	0.0000000000E+00	0.0000000000E+00	6.5000000000E+03	6.5000000000E+03	9.3827000000E-01	0.000E+00	0.0
	2212	-1	0	0	0	0	0.0000000000E+00	0.0000000000E+00	-6.5000000000E+03	6.5000000000E+03	9.3827000000E-01	0.000E+00	0.0
	2212	1	0	0	0	0	0.0000000000E+00	0.0000000000E+00	6.3002199575E+03	6.3002199575E+03	9.3827000000E-01	0.000E+00	0.0
	2212	1	0	0	0	0	0.0000000000E+00	0.0000000000E+00	-5.1720424339E+03	5.1720424339E+03	9.3827000000E-01	0.000E+00	0.0
	51	2	1	2	0	0	5.6702431700E+01	8.3781794570E+01	-1.2286364165E+03	1.6065427709E+03	1.0301444927E+03	0.000E+00	0.0
	1000022	2	5	5	0	0	-5.6702431700E+01	-8.3781794570E+01	-8.4607367672E+02	1.2029553533E+03	8.4913271089E+02	0.000E+00	0.0
	14	1	6	6	0	0	-2.4171096291E+02	1.2865915989E+02	-4.2800533819E+02	6.0315084227E+02	3.2500000000E+02	0.000E+00	0.0
	-14	1	6	6	0	0	1.8500853121E+02	-2.1244095446E+02	-4.1806833853E+02	5.9980451102E+02	3.2500000000E+02	0.000E+00	0.0
	25	2	5	5	0	0	5.6702431700E+01	8.3781794570E+01	-2.8210384690E+02	3.2478225530E+02	1.2516540281E+02	0.000E+00	0.0
	-5	1	9	9	0	501	1.1256426560E+01	9.1043509613E+01	-2.5540382006E+02	2.7141151686E+02	4.1800000000E+00	0.000E+00	0.0
	5	1	9	9	501	0	4.5446005139E+01	-7.2617150429E+00	-2.6700026837E+01	5.3370738440E+01	4.1800000000E+00	0.000E+00	0.0
</event>
<event>
    11  -1  1.0000000E+00  1.0000000E+00  -1.0000000E+00  -1.0000000E+00
	2212	-1	0	0	0	0	0.0000000000E+00	0.0000000000E+00	6.5000000000E+03	6.5000000000E+03	9.3827000000E-01	0.000E+00	0.0
	2212	-1	0	0	0	0	0.0000000000E+00	0.0000000000E+00	-6.5000000000E+03	6.5000000000E+03	9.3827000000E-01	0.000E+00	0.0
	2212	1	0	0	0	0	0.0000000000E+00	0.0000000000E+00	6.2054458382E+03	6.2054458382E+03	9.3827000000E-01	0.000E+00	0.0
	2212	1	0	0	0	0	0.0000000000E+00	0.0000000000E+00	-5.5317616584E+03	5.5317616584E+03	9.3827000000E-01	0.000E+00	0.0
	51	2	1	2	0	0	1.0891687778E+01	2.7572506960E+01	-5.2117827408E+02	1.1888230304E+03	1.0680798343E+03	0.000E+00	0.0
	1000022	2	5	5	0	0	-1.0891687778E+01	-2.7572506960E+01	-7.1469423111E+02	1.1277677126E+03	8.7189064541E+02	0.000E+00	0.0
	14	1	6	6	0	0	9.8436966215E+01	-2.8521484647E+02	-3.6764423063E+02	5.7604220789E+02	3.2500000000E+02	0.000E+00	0.0
	-14	1	6	6	0	0	-1.0932865399E+02	2.5764233951E+02	-3.4705000049E+02	5.5172550469E+02	3.2500000000E+02	0.000E+00	0.0
	25	2	5	5	0	0	1.0891687778E+01	2.7572506960E+01	4.1010051330E+01	1.3502479073E+02	1.2518385599E+02	0.000E+00	0.0
	-5	1	9	9	0	501	-4.3912519319E+00	2.4691312962E+01	-4.2745414002E+01	4.9735167110E+01	4.1800000000E+00	0.000E+00	0.0
	5	1	9	9	501	0	1.5282939710E+01	2.8811939979E+00	8.3755465332E+01	8.5289623624E+01	4.1800000000E+00	0.000E+00	0.0
</event>
<event>
    11  -1  1.0000000E+00  1.0000000E+00  -1.0000000E+00  -1.0000000E+00
	2212	-1	0	0	0	0	0.0000000000E+00	0.0000000000E+00	6.5000000000E+03	6.5000000000E+03	9.3827000000E-01	0.000E+00	0.0
	2212	-1	0	0	0	0	0.0000000000E+00	0.0000000000E+00	-6.5000000000E+03	6.5000000000E+03	9.3827000000E-01	0.000E+00	0.0
	2212	1	0	0	0	0	0.0000000000E+00	0.0000000000E+00	5.7210064724E+03	5.7210064724E+03	9.3827000000E-01	0.000E+00	0.0
	2212	1	0	0	0	0	0.0000000000E+00	0.0000000000E+00	-6.1450814203E+03	6.1450814203E+03	9.3827000000E-01	0.000E+00	0.0
	51	2	1	2	0	0	-1.0485797903E+02	1.3282419182E+02	7.2316449641E+02	1.2874476518E+03	1.0516259343E+03	0.000E+00	0.0
	1000022	2	5	5	0	0	1.0485797903E+02	-1.3282419182E+02	8.0272394021E+00	6.6764817786E+02	6.4579578128E+02	0.000E+00	0.0
	14	1	6	6	0	0	0.0000000000E+00	0.0000000000E+00	0.0000000000E+00	0.0000000000E+00	0.0000000000E+00	0.000E+00	0.0
	-14	1	6	6	0	0	0.0000000000E+00	0.0000000000E+00	0.0000000000E+00	0.0000000000E+00	0.0000000000E+00	0.000E+00	0.0
	25	2	5	5	0	0	-1.0485797903E+02	1.3282419182E+02	4.1604770843E+02	4.6626392943E+02	1.2517545487E+02	0.000E+00	0.0
	-5	1	9	9	0	501	-1.0905000747E+02	4.1740931770E+01	1.9834104703E+02	2.3019742147E+02	4.1800000000E+00	0.000E+00	0.0
	5	1	9	9	501	0	4.1920284434E+00	9.1083260049E+01	2.1770666140E+02	2.3606650796E+02	4.1800000000E+00	0.000E+00	0.0
</event>
<event>
    11  -1  1.0000000E+00  1.0000000E+00  -1.0000000E+00  -1.0000000E+00
	2212	-1	0	0	0	0	0.0000000000E+00	0.0000000000E+00	6.5000000000E+03	6.5000000000E+03	9.3827000000E-01	0.000E+00	0.0
	2212	-1	0	0	0	0	0.0000000000E+00	0.0000000000E+00	-6.5000000000E+03	6.5000000000E+03	9.3827000000E-01	0.000E+00	0.0
	2212	1	0	0	0	0	0.0000000000E+00	0.0000000000E+00	4.9745204916E+03	4.9745204916E+03	9.3827000000E-01	0.000E+00	0.0
	2212	1	0	0	0	0	0.0000000000E+00	0.0000000000E+00	-6.3164062371E+03	6.3164062371E+03	9.3827000000E-01	0.000E+00	0.0
	51	2	1	2	0	0	1.5321942021E+01	1.3892383263E+02	1.4254528785E+03	1.7809336299E+03	1.0584300130E+03	0.000E+00	0.0
	1000022	2	5	5	0	0	-1.5321942021E+01	-1.3892383263E+02	1.0268326149E+03	1.3423841370E+03	8.5327332019E+02	0.000E+00	0.0
	14	1	6	6	0	0	-1.8685798141E+02	-2.8317807232E+02	5.6396851802E+02	7.3402398815E+02	3.2500000000E+02	0.000E+00	0.0
	-14	1	6	6	0	0	1.7153603939E+02	1.4425423969E+02	4.6286409692E+02	6.0836014884E+02	3.2500000000E+02	0.000E+00	0.0
	25	2	5	5	0	0	1.5321942021E+01	1.3892383263E+02	3.1505313058E+02	3.6668913424E+02	1.2517129424E+02	0.000E+00	0.0
	-5	1	9	9	0	501	-4.1268109092E+01	9.9292372376E+00	1.0906689720E+02	1.1710980763E+02	4.1800000000E+00	0.000E+00	0.0
	5	1	9	9	501	0	5.6590051113E+01	1.2899459539E+02	2.0598623339E+02	2.4957932661E+02	4.1800000000E+00	0.000E+00	0.0
</event>
<event>
    11  -1  1.0000000E+00  1.0000000E+00  -1.0000000E+00  -1.0000000E+00
	2212	-1	0	0	0	0	0.0000000000E+00	0.0000000000E+00	6.5000000000E+03	6.5000000000E+03	9.3827000000E-01	0.000E+00	0.0
	2212	-1	0	0	0	0	0.0000000000E+00	0.0000000000E+00	-6.5000000000E+03	6.5000000000E+03	9.3827000000E-01	0.000E+00	0.0
	2212	1	0	0	0	0	0.0000000000E+00	0.0000000000E+00	4.9917433976E+03	4.9917433976E+03	9.3827000000E-01	0.000E+00	0.0
	2212	1	0	0	0	0	0.0000000000E+00	0.0000000000E+00	-6.3145060657E+03	6.3145060657E+03	9.3827000000E-01	0.000E+00	0.0
	51	2	1	2	0	0	-1.1482176019E+02	-6.6911762837E+01	1.2400672362E+03	1.6353952964E+03	1.0578704101E+03	0.000E+00	0.0
	1000022	2	5	5	0	0	1.1482176019E+02	6.6911762837E+01	1.1778515507E+03	1.4606636882E+03	8.5354725345E+02	0.000E+00	0.0
	14	1	6	6	0	0	1.4222292855E+02	-5.1562380514E+01	1.0167303714E+03	1.0780777748E+03	3.2500000000E+02	0.000E+00	0.0
	-14	1	6	6	0	0	-2.7401168362E+01	1.1847414335E+02	1.6112117932E+02	3.8258591335E+02	3.2500000000E+02	0.000E+00	0.0
	25	2	5	5	0	0	-1.1482176019E+02	-6.6911762837E+01	1.4491111741E+02	2.3308684854E+02	1.2517598170E+02	0.000E+00	0.0
	-5	1	9	9	0	501	1.4630635198E+01	-6.2107233727E+00	6.9441253690E+01	7.1359573185E+01	4.1800000000E+00	0.000E+00	0.0
	5	1	9	9	501	0	-1.2945239539E+02	-6.0701039465E+01	7.5469863721E+01	1.6172727535E+02	4.1800000000E+00	0.000E+00	0.0
</event>
<event>
    11  -1  1.0000000E+00  1.0000000E+00  -1.0000000E+00  -1.0000000E+00
	2212	-1	0	0	0	0	0.0000000000E+00	0.0000000000E+00	6.5000000000E+03	6.5000000000E+03	9.3827000000E-01	0.000E+00	0.0
	2212	-1	0	0	0	0	0.0000000000E+00	0.0000000000E+00	-6.5000000000E+03	6.5000000000E+03	9.3827000000E-01	0.000E+00	0.0
	2212	1	0	0	0	0	0.0000000000E+00	0.0000000000E+00	4.8447769449E+03	4.8447769449E+03	9.3827000000E-01	0.000E+00	0.0
	2212	1	0	0	0	0	0.0000000000E+00	0.0000000000E+00	-6.3326041863E+03	6.3326041863E+03	9.3827000000E-01	0.000E+00	0.0
	51	2	1	2	0	0	6.2919592993E+01	6.1976183266E+01	1.7174976061E+03	2.0164095790E+03	1.0527628605E+03	0.000E+00	0.0
	1000022	2	5	5	0	0	-6.2919592993E+01	-6.1976183266E+01	9.9527222135E+02	1.3067890671E+03	8.4221787491E+02	0.000E+00	0.0
	14	1	6	6	0	0	-3.3287550397E+01	-1.5938136247E+02	1.4592023354E+02	3.9169911191E+02	3.2500000000E+02	0.000E+00	0.0
	-14	1	6	6	0	0	-2.9632042596E+01	9.7405179203E+01	8.4935198781E+02	9.1508995519E+02	3.2500000000E+02	0.000E+00	0.0
	25	2	5	5	0	0	6.2919592993E+01	6.1976183266E+01	4.9255502007E+02	5.1582980169E+02	1.2517992665E+02	0.000E+00	0.0
	-5	1	9	9	0	501	7.6041418186E+01	9.2424273164E+01	3.8876063335E+02	4.0678845361E+02	4.1800000000E+00	0.000E+00	0.0
	5	1	9	9	501	0	-1.3121825193E+01	-3.0448089898E+01	1.0379438673E+02	1.0904134808E+02	4.1800000000E+00	0.000E+00	0.0
</event>
<event>
    11  -1  1.0000000E+00  1.0000000E+00  -1.0000000E+00  -1.0000000E+00
	2212	-1	0	0	0	0	0.0000000000E+00	0.0000000000E+00	6.5000000000E+03	6.5000000000E+03	9.3827000000E-01	0.000E+00	0.0
	2212	-1	0	0	0	0	0.0000000000E+00	0.0000000000E+00	-6.5000000000E+03	6.5000000000E+03	9.3827000000E-01	0.000E+00	0.0
	2212	1	0	0	0	0	0.0000000000E+00	0.0000000000E+00	5.3539793956E+03	5.3539793956E+03	9.3827000000E-01	0.000E+00	0.0
	2212	1	0	0	0	0	0.0000000000E+00	0.0000000000E+00	-6.2617705333E+03	6.2617705333E+03	9.3827000000E-01	0.000E+00	0.0
	51	2	1	2	0	0	-3.6207698085E+00	-3.4693308276E+01	1.0574977099E+03	1.4871387466E+03	1.0450184255E+03	0.000E+00	0.0
	1000022	2	5	5	0	0	3.6207698085E+00	3.4693308276E+01	6.1621008131E+02	1.0650233452E+03	8.6795341229E+02	0.000E+00	0.0
	14	1	6	6	0	0	2.3666945525E+01	-7.1934075869E+01	-2.8501777581E+01	3.3492086663E+02	3.2500000000E+02	0.000E+00	0.0
	-14	1	6	6	0	0	-2.0046175717E+01	1.0662738415E+02	6.4471185890E+02	7.3010247857E+02	3.2500000000E+02	0.000E+00	0.0
	25	2	5	5	0	0	-3.6207698085E+00	-3.4693308276E+01	2.9158105638E+02	3.1922672586E+02	1.2517769150E+02	0.000E+00	0.0
	-5	1	9	9	0	501	5.8323791976E+01	-3.3283787128E+01	1.3675030519E+02	1.5240601552E+02	4.1800000000E+00	0.000E+00	0.0
	5	1	9	9	501	0	-6.1944561784E+01	-1.4095211485E+00	1.5483075119E+02	1.6682071034E+02	4.1800000000E+00	0.000E+00	0.0
</event>
<event>
    11  -1  1.0000000E+00  1.0000000E+00  -1.0000000E+00  -1.0000000E+00
	2212	-1	0	0	0	0	0.0000000000E+00	0.0000000000E+00	6.5000000000E+03	6.5000000000E+03	9.3827000000E-01	0.000E+00	0.0
	2212	-1	0	0	0	0	0.0000000000E+00	0.0000000000E+00	-6.5000000000E+03	6.5000000000E+03	9.3827000000E-01	0.000E+00	0.0
	2212	1	0	0	0	0	0.0000000000E+00	0.0000000000E+00	6.2823836565E+03	6.2823836565E+03	9.3827000000E-01	0.000E+00	0.0
	2212	1	0	0	0	0	0.0000000000E+00	0.0000000000E+00	-5.2344592571E+03	5.2344592571E+03	9.3827000000E-01	0.000E+00	0.0
	51	2	1	2	0	0	4.0246702586E+01	-1.1657793347E+02	-9.5415049147E+02	1.4238057340E+03	1.0495758172E+03	0.000E+00	0.0
	1000022	2	5	5	0	0	-4.0246702586E+01	1.1657793347E+02	-9.6135684021E+02	1.2872660520E+03	8.4713440657E+02	0.000E+00	0.0
	14	1	6	6	0	0	2.5169098013E+02	5.8468826551E+01	-4.7836499899E+02	6.3342325929E+02	3.2500000000E+02	0.000E+00	0.0
	-14	1	6	6	0	0	-2.9193768272E+02	5.8109106918E+01	-4.8299184123E+02	6.5384279272E+02	3.2500000000E+02	0.000E+00	0.0
	25	2	5	5	0	0	4.0246702586E+01	-1.1657793347E+02	-8.6567559164E+01	1.9589103436E+02	1.2517644907E+02	0.000E+00	0.0
	-5	1	9	9	0	501	7.4531250764E+01	-3.2377397237E+01	-2.1952685699E+01	8.4276900760E+01	4.1800000000E+00	0.000E+00	0.0
	5	1	9	9	501	0	-3.4284548178E+01	-8.4200536231E+01	-6.4614873465E+01	1.1161413360E+02	4.1800000000E+00	0.000E+00	0.0
</event>
<event>
    11  -1  1.0000000E+00  1.0000000E+00  -1.0000000E+00  -1.0000000E+00
	2212	-1	0	0	0	0	0.0000000000E+00	0.0000000000E+00	6.5000000000E+03	6.5000000000E+03	9.3827000000E-01	0.000E+00	0.0
	2212	-1	0	0	0	0	0.0000000000E+00	0.0000000000E+00	-6.5000000000E+03	6.5000000000E+03	9.3827000000E-01	0.000E+00	0.0
	2212	1	0	0	0	0	0.0000000000E+00	0.0000000000E+00	5.3663994491E+03	5.3663994491E+03	9.3827000000E-01	0.000E+00	0.0
	2212	1	0	0	0	0	0.0000000000E+00	0.0000000000E+00	-6.2682348311E+03	6.2682348311E+03	9.3827000000E-01	0.000E+00	0.0
	51	2	1	2	0	0	-5.8910721348E+01	7.7036616792E+01	1.0105773619E+03	1.4427710181E+03	1.0251421817E+03	0.000E+00	0.0
	1000022	2	5	5	0	0	5.8910721348E+01	-7.7036616792E+01	6.4477097218E+02	1.0634024089E+03	8.4005354783E+02	0.000E+00	0.0
	14	1	6	6	0	0	-6.1581186424E+01	2.0030432052E+02	4.0048128040E+02	5.5670846885E+02	3.2500000000E+02	0.000E+00	0.0
	-14	1	6	6	0	0	1.2049190777E+02	-2.7734093731E+02	2.4428969178E+02	5.0669394003E+02	3.2500000000E+02	0.000E+00	0.0
	25	2	5	5	0	0	-5.8910721348E+01	7.7036616792E+01	2.5706440981E+02	3.0196331098E+02	1.2527815840E+02	0.000E+00	0.0
	-5	1	9	9	0	501	-2.1761026794E+01	-6.4972770259E+00	1.8238946694E+02	1.8384544309E+02	4.1800000000E+00	0.000E+00	0.0
	5	1	9	9	501	0	-3.7149694554E+01	8.3533893818E+01	7.4674942870E+01	1.1811786789E+02	4.1800000000E+00	0.000E+00	0.0
</event>
<event>
    11  -1  1.0000000E+00  1.0000000E+00  -1.0000000E+00  -1.0000000E+00
	2212	-1	0	0	0	0	0.0000000000E+00	0.0000000000E+00	6.5000000000E+03	6.5000000000E+03	9.3827000000E-01	0.000E+00	0.0
	2212	-1	0	0	0	0	0.0000000000E+00	0.0000000000E+00	-6.5000000000E+03	6.5000000000E+03	9.3827000000E-01	0.000E+00	0.0
	2212	1	0	0	0	0	0.0000000000E+00	0.0000000000E+00	5.4021974392E+03	5.4021974392E+03	9.3827000000E-01	0.000E+00	0.0
	2212	1	0	0	0	0	0.0000000000E+00	0.0000000000E+00	-6.2479943223E+03	6.2479943223E+03	9.3827000000E-01	0.000E+00	0.0
	51	2	1	2	0	0	4.8903617338E+01	-1.4403800004E+02	8.2969121551E+02	1.3483827111E+03	1.0519552810E+03	0.000E+00	0.0
	1000022	2	5	5	0	0	-4.8903617338E+01	1.4403800004E+02	7.1167229159E+02	1.1114811190E+03	8.4010375434E+02	0.000E+00	0.0
	14	1	6	6	0	0	1.3104782373E+02	-3.1246039771E+01	5.8318091963E+02	6.8108357206E+02	3.2500000000E+02	0.000E+00	0.0
	-14	1	6	6	0	0	-1.7995144107E+02	1.7528403981E+02	1.2849137196E+02	4.3039754695E+02	3.2500000000E+02	0.000E+00	0.0
	25	2	5	5	0	0	4.8903617338E+01	-1.4403800004E+02	1.3412459152E+02	2.3832711945E+02	1.2518746171E+02	0.000E+00	0.0
	-5	1	9	9	0	501	-2.2688128974E+00	-6.3028642205E+01	-1.1214347953E+01	6.4194947233E+01	4.1800000000E+00	0.000E+00	0.0
	5	1	9	9	501	0	5.1172430236E+01	-8.1009357833E+01	1.4533893947E+02	1.7413217221E+02	4.1800000000E+00	0.000E+00	0.0
</event>
<event>
    11  -1  1.0000000E+00  1.0000000E+00  -1.0000000E+00  -1.0000000E+00
	2212	-1	0	0	0	0	0.0000000000E+00	0.0000000000E+00	6.5000000000E+03	6.5000000000E+03	9.3827000000E-01	0.000E+00	0.0
	2212	-1	0	0	0	0	0.0000000000E+00	0.0000000000E+00	-6.5000000000E+03	6.5000000000E+03	9.3827000000E-01	0.000E+00	0.0
	2212	1	0	0	0	0	0.0000000000E+00	0.0000000000E+00	6.2691895786E+03	6.2691895786E+03	9.3827000000E-01	0.000E+00	0.0
	2212	1	0	0	0	0	0.0000000000E+00	0.0000000000E+00	-5.2899597707E+03	5.2899597707E+03	9.3827000000E-01	0.000E+00	0.0
	51	2	1	2	0	0	-1.0170194088E+02	7.3716196217E+01	-8.8139937605E+02	1.3819557892E+03	1.0569577006E+03	0.000E+00	0.0
	1000022	2	5	5	0	0	1.0170194088E+02	-7.3716196217E+01	-9.0687631423E+02	1.2493348141E+03	8.5007968218E+02	0.000E+00	0.0
	14	1	6	6	0	0	3.0088798255E+02	1.6763676669E+01	-6.2711416940E+02	7.6792693686E+02	3.2500000000E+02	0.000E+00	0.0
	-14	1	6	6	0	0	-1.9918604166E+02	-9.0479872886E+01	-2.7976214483E+02	4.8140787724E+02	3.2500000000E+02	0.000E+00	0.0
	25	2	5	5	0	0	-1.0170194088E+02	7.3716196217E+01	-7.2353493620E+01	1.9151583656E+02	1.2516359395E+02	0.000E+00	0.0
	-5	1	9	9	0	501	2.7085923634E+01	5.5693036228E+00	1.6983886705E+00	2.8018232029E+01	4.1800000000E+00	0.000E+00	0.0
	5	1	9	9	501	0	-1.2878786452E+02	6.8146892594E+01	-7.4051882290E+01	1.6349760453E+02	4.1800000000E+00	0.000E+00	0.0
</event>
<event>
    11  -1  1.0000000E+00  1.0000000E+00  -1.0000000E+00  -1.0000000E+00
	2212	-1	0	0	0	0	0.0000000000E+00	0.0000000000E+00	6.5000000000E+03	6.5000000000E+03	9.3827000000E-01	0.000E+00	0.0
	2212	-1	0	0	0	0	0.0000000000E+00	0.0000000000E+00	-6.5000000000E+03	6.5000000000E+03	9.3827000000E-01	0.000E+00	0.0
	2212	1	0	0	0	0	0.0000000000E+00	0.0000000000E+00	6.2843806455E+03	6.2843806455E+03	9.3827000000E-01	0.000E+00	0.0
	2212	1	0	0	0	0	0.0000000000E+00	0.0000000000E+00	-5.2040394256E+03	5.2040394256E+03	9.3827000000E-01	0.000E+00	0.0
	51	2	1	2	0	0	-1.0123729318E+02	-1.0719290914E+02	-1.1123479737E+03	1.5416854589E+03	1.0572306891E+03	0.000E+00	0.0
	1000022	2	5	5	0	0	1.0123729318E+02	1.0719290914E+02	-8.6065808729E+02	1.2188834304E+03	8.5041470145E+02	0.000E+00	0.0
	14	1	6	6	0	0	-5.1030553802E+00	2.2422914855E+02	-1.5152013187E+02	4.2295165515E+02	3.2500000000E+02	0.000E+00	0.0
	-14	1	6	6	0	0	1.0634034856E+02	-1.1703623941E+02	-7.0913795542E+02	7.9593177527E+02	3.2500000000E+02	0.000E+00	0.0
	25	2	5	5	0	0	-1.0123729318E+02	-1.0719290914E+02	-2.1968313261E+02	2.9269649848E+02	1.2518487196E+02	0.000E+00	0.0
	-5	1	9	9	0	501	-1.2482895209E+02	-5.6054544746E+01	-1.5835990197E+02	2.0933157960E+02	4.1800000000E+00	0.000E+00	0.0
	5	1	9	9	501	0	2.3591658908E+01	-5.1138364394E+01	-6.1323230643E+01	8.3364918877E+01	4.1800000000E+00	0.000E+00	0.0
</event>
<event>
    11  -1  1.0000000E+00  1.0000000E+00  -1.0000000E+00  -1.0000000E+00
	2212	-1	0	0	0	0	0.0000000000E+00	0.0000000000E+00	6.5000000000E+03	6.5000000000E+03	9.3827000000E-01	0.000E+00	0.0
	2212	-1	0	0	0	0	0.0000000000E+00	0.0000000000E+00	-6.5000000000E+03	6.5000000000E+03	9.3827000000E-01	0.000E+00	0.0
	2212	1	0	0	0	0	0.0000000000E+00	0.0000000000E+00	5.4125505693E+03	5.4125505693E+03	9.3827000000E-01	0.000E+00	0.0
	2212	1	0	0	0	0	0.0000000000E+00	0.0000000000E+00	-6.2482092388E+03	6.2482092388E+03	9.3827000000E-01	0.000E+00	0.0
	51	2	1	2	0	0	-1.0190031144E+02	-8.8920876435E+01	8.1847643920E+02	1.3354524166E+03	1.0465366118E+03	0.000E+00	0.0
	1000022	2	5	5	0	0	1.0190031144E+02	8.8920876435E+01	7.1199704127E+02	1.1173093061E+03	8.5038209233E+02	0.000E+00	0.0
	14	1	6	6	0	0	-1.3631851439E+02	2.3209020436E+02	4.4448622842E+02	6.1289608220E+02	3.2500000000E+02	0.000E+00	0.0
	-14	1	6	6	0	0	2.3821882583E+02	-1.4316932792E+02	2.6751081285E+02	5.0441322389E+02	3.2500000000E+02	0.000E+00	0.0
	25	2	5	5	0	0	-1.0190031144E+02	-8.8920876435E+01	1.2366162820E+02	2.2193088586E+02	1.2518196384E+02	0.000E+00	0.0
	-5	1	9	9	0	501	-1.2774029238E+02	-5.9885385819E+01	1.1458225718E+02	1.8179771119E+02	4.1800000000E+00	0.000E+00	0.0
	5	1	9	9	501	0	2.5839980945E+01	-2.9035490616E+01	9.0793710195E+00	4.0133174665E+01	4.1800000000E+00	0.000E+00	0.0
</event>
<event>
    11  -1  1.0000000E+00  1.0000000E+00  -1.0000000E+00  -1.0000000E+00
	2212	-1	0	0	0	0	0.0000000000E+00	0.0000000000E+00	6.5000000000E+03	6.5000000000E+03	9.3827000000E-01	0.000E+00	0.0
	2212	-1	0	0	0	0	0.0000000000E+00	0.0000000000E+00	-6.5000000000E+03	6.5000000000E+03	9.3827000000E-01	0.000E+00	0.0
	2212	1	0	0	0	0	0.0000000000E+00	0.0000000000E+00	6.2957284767E+03	6.2957284767E+03	9.3827000000E-01	0.000E+00	0.0
	2212	1	0	0	0	0	0.0000000000E+00	0.0000000000E+00	-5.1191572863E+03	5.1191572863E+03	9.3827000000E-01	0.000E+00	0.0
	51	2	1	2	0	0	6.8909743346E+01	-1.1984602503E+02	-1.3201604413E+03	1.7000595847E+03	1.0621993120E+03	0.000E+00	0.0
	1000022	2	5	5	0	0	-6.8909743346E+01	1.1984602503E+02	-8.1888178992E+02	1.1817263387E+03	8.4071287086E+02	0.000E+00	0.0
	14	1	6	6	0	0	-2.3013192832E+02	2.2435607845E+02	-3.2866705309E+02	5.6297725190E+02	3.2500000000E+02	0.000E+00	0.0
	-14	1	6	6	0	0	1.6122218497E+02	-1.0451005342E+02	-4.9021473683E+02	6.1874908679E+02	3.2500000000E+02	0.000E+00	0.0
	25	2	5	5	0	0	6.8909743346E+01	-1.1984602503E+02	-3.5768940044E+02	4.0338789834E+02	1.2517374684E+02	0.000E+00	0.0
	-5	1	9	9	0	501	-1.6809229583E+01	-8.6224864304E+01	-1.2266048294E+02	1.5093158681E+02	4.1800000000E+00	0.000E+00	0.0
	5	1	9	9	501	0	8.5718972928E+01	-3.3621160731E+01	-2.3502891750E+02	2.5245631153E+02	4.1800000000E+00	0.000E+00	0.0
</event>
<event>
    11  -1  1.0000000E+00  1.0000000E+00  -1.0000000E+00  -1.0000000E+00
	2212	-1	0	0	0	0	0.0000000000E+00	0.0000000000E+00	6.5000000000E+03	6.5000000000E+03	9.3827000000E-01	0.000E+00	0.0
	2212	-1	0	0	0	0	0.0000000000E+00	0.0000000000E+00	-6.5000000000E+03	6.5000000000E+03	9.3827000000E-01	0.000E+00	0.0
	2212	1	0	0	0	0	0.0000000000E+00	0.0000000000E+00	5.5654494756E+03	5.5654494756E+03	9.3827000000E-01	0.000E+00	0.0
	2212	1	0	0	0	0	0.0000000000E+00	0.0000000000E+00	-6.2106181972E+03	6.2106181972E+03	9.3827000000E-01	0.000E+00	0.0
	51	2	1	2	0	0	-1.2015336132E+02	-3.4600097450E+01	6.3997266246E+02	1.2275857069E+03	1.0400806037E+03	0.000E+00	0.0
	1000022	2	5	5	0	0	1.2015336132E+02	3.4600097450E+01	5.4515546905E+02	1.0206891758E+03	8.5380203272E+02	0.000E+00	0.0
	14	1	6	6	0	0	1.5775627716E+02	-2.3649789752E+02	3.3593577716E+02	5.4707965132E+02	3.2500000000E+02	0.000E+00	0.0
	-14	1	6	6	0	0	-3.7602915839E+01	2.7109799497E+02	2.0921969189E+02	4.7360952443E+02	3.2500000000E+02	0.000E+00	0.0
	25	2	5	5	0	0	-1.2015336132E+02	-3.4600097450E+01	1.0001325263E+02	2.0324315143E+02	1.2518438770E+02	0.000E+00	0.0
	-5	1	9	9	0	501	-1.9036476522E+01	7.1980101558E+00	9.1040321693E+01	9.3381001079E+01	4.1800000000E+00	0.000E+00	0.0
	5	1	9	9	501	0	-1.0111688480E+02	-4.1798107606E+01	8.9729309344E+00	1.0986215036E+02	4.1800000000E+00	0.000E+00	0.0
</event>
<event>
    11  -1  1.0000000E+00  1.0000000E+00  -1.0000000E+00  -1.0000000E+00
	2212	-1	0	0	0	0	0.0000000000E+00	0.0000000000E+00	6.5000000000E+03	6.5000000000E+03	9.3827000000E-01	0.000E+00	0.0
	2212	-1	0	0	0	0	0.0000000000E+00	0.0000000000E+00	-6.5000000000E+03	6.5000000000E+03	9.3827000000E-01	0.000E+00	0.0
	2212	1	0	0	0	0	0.0000000000E+00	0.0000000000E+00	5.0366791621E+03	5.0366791621E+03	9.3827000000E-01	0.000E+00	0.0
	2212	1	0	0	0	0	0.0000000000E+00	0.0000000000E+00	-6.3122108117E+03	6.3122108117E+03	9.3827000000E-01	0.000E+00	0.0
	51	2	1	2	0	0	3.4043941131E+01	1.3874938121E+02	1.2933575565E+03	1.6710378449E+03	1.0484194435E+03	0.000E+00	0.0
	1000022	2	5	5	0	0	-3.4043941131E+01	-1.3874938121E+02	1.0383303239E+03	1.3472120264E+03	8.4642778895E+02	0.000E+00	0.0
	14	1	6	6	0	0	-1.6332973382E+01	7.3665766441E+01	8.5438169798E+02	9.1721671213E+02	3.2500000000E+02	0.000E+00	0.0
	-14	1	6	6	0	0	-1.7710967749E+01	-2.1241514765E+02	1.8394862587E+02	4.2999531426E+02	3.2500000000E+02	0.000E+00	0.0
	25	2	5	5	0	0	3.4043941131E+01	1.3874938121E+02	2.3720132573E+02	3.0389799983E+02	1.2521639133E+02	0.000E+00	0.0
	-5	1	9	9	0	501	-4.5006039088E+00	1.6314233474E+01	-1.3611528304E+01	2.2116865785E+01	4.1800000000E+00	0.000E+00	0.0
	5	1	9	9	501	0	3.8544545040E+01	1.2243514773E+02	2.5081285404E+02	2.8178113404E+02	4.1800000000E+00	0.000E+00	0.0
</event>
<event>
    11  -1  1.0000000E+00  1.0000000E+00  -1.0000000E+00  -1.0000000E+00
	2212	-1	0	0	0	0	0.0000000000E+00	0.0000000000E+00	6.5000000000E+03	6.5000000000E+03	9.3827000000E-01	0.000E+00	0.0
	2212	-1	0	0	0	0	0.0000000000E+00	0.0000000000E+00	-6.5000000000E+03	6.5000000000E+03	9.3827000000E-01	0.000E+00	0.0
	2212	1	0	0	0	0	0.0000000000E+00	0.0000000000E+00	6.3127832353E+03	6.3127832353E+03	9.3827000000E-01	0.000E+00	0.0
	2212	1	0	0	0	0	0.0000000000E+00	0.0000000000E+00	-5.0254634559E+03	5.0254634559E+03	9.3827000000E-01	0.000E+00	0.0
	51	2	1	2	0	0	1.0481767890E+02	-9.6335768734E+01	-1.3132862804E+03	1.6879632772E+03	1.0508243643E+03	0.000E+00	0.0
	1000022	2	5	5	0	0	-1.0481767890E+02	9.6335768734E+01	-1.0406629804E+03	1.3506624282E+03	8.4914205529E+02	0.000E+00	0.0
	14	1	6	6	0	0	-2.9938144234E+02	-5.3336264067E+01	-4.4769046573E+02	6.3128896567E+02	3.2500000000E+02	0.000E+00	0.0
	-14	1	6	6	0	0	1.9456376343E+02	1.4967203280E+02	-5.9297251471E+02	7.1937346257E+02	3.2500000000E+02	0.000E+00	0.0
	25	2	5	5	0	0	1.0481767890E+02	-9.6335768734E+01	-2.4665679896E+02	3.1109088048E+02	1.2518240010E+02	0.000E+00	0.0
	-5	1	9	9	0	501	-4.8174249391E+00	-7.7826660216E+01	-9.4386065514E+01	1.2250060566E+02	4.1800000000E+00	0.000E+00	0.0
	5	1	9	9	501	0	1.0963510384E+02	-1.8509108518E+01	-1.5227073344E+02	1.8859027482E+02	4.1800000000E+00	0.000E+00	0.0
</event>
<event>
    11  -1  1.0000000E+00  1.0000000E+00  -1.0000000E+00  -1.0000000E+00
	2212	-1	0	0	0	0	0.0000000000E+00	0.0000000000E+00	6.5000000000E+03	6.5000000000E+03	9.3827000000E-01	0.000E+00	0.0
	2212	-1	0	0	0	0	0.0000000000E+00	0.0000000000E+00	-6.5000000000E+03	6.5000000000E+03	9.3827000000E-01	0.000E+00	0.0
	2212	1	0	0	0	0	0.0000000000E+00	0.0000000000E+00	6.0191758899E+03	6.0191758899E+03	9.3827000000E-01	0.000E+00	0.0
	2212	1	0	0	0	0	0.0000000000E+00	0.0000000000E+00	-5.9289113311E+03	5.9289113311E+03	9.3827000000E-01	0.000E+00	0.0
	51	2	1	2	0	0	2.9058451495E+01	1.3697030107E+01	-3.8928646403E+00	1.0485322888E+03	1.0480328258E+03	0.000E+00	0.0
	1000022	2	5	5	0	0	-2.9058451495E+01	-1.3697030107E+01	-1.6359484914E+02	9.0331313990E+02	8.8779465633E+02	0.000E+00	0.0
	14	1	6	6	0	0	1.9342194808E+02	-1.4635258863E+01	1.4257727764E+02	4.0444965187E+02	3.2500000000E+02	0.000E+00	0.0
	-14	1	6	6	0	0	-2.2248039957E+02	9.3822875599E-01	-3.0617212678E+02	4.9886348803E+02	3.2500000000E+02	0.000E+00	0.0
	25	2	5	5	0	0	2.9058451495E+01	1.3697030107E+01	7.3330290352E+01	1.4859963907E+02	1.2518993175E+02	0.000E+00	0.0
	-5	1	9	9	0	501	2.9966767825E+01	6.9524940608E+00	-3.1053620447E+01	4.3910637554E+01	4.1800000000E+00	0.000E+00	0.0
	5	1	9	9	501	0	-9.0831632968E-01	6.7445360459E+00	1.0438391080E+02	1.0468900152E+02	4.1800000000E+00	0.000E+00	0.0
</event>
<event>
    11  -1  1.0000000E+00  1.0000000E+00  -1.0000000E+00  -1.0000000E+00
	2212	-1	0	0	0	0	0.0000000000E+00	0.0000000000E+00	6.5000000000E+03	6.5000000000E+03	9.3827000000E-01	0.000E+00	0.0
	2212	-1	0	0	0	0	0.0000000000E+00	0.0000000000E+00	-6.5000000000E+03	6.5000000000E+03	9.3827000000E-01	0.000E+00	0.0
	2212	1	0	0	0	0	0.0000000000E+00	0.0000000000E+00	6.3256131612E+03	6.3256131612E+03	9.3827000000E-01	0.000E+00	0.0
	2212	1	0	0	0	0	0.0000000000E+00	0.0000000000E+00	-4.9074341260E+03	4.9074341260E+03	9.3827000000E-01	0.000E+00	0.0
	51	2	1	2	0	0	6.7397330923E+01	1.1943233322E+02	-1.5022507268E+03	1.8402320076E+03	1.0539877197E+03	0.000E+00	0.0
	1000022	2	5	5	0	0	-6.7397330923E+01	-1.1943233322E+02	-1.0909487408E+03	1.3907146644E+03	8.5153487316E+02	0.000E+00	0.0
	14	1	6	6	0	0	-2.4670095335E+02	9.6998196092E+01	-6.6133660125E+02	7.8310989688E+02	3.2500000000E+02	0.000E+00	0.0
	-14	1	6	6	0	0	1.7930362243E+02	-2.1643052932E+02	-4.2961213958E+02	6.0760476752E+02	3.2500000000E+02	0.000E+00	0.0
	25	2	5	5	0	0	6.7397330923E+01	1.1943233322E+02	-3.2723029436E+02	3.7623804836E+02	1.2517556092E+02	0.000E+00	0.0
	-5	1	9	9	0	501	3.5955366064E+01	1.3707028478E+02	-2.0887000385E+02	2.5243851178E+02	4.1800000000E+00	0.000E+00	0.0
	5	1	9	9	501	0	3.1441964859E+01	-1.7637951554E+01	-1.1836029051E+02	1.2379953658E+02	4.1800000000E+00	0.000E+00	0.0
</event>
<event>
    11  -1  1.0000000E+00  1.0000000E+00  -1.0000000E+00  -1.0000000E+00
	2212	-1	0	0	0	0	0.0000000000E+00	0.0000000000E+00	6.5000000000E+03	6.5000000000E+03	9.3827000000E-01	0.000E+00	0.0
	2212	-1	0	0	0	0	0.0000000000E+00	0.0000000000E+00	-6.5000000000E+03	6.5000000000E+03	9.3827000000E-01	0.000E+00	0.0
	2212	1	0	0	0	0	0.0000000000E+00	0.0000000000E+00	5.0410930177E+03	5.0410930177E+03	9.3827000000E-01	0.000E+00	0.0
	2212	1	0	0	0	0	0.0000000000E+00	0.0000000000E+00	-6.3111708423E+03	6.3111708423E+03	9.3827000000E-01	0.000E+00	0.0
	51	2	1	2	0	0	9.1739729720E+01	-1.2590825955E+02	1.2062738498E+03	1.6066432010E+03	1.0497317308E+03	0.000E+00	0.0
	1000022	2	5	5	0	0	-9.1739729720E+01	1.2590825955E+02	1.0998639855E+03	1.3852259440E+03	8.2757541138E+02	0.000E+00	0.0
	14	1	6	6	0	0	-6.9787158819E+01	2.4486139500E+02	8.8686634564E+02	9.7825572594E+02	3.2500000000E+02	0.000E+00	0.0
	-14	1	6	6	0	0	-2.1952570901E+01	-1.1895313545E+02	2.1299763982E+02	4.0697021804E+02	3.2500000000E+02	0.000E+00	0.0
	25	2	5	5	0	0	9.1739729720E+01	-1.2590825955E+02	1.7021383913E+02	2.6251019606E+02	1.2517900851E+02	0.000E+00	0.0
	-5	1	9	9	0	501	-2.5463545027E+01	-4.8604434268E+01	7.4150456730E+01	9.2339297101E+01	4.1800000000E+00	0.000E+00	0.0
	5	1	9	9	501	0	1.1720327475E+02	-7.7303825279E+01	9.6063382401E+01	1.7017089896E+02	4.1800000000E+00	0.000E+00	0.0
</event>
<event>
    11  -1  1.0000000E+00  1.0000000E+00  -1.0000000E+00  -1.0000000E+00
	2212	-1	0	0	0	0	0.0000000000E+00	0.0000000000E+00	6.5000000000E+03	6.5000000000E+03	9.3827000000E-01	0.000E+00	0.0
	2212	-1	0	0	0	0	0.0000000000E+00	0.0000000000E+00	-6.5000000000E+03	6.5000000000E+03	9.3827000000E-01	0.000E+00	0.0
	2212	1	0	0	0	0	0.0000000000E+00	0.0000000000E+00	6.3024990128E+03	6.3024990128E+03	9.3827000000E-01	0.000E+00	0.0
	2212	1	0	0	0	0	0.0000000000E+00	0.0000000000E+00	-5.1304062175E+03	5.1304062175E+03	9.3827000000E-01	0.000E+00	0.0
	51	2	1	2	0	0	-1.3006783689E+02	-3.6885030289E+01	-1.1915643533E+03	1.5874785831E+03	1.0401848375E+03	0.000E+00	0.0
	1000022	2	5	5	0	0	1.3006783689E+02	3.6885030289E+01	-9.5476579267E+02	1.2821770952E+03	8.4505753466E+02	0.000E+00	0.0
	14	1	6	6	0	0	2.6079061204E+02	-9.6672694038E+01	-7.2699764862E+02	8.4350929705E+02	3.2500000000E+02	0.000E+00	0.0
	-14	1	6	6	0	0	-1.3072277515E+02	1.3355772433E+02	-2.2776814404E+02	4.3866779813E+02	3.2500000000E+02	0.000E+00	0.0
	25	2	5	5	0	0	-1.3006783689E+02	-3.6885030289E+01	-2.1732700270E+02	2.8491767451E+02	1.2517550675E+02	0.000E+00	0.0
	-5	1	9	9	0	501	-2.2583100409E+01	-3.9621918418E+01	-3.9766281136E+00	4.5969324711E+01	4.1800000000E+00	0.000E+00	0.0
	5	1	9	9	501	0	-1.0748473648E+02	2.7368881287E+00	-2.1335037459E+02	2.3894834980E+02	4.1800000000E+00	0.000E+00	0.0
</event>
<event>
    11  -1  1.0000000E+00  1.0000000E+00  -1.0000000E+00  -1.0000000E+00
	2212	-1	0	0	0	0	0.0000000000E+00	0.0000000000E+00	6.5000000000E+03	6.5000000000E+03	9.3827000000E-01	0.000E+00	0.0
	2212	-1	0	0	0	0	0.0000000000E+00	0.0000000000E+00	-6.5000000000E+03	6.5000000000E+03	9.3827000000E-01	0.000E+00	0.0
	2212	1	0	0	0	0	0.0000000000E+00	0.0000000000E+00	6.0178350343E+03	6.0178350343E+03	9.3827000000E-01	0.000E+00	0.0
	2212	1	0	0	0	0	0.0000000000E+00	0.0000000000E+00	-5.9268187418E+03	5.9268187418E+03	9.3827000000E-01	0.000E+00	0.0
	51	2	1	2	0	0	9.6592015407E+00	1.6794402061E+01	4.7335304982E+01	1.0526574324E+03	1.0514141367E+03	0.000E+00	0.0
	1000022	2	5	5	0	0	-9.6592015407E+00	-1.6794402061E+01	-2.1391482488E+02	8.7885463359E+02	8.5220335752E+02	0.000E+00	0.0
	14	1	6	6	0	0	-1.3074884434E+01	-2.1374011474E+02	8.1330784686E+01	3.9761223043E+02	3.2500000000E+02	0.000E+00	0.0
	-14	1	6	6	0	0	3.4156828934E+00	1.9694571268E+02	-2.9524560957E+02	4.8124240316E+02	3.2500000000E+02	0.000E+00	0.0
	25	2	5	5	0	0	9.6592015407E+00	1.6794402061E+01	1.2289853231E+02	1.7649159030E+02	1.2517939163E+02	0.000E+00	0.0
	-5	1	9	9	0	501	3.2290969813E+01	-1.7643209354E+01	1.2937257680E+02	1.3456866499E+02	4.1800000000E+00	0.000E+00	0.0
	5	1	9	9	501	0	-2.2631768272E+01	3.4437611415E+01	-6.4740444915E+00	4.1922925317E+01	4.1800000000E+00	0.000E+00	0.0
</event>
<event>
    11  -1  1.0000000E+00  1.0000000E+00  -1.0000000E+00  -1.0000000E+00
	2212	-1	0	0	0	0	0.0000000000E+00	0.0000000000E+00	6.5000000000E+03	6.5000000000E+03	9.3827000000E-01	0.000E+00	0.0
	2212	-1	0	0	0	0	0.0000000000E+00	0.0000000000E+00	-6.5000000000E+03	6.5000000000E+03	9.3827000000E-01	0.000E+00	0.0
	2212	1	0	0	0	0	0.0000000000E+00	0.0000000000E+00	6.2000623869E+03	6.2000623869E+03	9.3827000000E-01	0.000E+00	0.0
	2212	1	0	0	0	0	0.0000000000E+00	0.0000000000E+00	-5.5738890695E+03	5.5738890695E+03	9.3827000000E-01	0.000E+00	0.0
	51	2	1	2	0	0	-6.3068788288E+01	-4.4561738270E+01	-7.3892292331E+02	1.2896016884E+03	1.0540882352E+03	0.000E+00	0.0
	1000022	2	5	5	0	0	6.3068788288E+01	4.4561738270E+01	-4.1394124109E+02	9.6770853273E+02	8.7129158877E+02	0.000E+00	0.0
	14	1	6	6	0	0	2.9662700280E+02	-4.0017643006E+01	-3.2658160088E+02	5.4942654885E+02	3.2500000000E+02	0.000E+00	0.0
	-14	1	6	6	0	0	-2.3355821452E+02	8.4579381276E+01	-8.7359640211E+01	4.1828198388E+02	3.2500000000E+02	0.000E+00	0.0
	25	2	5	5	0	0	-6.3068788288E+01	-4.4561738270E+01	-2.1223207634E+02	2.5834001081E+02	1.2543399214E+02	0.000E+00	0.0
	-5	1	9	9	0	501	-9.9342783076E+01	-4.8186850013E+01	-1.6363812806E+02	1.9744839938E+02	4.1800000000E+00	0.000E+00	0.0
	5	1	9	9	501	0	3.6273994788E+01	3.6251117432E+00	-4.8593948286E+01	6.0891611434E+01	4.1800000000E+00	0.000E+00	0.0
</event>
<event>
    11  -1  1.0000000E+00  1.0000000E+00  -1.0000000E+00  -1.0000000E+00
	2212	-1	0	0	0	0	0.0000000000E+00	0.0000000000E+00	6.5000000000E+03	6.5000000000E+03	9.3827000000E-01	0.000E+00	0.0
	2212	-1	0	0	0	0	0.0000000000E+00	0.0000000000E+00	-6.5000000000E+03	6.5000000000E+03	9.3827000000E-01	0.000E+00	0.0
	2212	1	0	0	0	0	0.0000000000E+00	0.0000000000E+00	5.8424716903E+03	5.8424716903E+03	9.3827000000E-01	0.000E+00	0.0
	2212	1	0	0	0	0	0.0000000000E+00	0.0000000000E+00	-6.0820855809E+03	6.0820855809E+03	9.3827000000E-01	0.000E+00	0.0
	51	2	1	2	0	0	1.0323931657E+02	-4.6444732240E+01	1.5821589913E+02	1.0663067038E+03	1.0484093887E+03	0.000E+00	0.0
	1000022	2	5	5	0	0	-1.0323931657E+02	4.6444732240E+01	2.8029562314E+02	9.0183473753E+02	8.4966157253E+02	0.000E+00	0.0
	14	1	6	6	0	0	1.3447383178E+02	1.3304403815E+02	-4.2651075112E+01	3.7845480804E+02	3.2500000000E+02	0.000E+00	0.0
	-14	1	6	6	0	0	-2.3771314835E+02	-8.6599305910E+01	3.2294669825E+02	5.2337992949E+02	3.2500000000E+02	0.000E+00	0.0
	25	2	5	5	0	0	1.0323931657E+02	-4.6444732240E+01	-4.0681732493E+01	1.7360799124E+02	1.2517692130E+02	0.000E+00	0.0
	-5	1	9	9	0	501	3.8914159220E+00	3.7459114817E+01	-1.6247277246E+01	4.1228325441E+01	4.1800000000E+00	0.000E+00	0.0
	5	1	9	9	501	0	9.9347900652E+01	-8.3903847057E+01	-2.4434455247E+01	1.3237966580E+02	4.1800000000E+00	0.000E+00	0.0
</event>
<event>
    11  -1  1.0000000E+00  1.0000000E+00  -1.0000000E+00  -1.0000000E+00
	2212	-1	0	0	0	0	0.0000000000E+00	0.0000000000E+00	6.5000000000E+03	6.5000000000E+03	9.3827000000E-01	0.000E+00	0.0
	2212	-1	0	0	0	0	0.0000000000E+00	0.0000000000E+00	-6.5000000000E+03	6.5000000000E+03	9.3827000000E-01	0.000E+00	0.0
	2212	1	0	0	0	0	0.0000000000E+00	0.0000000000E+00	6.2511440226E+03	6.2511440226E+03	9.3827000000E-01	0.000E+00	0.0
	2212	1	0	0	0	0	0.0000000000E+00	0.0000000000E+00	-5.3977244803E+03	5.3977244803E+03	9.3827000000E-01	0.000E+00	0.0
	51	2	1	2	0	0	-3.1523958827E+01	1.2750627899E+02	-8.0175219536E+02	1.3256280025E+03	1.0474881417E+03	0.000E+00	0.0
	1000022	2	5	5	0	0	3.1523958827E+01	-1.2750627899E+02	-7.6010203279E+02	1.1470953613E+03	8.4901181181E+02	0.000E+00	0.0
	14	1	6	6	0	0	-2.2382422370E+02	6.5105948176E+01	-3.0623234025E+02	5.0372543495E+02	3.2500000000E+02	0.000E+00	0.0
	-14	1	6	6	0	0	2.5534818252E+02	-1.9261222716E+02	-4.5386969254E+02	6.4336992639E+02	3.2500000000E+02	0.000E+00	0.0
	25	2	5	5	0	0	-3.1523958827E+01	1.2750627899E+02	-9.3317509518E+01	2.0403613568E+02	1.2518376860E+02	0.000E+00	0.0
	-5	1	9	9	0	501	3.0250272800E+01	-6.7811089955E+00	-4.6741088872E+00	3.1628818150E+01	4.1800000000E+00	0.000E+00	0.0
	5	1	9	9	501	0	-6.1774231627E+01	1.3428738798E+02	-8.8643400630E+01	1.7240731753E+02	4.1800000000E+00	0.000E+00	0.0
</event>
<event>
    11  -1  1.0000000E+00  1.0000000E+00  -1.0000000E+00  -1.0000000E+00
	2212	-1	0	0	0	0	0.0000000000E+00	0.0000000000E+00	6.5000000000E+03	6.5000000000E+03	9.3827000000E-01	0.000E+00	0.0
	2212	-1	0	0	0	0	0.0000000000E+00	0.0000000000E+00	-6.5000000000E+03	6.5000000000E+03	9.3827000000E-01	0.000E+00	0.0
	2212	1	0	0	0	0	0.0000000000E+00	0.0000000000E+00	5.1902323568E+03	5.1902323568E+03	9.3827000000E-01	0.000E+00	0.0
	2212	1	0	0	0	0	0.0000000000E+00	0.0000000000E+00	-6.2831159437E+03	6.2831159437E+03	9.3827000000E-01	0.000E+00	0.0
	51	2	1	2	0	0	-2.0475671477E+01	-1.2438467580E+02	1.2360907123E+03	1.6370955766E+03	1.0659600730E+03	0.000E+00	0.0
	1000022	2	5	5	0	0	2.0475671477E+01	1.2438467580E+02	7.5626956002E+02	1.1460372587E+03	8.5180217789E+02	0.000E+00	0.0
	14	1	6	6	0	0	5.1468413243E+01	-2.1211571033E+02	3.6782467754E+02	5.3717973299E+02	3.2500000000E+02	0.000E+00	0.0
	-14	1	6	6	0	0	-3.0992741767E+01	3.3650038613E+02	3.8844488247E+02	6.0885752572E+02	3.2500000000E+02	0.000E+00	0.0
	25	2	5	5	0	0	-2.0475671477E+01	-1.2438467580E+02	3.3661402686E+02	3.8061444085E+02	1.2517007951E+02	0.000E+00	0.0
	-5	1	9	9	0	501	5.8836908978E+00	-8.2914776089E+01	3.1665982144E+02	3.2741471077E+02	4.1800000000E+00	0.000E+00	0.0
	5	1	9	9	501	0	-2.6359362375E+01	-4.1469899712E+01	1.9954205426E+01	5.3199730085E+01	4.1800000000E+00	0.000E+00	0.0
</event>
<event>
    11  -1  1.0000000E+00  1.0000000E+00  -1.0000000E+00  -1.0000000E+00
	2212	-1	0	0	0	0	0.0000000000E+00	0.0000000000E+00	6.5000000000E+03	6.5000000000E+03	9.3827000000E-01	0.000E+00	0.0
	2212	-1	0	0	0	0	0.0000000000E+00	0.0000000000E+00	-6.5000000000E+03	6.5000000000E+03	9.3827000000E-01	0.000E+00	0.0
	2212	1	0	0	0	0	0.0000000000E+00	0.0000000000E+00	4.8961623209E+03	4.8961623209E+03	9.3827000000E-01	0.000E+00	0.0
	2212	1	0	0	0	0	0.0000000000E+00	0.0000000000E+00	-6.3364633220E+03	6.3364633220E+03	9.3827000000E-01	0.000E+00	0.0
	51	2	1	2	0	0	-3.7110009721E+01	1.1323787228E+02	1.4927976126E+03	1.8143290289E+03	1.0242778648E+03	0.000E+00	0.0
	1000022	2	5	5	0	0	3.7110009721E+01	-1.1323787228E+02	1.1524653351E+03	1.4316382363E+03	8.4095881139E+02	0.000E+00	0.0
	14	1	6	6	0	0	-1.5225997895E+02	-2.3815944350E+02	4.3619328595E+02	6.1301925290E+02	3.2500000000E+02	0.000E+00	0.0
	-14	1	6	6	0	0	1.8936998867E+02	1.2492157122E+02	7.1627204920E+02	8.1861898343E+02	3.2500000000E+02	0.000E+00	0.0
	25	2	5	5	0	0	-3.7110009721E+01	1.1323787228E+02	2.8783566592E+02	3.3573612074E+02	1.2517748859E+02	0.000E+00	0.0
	-5	1	9	9	0	501	-1.2211917981E+01	3.9499913733E+01	4.4093860465E+00	4.1788625378E+01	4.1800000000E+00	0.000E+00	0.0
	5	1	9	9	501	0	-2.4898091740E+01	7.3737958547E+01	2.8342627988E+02	2.9394749536E+02	4.1800000000E+00	0.000E+00	0.0
</event>
<event>
    11  -1  1.0000000E+00  1.0000000E+00  -1.0000000E+00  -1.0000000E+00
	2212	-1	0	0	0	0	0.0000000000E+00	0.0000000000E+00	6.5000000000E+03	6.5000000000E+03	9.3827000000E-01	0.000E+00	0.0
	2212	-1	0	0	0	0	0.0000000000E+00	0.0000000000E+00	-6.5000000000E+03	6.5000000000E+03	9.3827000000E-01	0.000E+00	0.0
	2212	1	0	0	0	0	0.0000000000E+00	0.0000000000E+00	5.9910587250E+03	5.9910587250E+03	9.3827000000E-01	0.000E+00	0.0
	2212	1	0	0	0	0	0.0000000000E+00	0.0000000000E+00	-5.8612204968E+03	5.8612204968E+03	9.3827000000E-01	0.000E+00	0.0
	51	2	1	2	0	0	-1.3217099622E+02	1.9656800834E+02	-1.0615171395E+02	1.1695218509E+03	1.1403530239E+03	0.000E+00	0.0
	1000022	2	5	5	0	0	1.3217099622E+02	-1.9656800834E+02	-1.2567909901E+02	8.7977475994E+02	8.3791421885E+02	0.000E+00	0.0
	14	1	6	6	0	0	1.3624114561E+02	2.8330417873E+00	1.7565768179E+02	3.9376426584E+02	3.2500000000E+02	0.000E+00	0.0
	-14	1	6	6	0	0	-4.0701493845E+00	-1.9940105013E+02	-3.0133678080E+02	4.8601049410E+02	3.2500000000E+02	0.000E+00	0.0
	25	2	5	5	0	0	-1.3217099622E+02	1.9656800834E+02	-4.1591292127E+00	2.6794601825E+02	1.2517833757E+02	0.000E+00	0.0
	-5	1	9	9	0	501	-1.3618459591E+01	1.3152281118E+02	4.6200060338E+00	1.3237269037E+02	4.1800000000E+00	0.000E+00	0.0
	5	1	9	9	501	0	-1.1855253663E+02	6.5045197165E+01	-8.7791352465E+00	1.3557332788E+02	4.1800000000E+00	0.000E+00	0.0
</event>
<event>
    11  -1  1.0000000E+00  1.0000000E+00  -1.0000000E+00  -1.0000000E+00
	2212	-1	0	0	0	0	0.0000000000E+00	0.0000000000E+00	6.5000000000E+03	6.5000000000E+03	9.3827000000E-01	0.000E+00	0.0
	2212	-1	0	0	0	0	0.0000000000E+00	0.0000000000E+00	-6.5000000000E+03	6.5000000000E+03	9.3827000000E-01	0.000E+00	0.0
	2212	1	0	0	0	0	0.0000000000E+00	0.0000000000E+00	5.0637252340E+03	5.0637252340E+03	9.3827000000E-01	0.000E+00	0.0
	2212	1	0	0	0	0	0.0000000000E+00	0.0000000000E+00	-6.2897933731E+03	6.2897933731E+03	9.3827000000E-01	0.000E+00	0.0
	51	2	1	2	0	0	5.4059329114E+01	1.2501454927E+02	1.0363077262E+03	1.5166221175E+03	1.0989348913E+03	0.000E+00	0.0
	1000022	2	5	5	0	0	-5.4059329114E+01	-1.2501454927E+02	1.1765308511E+03	1.4549888613E+03	8.4511342096E+02	0.000E+00	0.0
	14	1	6	6	0	0	2.3828617800E+02	-9.1094128532E+01	4.9732116066E+02	6.4655377171E+02	3.2500000000E+02	0.000E+00	0.0
	-14	1	6	6	0	0	-2.9234550711E+02	-3.3920420742E+01	6.7920969040E+02	8.0843508955E+02	3.2500000000E+02	0.000E+00	0.0
	25	2	5	5	0	0	5.4059329114E+01	1.2501454927E+02	4.9537288015E+01	1.9149253157E+02	1.2515749339E+02	0.000E+00	0.0
	-5	1	9	9	0	501	5.3343321196E+01	1.4805209185E+02	2.8449811100E+01	1.5997436034E+02	4.1800000000E+00	0.000E+00	0.0
	5	1	9	9	501	0	7.1600791829E-01	-2.3037542572E+01	2.1087476915E+01	3.1518171230E+01	4.1800000000E+00	0.000E+00	0.0
</event>
<event>
    11  -1  1.0000000E+00  1.0000000E+00  -1.0000000E+00  -1.0000000E+00
	2212	-1	0	0	0	0	0.0000000000E+00	0.0000000000E+00	6.5000000000E+03	6.5000000000E+03	9.3827000000E-01	0.000E+00	0.0
	2212	-1	0	0	0	0	0.0000000000E+00	0.0000000000E+00	-6.5000000000E+03	6.5000000000E+03	9.3827000000E-01	0.000E+00	0.0
	2212	1	0	0	0	0	0.0000000000E+00	0.0000000000E+00	6.3272106104E+03	6.3272106104E+03	9.3827000000E-01	0.000E+00	0.0
	2212	1	0	0	0	0	0.0000000000E+00	0.0000000000E+00	-4.9194848590E+03	4.9194848590E+03	9.3827000000E-01	0.000E+00	0.0
	51	2	1	2	0	0	-1.2902479014E+01	9.2657557242E+01	-1.2455365079E+03	1.6286491565E+03	1.0451722278E+03	0.000E+00	0.0
	1000022	2	5	5	0	0	1.2902479014E+01	-9.2657557242E+01	-1.3295244101E+03	1.5785564867E+03	8.4584486033E+02	0.000E+00	0.0
	14	1	6	6	0	0	7.7946233491E+01	1.9005051858E+02	-8.3659556140E+02	9.2071273929E+02	3.2500000000E+02	0.000E+00	0.0
	-14	1	6	6	0	0	-6.5043754477E+01	-2.8270807582E+02	-4.9292884875E+02	6.5784374745E+02	3.2500000000E+02	0.000E+00	0.0
	25	2	5	5	0	0	-1.2902479014E+01	9.2657557242E+01	-7.8201341252E+01	1.7474804384E+02	1.2517800196E+02	0.000E+00	0.0
	-5	1	9	9	0	501	1.8163783375E+01	8.7971026877E+01	-1.0135587559E+02	1.3549653322E+02	4.1800000000E+00	0.000E+00	0.0
	5	1	9	9	501	0	-3.1066262389E+01	4.6865303649E+00	2.3154534342E+01	3.9251510624E+01	4.1800000000E+00	0.000E+00	0.0
</event>
<event>
    11  -1  1.0000000E+00  1.0000000E+00  -1.0000000E+00  -1.0000000E+00
	2212	-1	0	0	0	0	0.0000000000E+00	0.0000000000E+00	6.5000000000E+03	6.5000000000E+03	9.3827000000E-01	0.000E+00	0.0
	2212	-1	0	0	0	0	0.0000000000E+00	0.0000000000E+00	-6.5000000000E+03	6.5000000000E+03	9.3827000000E-01	0.000E+00	0.0
	2212	1	0	0	0	0	0.0000000000E+00	0.0000000000E+00	6.2675044318E+03	6.2675044318E+03	9.3827000000E-01	0.000E+00	0.0
	2212	1	0	0	0	0	0.0000000000E+00	0.0000000000E+00	-5.3095500847E+03	5.3095500847E+03	9.3827000000E-01	0.000E+00	0.0
	51	2	1	2	0	0	8.4301781067E-03	1.4429529783E+02	-9.3394567964E+02	1.4142747199E+03	1.0521869215E+03	0.000E+00	0.0
	1000022	2	5	5	0	0	-8.4301781067E-03	-1.4429529783E+02	-8.1582073071E+02	1.1848284818E+03	8.4701471870E+02	0.000E+00	0.0
	14	1	6	6	0	0	1.9066683731E+02	-2.3803876019E+02	-2.9215913084E+02	5.3291486368E+02	3.2500000000E+02	0.000E+00	0.0
	-14	1	6	6	0	0	-1.9067526749E+02	9.3743462364E+01	-5.2366159987E+02	6.5191361816E+02	3.2500000000E+02	0.000E+00	0.0
	25	2	5	5	0	0	8.4301781067E-03	1.4429529783E+02	-1.4213361643E+02	2.3811700164E+02	1.2520626385E+02	0.000E+00	0.0
	-5	1	9	9	0	501	-2.8274358279E+01	1.0803252990E+02	-1.5415634421E+02	1.9039988895E+02	4.1800000000E+00	0.000E+00	0.0
	5	1	9	9	501	0	2.8282788457E+01	3.6262767925E+01	1.2022727778E+01	4.7717112693E+01	4.1800000000E+00	0.000E+00	0.0
</event>
<event>
    11  -1  1.0000000E+00  1.0000000E+00  -1.0000000E+00  -1.0000000E+00
	2212	-1	0	0	0	0	0.0000000000E+00	0.0000000000E+00	6.5000000000E+03	6.5000000000E+03	9.3827000000E-01	0.000E+00	0.0
	2212	-1	0	0	0	0	0.0000000000E+00	0.0000000000E+00	-6.5000000000E+03	6.5000000000E+03	9.3827000000E-01	0.000E+00	0.0
	2212	1	0	0	0	0	0.0000000000E+00	0.0000000000E+00	5.6850298188E+03	5.6850298188E+03	9.3827000000E-01	0.000E+00	0.0
	2212	1	0	0	0	0	0.0000000000E+00	0.0000000000E+00	-6.1689064047E+03	6.1689064047E+03	9.3827000000E-01	0.000E+00	0.0
	51	2	1	2	0	0	-5.6070082291E+01	-7.4662475880E+01	3.9775608641E+02	1.1163574128E+03	1.0389059771E+03	0.000E+00	0.0
	1000022	2	5	5	0	0	5.6070082291E+01	7.4662475880E+01	4.9144153430E+02	9.8971097904E+02	8.5398752974E+02	0.000E+00	0.0
	14	1	6	6	0	0	-1.9868391512E+02	-4.2786950002E+01	3.9353682792E+02	5.4936532121E+02	3.2500000000E+02	0.000E+00	0.0
	-14	1	6	6	0	0	2.5475399741E+02	1.1744942588E+02	9.7904706379E+01	4.4034565783E+02	3.2500000000E+02	0.000E+00	0.0
	25	2	5	5	0	0	-5.6070082291E+01	-7.4662475880E+01	-7.5649483399E+00	1.5635279744E+02	1.2518238451E+02	0.000E+00	0.0
	-5	1	9	9	0	501	-7.6416831877E+00	-6.7181284559E+01	4.7337277248E+01	8.2643877778E+01	4.1800000000E+00	0.000E+00	0.0
	5	1	9	9	501	0	-4.8428399104E+01	-7.4811913206E+00	-5.4902225588E+01	7.3708919662E+01	4.1800000000E+00	0.000E+00	0.0
</event>
<event>
    11  -1  1.0000000E+00  1.0000000E+00  -1.0000000E+00  -1.0000000E+00
	2212	-1	0	0	0	0	0.0000000000E+00	0.0000000000E+00	6.5000000000E+03	6.5000000000E+03	9.3827000000E-01	0.000E+00	0.0
	2212	-1	0	0	0	0	0.0000000000E+00	0.0000000000E+00	-6.5000000000E+03	6.5000000000E+03	9.3827000000E-01	0.000E+00	0.0
	2212	1	0	0	0	0	0.0000000000E+00	0.0000000000E+00	5.0289493349E+03	5.0289493349E+03	9.3827000000E-01	0.000E+00	0.0
	2212	1	0	0	0	0	0.0000000000E+00	0.0000000000E+00	-6.3114829806E+03	6.3114829806E+03	9.3827000000E-01	0.000E+00	0.0
	51	2	1	2	0	0	-8.9077509578E+01	-9.9185844140E+01	1.3748168241E+03	1.7369992175E+03	1.0532199900E+03	0.000E+00	0.0
	1000022	2	5	5	0	0	8.9077509578E+01	9.9185844140E+01	9.7075457587E+02	1.2981137485E+03	8.5144713459E+02	0.000E+00	0.0
	14	1	6	6	0	0	7.2917844121E+01	2.0484458781E+02	1.6818346022E+02	4.2566300454E+02	3.2500000000E+02	0.000E+00	0.0
	-14	1	6	6	0	0	1.6159665457E+01	-1.0565874367E+02	8.0257111565E+02	8.7245074393E+02	3.2500000000E+02	0.000E+00	0.0
	25	2	5	5	0	0	-8.9077509578E+01	-9.9185844140E+01	3.1177906976E+02	3.6145393605E+02	1.2518037051E+02	0.000E+00	0.0
	-5	1	9	9	0	501	1.5113073492E+01	-4.7547802755E+00	-3.0107089035E+00	1.6659822746E+01	4.1800000000E+00	0.000E+00	0.0
	5	1	9	9	501	0	-1.0419058307E+02	-9.4431063865E+01	3.1478977866E+02	3.4479411331E+02	4.1800000000E+00	0.000E+00	0.0
</event>
<event>
    11  -1  1.0000000E+00  1.0000000E+00  -1.0000000E+00  -1.0000000E+00
	2212	-1	0	0	0	0	0.0000000000E+00	0.0000000000E+00	6.5000000000E+03	6.5000000000E+03	9.3827000000E-01	0.000E+00	0.0
	2212	-1	0	0	0	0	0.0000000000E+00	0.0000000000E+00	-6.5000000000E+03	6.5000000000E+03	9.3827000000E-01	0.000E+00	0.0
	2212	1	0	0	0	0	0.0000000000E+00	0.0000000000E+00	6.3303455227E+03	6.3303455227E+03	9.3827000000E-01	0.000E+00	0.0
	2212	1	0	0	0	0	0.0000000000E+00	0.0000000000E+00	-4.8754695767E+03	4.8754695767E+03	9.3827000000E-01	0.000E+00	0.0
	51	2	1	2	0	0	-3.1389372792E+01	1.3077281428E+02	-1.5312351958E+03	1.8615057039E+03	1.0499692563E+03	0.000E+00	0.0
	1000022	2	5	5	0	0	3.1389372792E+01	-1.3077281428E+02	-1.1315573453E+03	1.4223084135E+03	8.5114768149E+02	0.000E+00	0.0
	14	1	6	6	0	0	9.2934449183E+01	-3.2044572567E+02	-4.9043237233E+02	6.7636616324E+02	3.2500000000E+02	0.000E+00	0.0
	-14	1	6	6	0	0	-6.1545076390E+01	1.8967291139E+02	-6.4112497298E+02	7.4594225026E+02	3.2500000000E+02	0.000E+00	0.0
	25	2	5	5	0	0	-3.1389372792E+01	1.3077281428E+02	-3.2331860073E+02	3.7187648712E+02	1.2518139804E+02	0.000E+00	0.0
	-5	1	9	9	0	501	-8.5355186752E+00	1.3306517075E+02	-1.6660536111E+02	2.1343386211E+02	4.1800000000E+00	0.000E+00	0.0
	5	1	9	9	501	0	-2.2853854117E+01	-2.2923564669E+00	-1.5671323963E+02	1.5844262501E+02	4.1800000000E+00	0.000E+00	0.0
</event>
<event>
    11  -1  1.0000000E+00  1.0000000E+00  -1.0000000E+00  -1.0000000E+00
	2212	-1	0	0	0	0	0.0000000000E+00	0.0000000000E+00	6.5000000000E+03	6.5000000000E+03	9.3827000000E-01	0.000E+00	0.0
	2212	-1	0	0	0	0	0.0000000000E+00	0.0000000000E+00	-6.5000000000E+03	6.5000000000E+03	9.3827000000E-01	0.000E+00	0.0
	2212	1	0	0	0	0	0.0000000000E+00	0.0000000000E+00	5.4965011873E+03	5.4965011873E+03	9.3827000000E-01	0.000E+00	0.0
	2212	1	0	0	0	0	0.0000000000E+00	0.0000000000E+00	-6.2240291037E+03	6.2240291037E+03	9.3827000000E-01	0.000E+00	0.0
	51	2	1	2	0	0	-2.7707830548E+01	-4.2185357455E+01	9.1121054413E+02	1.3930534273E+03	1.0524950675E+03	0.000E+00	0.0
	1000022	2	5	5	0	0	2.7707830548E+01	4.2185357455E+01	4.1469850786E+02	9.3876151849E+02	8.4068484459E+02	0.000E+00	0.0
	14	1	6	6	0	0	-1.8736464241E+02	6.4370004453E+01	1.6254080484E+01	3.8097007997E+02	3.2500000000E+02	0.000E+00	0.0
	-14	1	6	6	0	0	2.1507247295E+02	-2.2184646998E+01	3.9844442738E+02	5.5779143853E+02	3.2500000000E+02	0.000E+00	0.0
	25	2	5	5	0	0	-2.7707830548E+01	-4.2185357455E+01	3.1282940857E+02	3.4070819056E+02	1.2518987177E+02	0.000E+00	0.0
	-5	1	9	9	0	501	3.4184827920E+01	-5.3433779857E+01	9.7949198315E+01	1.1677024082E+02	4.1800000000E+00	0.000E+00	0.0
	5	1	9	9	501	0	-6.1892658468E+01	1.1248422401E+01	2.1488021025E+02	2.2393794975E+02	4.1800000000E+00	0.000E+00	0.0
</event>
<event>
    11  -1  1.0000000E+00  1.0000000E+00  -1.0000000E+00  -1.0000000E+00
	2212	-1	0	0	0	0	0.0000000000E+00	0.0000000000E+00	6.5000000000E+03	6.5000000000E+03	9.3827000000E-01	0.000E+00	0.0
	2212	-1	0	0	0	0	0.0000000000E+00	0.0000000000E+00	-6.5000000000E+03	6.5000000000E+03	9.3827000000E-01	0.000E+00	0.0
	2212	1	0	0	0	0	0.0000000000E+00	0.0000000000E+00	6.2769484904E+03	6.2769484904E+03	9.3827000000E-01	0.000E+00	0.0
	2212	1	0	0	0	0	0.0000000000E+00	0.0000000000E+00	-5.2777735975E+03	5.2777735975E+03	9.3827000000E-01	0.000E+00	0.0
	51	2	1	2	0	0	-8.8554418163E+01	-8.8875299170E+01	-9.6885642793E+02	1.4300004401E+03	1.0442594394E+03	0.000E+00	0.0
	1000022	2	5	5	0	0	8.8554418163E+01	8.8875299170E+01	-8.6545742429E+02	1.2232820968E+03	8.5537233493E+02	0.000E+00	0.0
	14	1	6	6	0	0	2.3158722421E+01	-1.8171612077E+02	-6.3695464459E+02	7.3816887921E+02	3.2500000000E+02	0.000E+00	0.0
	-14	1	6	6	0	0	6.5395695742E+01	2.7059141994E+02	-2.2850277970E+02	4.8511321761E+02	3.2500000000E+02	0.000E+00	0.0
	25	2	5	5	0	0	-8.8554418163E+01	-8.8875299170E+01	-1.3371746861E+02	2.2199581536E+02	1.2514422418E+02	0.000E+00	0.0
	-5	1	9	9	0	501	-8.5082954995E+01	-8.8275125128E+01	-1.5633889229E+02	1.9872324622E+02	4.1800000000E+00	0.000E+00	0.0
	5	1	9	9	501	0	-3.4714631674E+00	-6.0017404200E-01	2.2621423672E+01	2.3272569140E+01	4.1800000000E+00	0.000E+00	0.0
</event>
<event>
    11  -1  1.0000000E+00  1.0000000E+00  -1.0000000E+00  -1.0000000E+00
	2212	-1	0	0	0	0	0.0000000000E+00	0.0000000000E+00	6.5000000000E+03	6.5000000000E+03	9.3827000000E-01	0.000E+00	0.0
	2212	-1	0	0	0	0	0.0000000000E+00	0.0000000000E+00	-6.5000000000E+03	6.5000000000E+03	9.3827000000E-01	0.000E+00	0.0
	2212	1	0	0	0	0	0.0000000000E+00	0.0000000000E+00	5.2941122527E+03	5.2941122527E+03	9.3827000000E-01	0.000E+00	0.0
	2212	1	0	0	0	0	0.0000000000E+00	0.0000000000E+00	-6.2678719635E+03	6.2678719635E+03	9.3827000000E-01	0.000E+00	0.0
	51	2	1	2	0	0	-7.9255904526E-01	1.0795378490E+01	7.8518195940E+02	1.3176908962E+03	1.0581499989E+03	0.000E+00	0.0
	1000022	2	5	5	0	0	7.9255904526E-01	-1.0795378490E+01	9.9460515402E+02	1.3106392068E+03	8.5347439895E+02	0.000E+00	0.0
	14	1	6	6	0	0	1.5258854514E+02	1.4723221536E+01	1.4395817542E+02	3.8710333715E+02	3.2500000000E+02	0.000E+00	0.0
	-14	1	6	6	0	0	-1.5179598610E+02	-2.5518600026E+01	8.5064697860E+02	9.2353586966E+02	3.2500000000E+02	0.000E+00	0.0
	25	2	5	5	0	0	-7.9255904526E-01	1.0795378490E+01	-2.0845443233E+01	1.2737657702E+02	1.2519221830E+02	0.000E+00	0.0
	-5	1	9	9	0	501	-2.0910231056E+01	-2.9440201989E+01	3.8395779562E+01	5.2874110339E+01	4.1800000000E+00	0.000E+00	0.0
	5	1	9	9	501	0	2.0117672011E+01	4.0235580478E+01	-5.9241222795E+01	7.4502466683E+01	4.1800000000E+00	0.000E+00	0.0
</event>
<event>
    11  -1  1.0000000E+00  1.0000000E+00  -1.0000000E+00  -1.0000000E+00
	2212	-1	0	0	0	0	0.0000000000E+00	0.0000000000E+00	6.5000000000E+03	6.5000000000E+03	9.3827000000E-01	0.000E+00	0.0
	2212	-1	0	0	0	0	0.0000000000E+00	0.0000000000E+00	-6.5000000000E+03	6.5000000000E+03	9.3827000000E-01	0.000E+00	0.0
	2212	1	0	0	0	0	0.0000000000E+00	0.0000000000E+00	5.0975562884E+03	5.0975562884E+03	9.3827000000E-01	0.000E+00	0.0
	2212	1	0	0	0	0	0.0000000000E+00	0.0000000000E+00	-6.2977484419E+03	6.2977484419E+03	9.3827000000E-01	0.000E+00	0.0
	51	2	1	2	0	0	1.6180740785E+01	-8.7522496951E+01	9.9967061738E+02	1.4635057398E+03	1.0651693309E+03	0.000E+00	0.0
	1000022	2	5	5	0	0	-1.6180740785E+01	8.7522496951E+01	1.1791660553E+03	1.4496685315E+03	8.3856082754E+02	0.000E+00	0.0
	14	1	6	6	0	0	1.1820236926E+02	-1.2362118732E+02	2.8154514991E+02	4.6275983997E+02	3.2500000000E+02	0.000E+00	0.0
	-14	1	6	6	0	0	-1.3438311005E+02	2.1114368427E+02	8.9762090539E+02	9.8690869155E+02	3.2500000000E+02	0.000E+00	0.0
	25	2	5	5	0	0	1.6180740785E+01	-8.7522496951E+01	2.1026098156E+01	1.5502673820E+02	1.2517663083E+02	0.000E+00	0.0
	-5	1	9	9	0	501	1.4536998536E+01	-7.6908280134E+01	-4.3388407980E+01	8.9589252853E+01	4.1800000000E+00	0.000E+00	0.0
	5	1	9	9	501	0	1.6437422486E+00	-1.0614216817E+01	6.4414506137E+01	6.5437485343E+01	4.1800000000E+00	0.000E+00	0.0
</event>
<event>
    11  -1  1.0000000E+00  1.0000000E+00  -1.0000000E+00  -1.0000000E+00
	2212	-1	0	0	0	0	0.0000000000E+00	0.0000000000E+00	6.5000000000E+03	6.5000000000E+03	9.3827000000E-01	0.000E+00	0.0
	2212	-1	0	0	0	0	0.0000000000E+00	0.0000000000E+00	-6.5000000000E+03	6.5000000000E+03	9.3827000000E-01	0.000E+00	0.0
	2212	1	0	0	0	0	0.0000000000E+00	0.0000000000E+00	6.2994941324E+03	6.2994941324E+03	9.3827000000E-01	0.000E+00	0.0
	2212	1	0	0	0	0	0.0000000000E+00	0.0000000000E+00	-5.1495118588E+03	5.1495118588E+03	9.3827000000E-01	0.000E+00	0.0
	51	2	1	2	0	0	-6.8962952631E+01	-7.5620599967E+01	-1.2409115244E+03	1.6227935670E+03	1.0407320432E+03	0.000E+00	0.0
	1000022	2	5	5	0	0	6.8962952631E+01	7.5620599967E+01	-8.7711822695E+02	1.2338169480E+03	8.6168063289E+02	0.000E+00	0.0
	14	1	6	6	0	0	-1.3327942107E+02	2.2865826197E+02	-6.1858824530E+02	7.4721109606E+02	3.2500000000E+02	0.000E+00	0.0
	-14	1	6	6	0	0	2.0224237370E+02	-1.5303766201E+02	-2.5852998165E+02	4.8660585193E+02	3.2500000000E+02	0.000E+00	0.0
	25	2	5	5	0	0	-6.8962952631E+01	-7.5620599967E+01	-2.7286404663E+02	3.1717706078E+02	1.2518840188E+02	0.000E+00	0.0
	-5	1	9	9	0	501	-2.6783288442E+01	1.0271235039E+01	-1.0787330542E+00	2.9008255273E+01	4.1800000000E+00	0.000E+00	0.0
	5	1	9	9	501	0	-4.2179664190E+01	-8.5891835006E+01	-2.7178531357E+02	2.8816880550E+02	4.1800000000E+00	0.000E+00	0.0
</event>
<event>
    11  -1  1.0000000E+00  1.0000000E+00  -1.0000000E+00  -1.0000000E+00
	2212	-1	0	0	0	0	0.0000000000E+00	0.0000000000E+00	6.5000000000E+03	6.5000000000E+03	9.3827000000E-01	0.000E+00	0.0
	2212	-1	0	0	0	0	0.0000000000E+00	0.0000000000E+00	-6.5000000000E+03	6.5000000000E+03	9.3827000000E-01	0.000E+00	0.0
	2212	1	0	0	0	0	0.0000000000E+00	0.0000000000E+00	6.0670057816E+03	6.0670057816E+03	9.3827000000E-01	0.000E+00	0.0
	2212	1	0	0	0	0	0.0000000000E+00	0.0000000000E+00	-5.8692652864E+03	5.8692652864E+03	9.3827000000E-01	0.000E+00	0.0
	51	2	1	2	0	0	5.6564066783E+01	-3.3083604941E+01	-3.1222585083E+02	1.0927931816E+03	1.0451879914E+03	0.000E+00	0.0
	1000022	2	5	5	0	0	-5.6564066783E+01	3.3083604941E+01	-5.0750152787E+01	8.5980674618E+02	8.5580257315E+02	0.000E+00	0.0
	14	1	6	6	0	0	1.2442975675E+02	-2.1175131665E+02	-7.3250201577E+01	4.1389850990E+02	3.2500000000E+02	0.000E+00	0.0
	-14	1	6	6	0	0	-1.8099382353E+02	2.4483492159E+02	2.2500048790E+01	4.4590823628E+02	3.2500000000E+02	0.000E+00	0.0
	25	2	5	5	0	0	5.6564066783E+01	-3.3083604941E+01	-1.4699034242E+02	2.0392218580E+02	1.2523609116E+02	0.000E+00	0.0
	-5	1	9	9	0	501	8.4922197907E+01	3.1032299665E+00	-1.2866939779E+02	1.5425529508E+02	4.1800000000E+00	0.000E+00	0.0
	5	1	9	9	501	0	-2.8358131123E+01	-3.6186834907E+01	-1.8320944632E+01	4.9666890718E+01	4.1800000000E+00	0.000E+00	0.0
</event>
<event>
    11  -1  1.0000000E+00  1.0000000E+00  -1.0000000E+00  -1.0000000E+00
	2212	-1	0	0	0	0	0.0000000000E+00	0.0000000000E+00	6.5000000000E+03	6.5000000000E+03	9.3827000000E-01	0.000E+00	0.0
	2212	-1	0	0	0	0	0.0000000000E+00	0.0000000000E+00	-6.5000000000E+03	6.5000000000E+03	9.3827000000E-01	0.000E+00	0.0
	2212	1	0	0	0	0	0.0000000000E+00	0.0000000000E+00	6.3296708266E+03	6.3296708266E+03	9.3827000000E-01	0.000E+00	0.0
	2212	1	0	0	0	0	0.0000000000E+00	0.0000000000E+00	-4.8947928946E+03	4.8947928946E+03	9.3827000000E-01	0.000E+00	0.0
	51	2	1	2	0	0	8.3740051393E+01	-1.8293096535E+00	-1.2562507639E+03	1.6367150399E+03	1.0457793254E+03	0.000E+00	0.0
	1000022	2	5	5	0	0	-8.3740051393E+01	1.8293096535E+00	-1.3682273065E+03	1.6108476431E+03	8.4603098322E+02	0.000E+00	0.0
	14	1	6	6	0	0	8.3018897452E+01	2.3123136835E+02	-7.9656927215E+02	8.9471095242E+02	3.2500000000E+02	0.000E+00	0.0
	-14	1	6	6	0	0	-1.6675894885E+02	-2.2940205870E+02	-5.7165803430E+02	7.1613669068E+02	3.2500000000E+02	0.000E+00	0.0
	25	2	5	5	0	0	8.3740051393E+01	-1.8293096535E+00	-6.6650625617E+01	1.6468863569E+02	1.2515709429E+02	0.000E+00	0.0
	-5	1	9	9	0	501	9.1662331882E+01	-2.1016441659E+01	6.4950204779E-01	9.4135902603E+01	4.1800000000E+00	0.000E+00	0.0
	5	1	9	9	501	0	-7.9222804889E+00	1.9187132005E+01	-6.7300127665E+01	7.0552733090E+01	4.1800000000E+00	0.000E+00	0.0
</event>
<event>
    11  -1  1.0000000E+00  1.0000000E+00  -1.0000000E+00  -1.0000000E+00
	2212	-1	0	0	0	0	0.0000000000E+00	0.0000000000E+00	6.5000000000E+03	6.5000000000E+03	9.3827000000E-01	0.000E+00	0.0
	2212	-1	0	0	0	0	0.0000000000E+00	0.0000000000E+00	-6.5000000000E+03	6.5000000000E+03	9.3827000000E-01	0.000E+00	0.0
	2212	1	0	0	0	0	0.0000000000E+00	0.0000000000E+00	5.2898216607E+03	5.2898216607E+03	9.3827000000E-01	0.000E+00	0.0
	2212	1	0	0	0	0	0.0000000000E+00	0.0000000000E+00	-6.2813588741E+03	6.2813588741E+03	9.3827000000E-01	0.000E+00	0.0
	51	2	1	2	0	0	-3.2298608490E+01	-5.9371377967E+01	1.1533874920E+03	1.5470132146E+03	1.0287754948E+03	0.000E+00	0.0
	1000022	2	5	5	0	0	3.2298608490E+01	5.9371377967E+01	6.6372231250E+02	1.0714682949E+03	8.3842044242E+02	0.000E+00	0.0
	14	1	6	6	0	0	1.3094970855E+02	-2.0679508860E+02	3.6556854236E+02	5.4697110893E+02	3.2500000000E+02	0.000E+00	0.0
	-14	1	6	6	0	0	-9.8651100063E+01	2.6616646656E+02	2.9815377014E+02	5.2449718600E+02	3.2500000000E+02	0.000E+00	0.0
	25	2	5	5	0	0	-3.2298608490E+01	-5.9371377967E+01	3.2781490082E+02	3.5735117026E+02	1.2517623197E+02	0.000E+00	0.0
	-5	1	9	9	0	501	-8.6024206482E+00	1.6998125053E+01	-4.0232914666E-01	1.9508258894E+01	4.1800000000E+00	0.000E+00	0.0
	5	1	9	9	501	0	-2.3696187842E+01	-7.6369503020E+01	3.2821722997E+02	3.3784291136E+02	4.1800000000E+00	0.000E+00	0.0
</event>
<event>
    11  -1  1.0000000E+00  1.0000000E+00  -1.0000000E+00  -1.0000000E+00
	2212	-1	0	0	0	0	0.0000000000E+00	0.0000000000E+00	6.5000000000E+03	6.5000000000E+03	9.3827000000E-01	0.000E+00	0.0
	2212	-1	0	0	0	0	0.0000000000E+00	0.0000000000E+00	-6.5000000000E+03	6.5000000000E+03	9.3827000000E-01	0.000E+00	0.0
	2212	1	0	0	0	0	0.0000000000E+00	0.0000000000E+00	6.3132717221E+03	6.3132717221E+03	9.3827000000E-01	0.000E+00	0.0
	2212	1	0	0	0	0	0.0000000000E+00	0.0000000000E+00	-5.0382706135E+03	5.0382706135E+03	9.3827000000E-01	0.000E+00	0.0
	51	2	1	2	0	0	-1.1641546559E+02	7.4498645438E+00	-1.1467101939E+03	1.5557432868E+03	1.0448850866E+03	0.000E+00	0.0
	1000022	2	5	5	0	0	1.1641546559E+02	-7.4498645438E+00	-1.1803464007E+03	1.4529241198E+03	8.3914409443E+02	0.000E+00	0.0
	14	1	6	6	0	0	6.3341041769E+01	2.5070443680E+02	-4.5904824696E+02	6.1904369413E+02	3.2500000000E+02	0.000E+00	0.0
	-14	1	6	6	0	0	5.3074423823E+01	-2.5815430135E+02	-7.2129815373E+02	8.3388042569E+02	3.2500000000E+02	0.000E+00	0.0
	25	2	5	5	0	0	-1.1641546559E+02	7.4498645438E+00	-9.4654707954E+01	1.9553354459E+02	1.2516306249E+02	0.000E+00	0.0
	-5	1	9	9	0	501	-9.5349598443E+01	-3.4643847627E+01	-1.0615866137E+02	1.4689750129E+02	4.1800000000E+00	0.000E+00	0.0
	5	1	9	9	501	0	-2.1065867149E+01	4.2093712171E+01	1.1503953420E+01	4.8636043294E+01	4.1800000000E+00	0.000E+00	0.0
</event>
<event>
    11  -1  1.0000000E+00  1.0000000E+00  -1.0000000E+00  -1.0000000E+00
	2212	-1	0	0	0	0	0.0000000000E+00	0.0000000000E+00	6.5000000000E+03	6.5000000000E+03	9.3827000000E-01	0.000E+00	0.0
	2212	-1	0	0	0	0	0.0000000000E+00	0.0000000000E+00	-6.5000000000E+03	6.5000000000E+03	9.3827000000E-01	0.000E+00	0.0
	2212	1	0	0	0	0	0.0000000000E+00	0.0000000000E+00	6.2847636379E+03	6.2847636379E+03	9.3827000000E-01	0.000E+00	0.0
	2212	1	0	0	0	0	0.0000000000E+00	0.0000000000E+00	-5.2002199329E+03	5.2002199329E+03	9.3827000000E-01	0.000E+00	0.0
	51	2	1	2	0	0	1.2328791642E+02	6.1409863130E+01	-1.0189574273E+03	1.4752237298E+03	1.0578467435E+03	0.000E+00	0.0
	1000022	2	5	5	0	0	-1.2328791642E+02	-6.1409863130E+01	-9.6220971182E+02	1.2923002998E+03	8.5159935053E+02	0.000E+00	0.0
	14	1	6	6	0	0	3.5013211236E+01	-9.2717229803E+01	-9.5871834391E+01	3.5304223302E+02	3.2500000000E+02	0.000E+00	0.0
	-14	1	6	6	0	0	-1.5830112766E+02	3.1307366673E+01	-8.6633787743E+02	9.3925806682E+02	3.2500000000E+02	0.000E+00	0.0
	25	2	5	5	0	0	1.2328791642E+02	6.1409863130E+01	-1.2233399317E+02	2.2271612937E+02	1.2516304076E+02	0.000E+00	0.0
	-5	1	9	9	0	501	8.5215982790E+01	-1.4672571522E+01	-1.8697636043E+01	8.8567048453E+01	4.1800000000E+00	0.000E+00	0.0
	5	1	9	9	501	0	3.8071933631E+01	7.6082434652E+01	-1.0363635712E+02	1.3414908092E+02	4.1800000000E+00	0.000E+00	0.0
</event>
<event>
    11  -1  1.0000000E+00  1.0000000E+00  -1.0000000E+00  -1.0000000E+00
	2212	-1	0	0	0	0	0.0000000000E+00	0.0000000000E+00	6.5000000000E+03	6.5000000000E+03	9.3827000000E-01	0.000E+00	0.0
	2212	-1	0	0	0	0	0.0000000000E+00	0.0000000000E+00	-6.5000000000E+03	6.5000000000E+03	9.3827000000E-01	0.000E+00	0.0
	2212	1	0	0	0	0	0.0000000000E+00	0.0000000000E+00	6.2344582385E+03	6.2344582385E+03	9.3827000000E-01	0.000E+00	0.0
	2212	1	0	0	0	0	0.0000000000E+00	0.0000000000E+00	-5.4733615822E+03	5.4733615822E+03	9.3827000000E-01	0.000E+00	0.0
	51	2	1	2	0	0	-1.1281290448E+02	-6.3518147536E+00	-8.4922537159E+02	1.3507080825E+03	1.0442516438E+03	0.000E+00	0.0
	1000022	2	5	5	0	0	1.1281290448E+02	6.3518147536E+00	-5.4684642208E+02	1.0195247725E+03	8.5300800431E+02	0.000E+00	0.0
	14	1	6	6	0	0	3.7572647879E+01	-3.4391968057E+01	5.1774640735E+01	3.3301670342E+02	3.2500000000E+02	0.000E+00	0.0
	-14	1	6	6	0	0	7.5240256602E+01	4.0743782810E+01	-5.9862106282E+02	6.8650806907E+02	3.2500000000E+02	0.000E+00	0.0
	25	2	5	5	0	0	-1.1281290448E+02	-6.3518147536E+00	-2.1425023424E+02	2.7265540681E+02	1.2518271056E+02	0.000E+00	0.0
	-5	1	9	9	0	501	-3.3284733535E+01	-4.7318173460E+01	-1.5441323856E+02	1.6494788167E+02	4.1800000000E+00	0.000E+00	0.0
	5	1	9	9	501	0	-7.9528170946E+01	4.0966358706E+01	-5.9836995683E+01	1.0770752514E+02	4.1800000000E+00	0.000E+00	0.0
</event>
<event>
    11  -1  1.0000000E+00  1.0000000E+00  -1.0000000E+00  -1.0000000E+00
	2212	-1	0	0	0	0	0.0000000000E+00	0.0000000000E+00	6.5000000000E+03	6.5000000000E+03	9.3827000000E-01	0.000E+00	0.0
	2212	-1	0	0	0	0	0.0000000000E+00	0.0000000000E+00	-6.5000000000E+03	6.5000000000E+03	9.3827000000E-01	0.000E+00	0.0
	2212	1	0	0	0	0	0.0000000000E+00	0.0000000000E+00	6.0732913153E+03	6.0732913153E+03	9.3827000000E-01	0.000E+00	0.0
	2212	1	0	0	0	0	0.0000000000E+00	0.0000000000E+00	-5.8351127641E+03	5.8351127641E+03	9.3827000000E-01	0.000E+00	0.0
	51	2	1	2	0	0	4.2130990886E+01	-1.3642604301E+02	-2.1369602435E+02	1.0958584344E+03	1.0652946220E+03	0.000E+00	0.0
	1000022	2	5	5	0	0	-4.2130990886E+01	1.3642604301E+02	-2.2201176000E+02	9.0103355113E+02	8.6150168489E+02	0.000E+00	0.0
	14	1	6	6	0	0	2.4249528491E+02	-3.5265106858E+01	-7.8740163748E+01	4.1457520953E+02	3.2500000000E+02	0.000E+00	0.0
	-14	1	6	6	0	0	-2.8462627580E+02	1.7169114987E+02	-1.4327159626E+02	4.8645834160E+02	3.2500000000E+02	0.000E+00	0.0
	25	2	5	5	0	0	4.2130990886E+01	-1.3642604301E+02	-1.6166791194E+01	1.9056236952E+02	1.2516215856E+02	0.000E+00	0.0
	-5	1	9	9	0	501	9.3356091898E+00	2.3187283228E+01	6.0464164618E+00	2.6054467073E+01	4.1800000000E+00	0.000E+00	0.0
	5	1	9	9	501	0	3.2795381697E+01	-1.5961332624E+02	-2.2213207655E+01	1.6450790245E+02	4.1800000000E+00	0.000E+00	0.0
</event>
<event>
    11  -1  1.0000000E+00  1.0000000E+00  -1.0000000E+00  -1.0000000E+00
	2212	-1	0	0	0	0	0.0000000000E+00	0.0000000000E+00	6.5000000000E+03	6.5000000000E+03	9.3827000000E-01	0.000E+00	0.0
	2212	-1	0	0	0	0	0.0000000000E+00	0.0000000000E+00	-6.5000000000E+03	6.5000000000E+03	9.3827000000E-01	0.000E+00	0.0
	2212	1	0	0	0	0	0.0000000000E+00	0.0000000000E+00	6.3174776238E+03	6.3174776238E+03	9.3827000000E-01	0.000E+00	0.0
	2212	1	0	0	0	0	0.0000000000E+00	0.0000000000E+00	-4.8221600455E+03	4.8221600455E+03	9.3827000000E-01	0.000E+00	0.0
	51	2	1	2	0	0	-2.4374021441E+01	-1.7944453553E+02	-1.6413753695E+03	1.9879338216E+03	1.1067851378E+03	0.000E+00	0.0
	1000022	2	5	5	0	0	2.4374021441E+01	1.7944453553E+02	-1.0589444264E+03	1.3716021739E+03	8.5272198922E+02	0.000E+00	0.0
	14	1	6	6	0	0	1.7915729422E+02	-4.4065164171E+01	-7.7828579775E+02	8.6336137147E+02	3.2500000000E+02	0.000E+00	0.0
	-14	1	6	6	0	0	-1.5478327277E+02	2.2350969970E+02	-2.8065862867E+02	5.0824080241E+02	3.2500000000E+02	0.000E+00	0.0
	25	2	5	5	0	0	-2.4374021441E+01	-1.7944453553E+02	-4.3637315190E+02	4.8876015677E+02	1.2518198310E+02	0.000E+00	0.0
	-5	1	9	9	0	501	4.4937964632E+01	-1.0126038844E+02	-1.7399420798E+02	2.0631176347E+02	4.1800000000E+00	0.000E+00	0.0
	5	1	9	9	501	0	-6.9311986073E+01	-7.8184147087E+01	-2.6237894392E+02	2.8244839330E+02	4.1800000000E+00	0.000E+00	0.0
</event>
<event>
    11  -1  1.0000000E+00  1.0000000E+00  -1.0000000E+00  -1.0000000E+00
	2212	-1	0	0	0	0	0.0000000000E+00	0.0000000000E+00	6.5000000000E+03	6.5000000000E+03	9.3827000000E-01	0.000E+00	0.0
	2212	-1	0	0	0	0	0.0000000000E+00	0.0000000000E+00	-6.5000000000E+03	6.5000000000E+03	9.3827000000E-01	0.000E+00	0.0
	2212	1	0	0	0	0	0.0000000000E+00	0.0000000000E+00	5.2064206352E+03	5.2064206352E+03	9.3827000000E-01	0.000E+00	0.0
	2212	1	0	0	0	0	0.0000000000E+00	0.0000000000E+00	-6.2834986796E+03	6.2834986796E+03	9.3827000000E-01	0.000E+00	0.0
	51	2	1	2	0	0	-1.0964507558E+02	8.5606449235E+01	1.0120240837E+03	1.4709826019E+03	1.0584170077E+03	0.000E+00	0.0
	1000022	2	5	5	0	0	1.0964507558E+02	-8.5606449235E+01	9.5479986476E+02	1.2865361047E+03	8.5098875440E+02	0.000E+00	0.0
	14	1	6	6	0	0	1.4815203165E+01	-3.8643745264E+01	8.7672183917E+02	9.3593750463E+02	3.2500000000E+02	0.000E+00	0.0
	-14	1	6	6	0	0	9.4829872415E+01	-4.6962703971E+01	7.8078025586E+01	3.5059860003E+02	3.2500000000E+02	0.000E+00	0.0
	25	2	5	5	0	0	-1.0964507558E+02	8.5606449235E+01	1.2227817966E+02	2.2354458061E+02	1.2517875040E+02	0.000E+00	0.0
	-5	1	9	9	0	501	-3.3974944229E+01	4.8465996941E+01	-1.6081137323E+01	6.1476215502E+01	4.1800000000E+00	0.000E+00	0.0
	5	1	9	9	501	0	-7.5670131351E+01	3.7140452293E+01	1.3835931698E+02	1.6206836511E+02	4.1800000000E+00	0.000E+00	0.0
</event>
<event>
    11  -1  1.0000000E+00  1.0000000E+00  -1.0000000E+00  -1.0000000E+00
	2212	-1	0	0	0	0	0.0000000000E+00	0.0000000000E+00	6.5000000000E+03	6.5000000000E+03	9.3827000000E-01	0.000E+00	0.0
	2212	-1	0	0	0	0	0.0000000000E+00	0.0000000000E+00	-6.5000000000E+03	6.5000000000E+03	9.3827000000E-01	0.000E+00	0.0
	2212	1	0	0	0	0	0.0000000000E+00	0.0000000000E+00	5.5263448088E+03	5.5263448088E+03	9.3827000000E-01	0.000E+00	0.0
	2212	1	0	0	0	0	0.0000000000E+00	0.0000000000E+00	-6.2271709769E+03	6.2271709769E+03	9.3827000000E-01	0.000E+00	0.0
	51	2	1	2	0	0	1.0326397904E+02	-7.9921652743E+01	6.9585005881E+02	1.2505294090E+03	1.0308082162E+03	0.000E+00	0.0
	1000022	2	5	5	0	0	-1.0326397904E+02	7.9921652743E+01	5.8830254233E+02	1.0334548641E+03	8.3957022031E+02	0.000E+00	0.0
	14	1	6	6	0	0	1.2625729974E+02	4.3940612887E+00	3.8803392152E+01	3.5084315122E+02	3.2500000000E+02	0.000E+00	0.0
	-14	1	6	6	0	0	-2.2952127879E+02	7.5527591454E+01	5.4949915017E+02	6.8261171286E+02	3.2500000000E+02	0.000E+00	0.0
	25	2	5	5	0	0	1.0326397904E+02	-7.9921652743E+01	1.1252362573E+02	2.1302935020E+02	1.2517594719E+02	0.000E+00	0.0
	-5	1	9	9	0	501	-1.3740300136E+01	1.4907735181E+00	-1.5647586140E+01	2.1291726222E+01	4.1800000000E+00	0.000E+00	0.0
	5	1	9	9	501	0	1.1700427918E+02	-8.1412426261E+01	1.2817121187E+02	1.9173762398E+02	4.1800000000E+00	0.000E+00	0.0
</event>
<event>
    11  -1  1.0000000E+00  1.0000000E+00  -1.0000000E+00  -1.0000000E+00
	2212	-1	0	0	0	0	0.0000000000E+00	0.0000000000E+00	6.5000000000E+03	6.5000000000E+03	9.3827000000E-01	0.000E+00	0.0
	2212	-1	0	0	0	0	0.0000000000E+00	0.0000000000E+00	-6.5000000000E+03	6.5000000000E+03	9.3827000000E-01	0.000E+00	0.0
	2212	1	0	0	0	0	0.0000000000E+00	0.0000000000E+00	5.2826524489E+03	5.2826524489E+03	9.3827000000E-01	0.000E+00	0.0
	2212	1	0	0	0	0	0.0000000000E+00	0.0000000000E+00	-6.2882313841E+03	6.2882313841E+03	9.3827000000E-01	0.000E+00	0.0
	51	2	1	2	0	0	-4.7310006030E+01	-1.4522758407E+01	8.7725945067E+02	1.3428392737E+03	1.0154723157E+03	0.000E+00	0.0
	1000022	2	5	5	0	0	4.7310006030E+01	1.4522758407E+01	9.7625393696E+02	1.2913506993E+03	8.4383987343E+02	0.000E+00	0.0
	14	1	6	6	0	0	2.9254916033E+02	1.8057999395E+01	5.2748423426E+02	6.8540186748E+02	3.2500000000E+02	0.000E+00	0.0
	-14	1	6	6	0	0	-2.4523915430E+02	-3.5352409879E+00	4.4876970270E+02	6.0594883183E+02	3.2500000000E+02	0.000E+00	0.0
	25	2	5	5	0	0	-4.7310006030E+01	-1.4522758407E+01	2.9324998184E+01	1.3776546769E+02	1.2518075486E+02	0.000E+00	0.0
	-5	1	9	9	0	501	-6.1779545172E+01	2.3405432711E+01	5.7900912341E+01	8.7946088782E+01	4.1800000000E+00	0.000E+00	0.0
	5	1	9	9	501	0	1.4469539143E+01	-3.7928191119E+01	-2.8575914157E+01	4.9819378905E+01	4.1800000000E+00	0.000E+00	0.0
</event>
<event>
    11  -1  1.0000000E+00  1.0000000E+00  -1.0000000E+00  -1.0000000E+00
	2212	-1	0	0	0	0	0.0000000000E+00	0.0000000000E+00	6.5000000000E+03	6.5000000000E+03	9.3827000000E-01	0.000E+00	0.0
	2212	-1	0	0	0	0	0.0000000000E+00	0.0000000000E+00	-6.5000000000E+03	6.5000000000E+03	9.3827000000E-01	0.000E+00	0.0
	2212	1	0	0	0	0	0.0000000000E+00	0.0000000000E+00	5.8928389527E+03	5.8928389527E+03	9.3827000000E-01	0.000E+00	0.0
	2212	1	0	0	0	0	0.0000000000E+00	0.0000000000E+00	-6.0635411717E+03	6.0635411717E+03	9.3827000000E-01	0.000E+00	0.0
	51	2	1	2	0	0	6.0151431838E+00	1.0124476653E+02	1.0929533299E+02	1.0403054128E+03	1.0295645668E+03	0.000E+00	0.0
	1000022	2	5	5	0	0	-6.0151431838E+00	-1.0124476653E+02	2.0463719419E+02	8.7897968427E+02	8.4878867772E+02	0.000E+00	0.0
	14	1	6	6	0	0	7.2813749022E+01	1.3772593859E+02	-9.2145050520E+01	3.7200267007E+02	3.2500000000E+02	0.000E+00	0.0
	-14	1	6	6	0	0	-7.8828892206E+01	-2.3897070512E+02	2.9678224471E+02	5.0697701420E+02	3.2500000000E+02	0.000E+00	0.0
	25	2	5	5	0	0	6.0151431838E+00	1.0124476653E+02	-3.3934975176E+01	1.6464019139E+02	1.2517238267E+02	0.000E+00	0.0
	-5	1	9	9	0	501	-7.3585894947E+00	6.2770964528E+01	4.3643429252E+01	7.6919205301E+01	4.1800000000E+00	0.000E+00	0.0
	5	1	9	9	501	0	1.3373732679E+01	3.8473802004E+01	-7.7578404428E+01	8.7720986087E+01	4.1800000000E+00	0.000E+00	0.0
</event>
<event>
    11  -1  1.0000000E+00  1.0000000E+00  -1.0000000E+00  -1.0000000E+00
	2212	-1	0	0	0	0	0.0000000000E+00	0.0000000000E+00	6.5000000000E+03	6.5000000000E+03	9.3827000000E-01	0.000E+00	0.0
	2212	-1	0	0	0	0	0.0000000000E+00	0.0000000000E+00	-6.5000000000E+03	6.5000000000E+03	9.3827000000E-01	0.000E+00	0.0
	2212	1	0	0	0	0	0.0000000000E+00	0.0000000000E+00	5.2508890948E+03	5.2508890948E+03	9.3827000000E-01	0.000E+00	0.0
	2212	1	0	0	0	0	0.0000000000E+00	0.0000000000E+00	-6.2801617703E+03	6.2801617703E+03	9.3827000000E-01	0.000E+00	0.0
	51	2	1	2	0	0	-1.6462822459E+01	-1.1741729054E+02	9.6329220372E+02	1.4284253689E+03	1.0480502470E+03	0.000E+00	0.0
	1000022	2	5	5	0	0	1.6462822459E+01	1.1741729054E+02	9.2605463203E+02	1.2679975186E+03	8.5801088635E+02	0.000E+00	0.0
	14	1	6	6	0	0	-2.4233629554E+02	1.8000525072E+02	4.2785221112E+02	6.1628831320E+02	3.2500000000E+02	0.000E+00	0.0
	-14	1	6	6	0	0	2.5879911800E+02	-6.2587960183E+01	4.9820242091E+02	6.5170920543E+02	3.2500000000E+02	0.000E+00	0.0
	25	2	5	5	0	0	-1.6462822459E+01	-1.1741729054E+02	1.0321804349E+02	2.0095161621E+02	1.2517884372E+02	0.000E+00	0.0
	-5	1	9	9	0	501	1.5105662029E+01	-1.1852240365E+02	3.3284038091E+01	1.2410092982E+02	4.1800000000E+00	0.000E+00	0.0
	5	1	9	9	501	0	-3.1568484488E+01	1.1051131047E+00	6.9934005394E+01	7.6850686388E+01	4.1800000000E+00	0.000E+00	0.0
</event>
<event>
    11  -1  1.0000000E+00  1.0000000E+00  -1.0000000E+00  -1.0000000E+00
	2212	-1	0	0	0	0	0.0000000000E+00	0.0000000000E+00	6.5000000000E+03	6.5000000000E+03	9.3827000000E-01	0.000E+00	0.0
	2212	-1	0	0	0	0	0.0000000000E+00	0.0000000000E+00	-6.5000000000E+03	6.5000000000E+03	9.3827000000E-01	0.000E+00	0.0
	2212	1	0	0	0	0	0.0000000000E+00	0.0000000000E+00	6.2969795978E+03	6.2969795978E+03	9.3827000000E-01	0.000E+00	0.0
	2212	1	0	0	0	0	0.0000000000E+00	0.0000000000E+00	-5.0535915411E+03	5.0535915411E+03	9.3827000000E-01	0.000E+00	0.0
	51	2	1	2	0	0	4.6242396150E+01	-1.8764227457E+02	-1.1387444763E+03	1.5838840466E+03	1.0837904355E+03	0.000E+00	0.0
	1000022	2	5	5	0	0	-4.6242396150E+01	1.8764227457E+02	-1.0901200026E+03	1.3728384175E+03	8.1177319384E+02	0.000E+00	0.0
	14	1	6	6	0	0	-2.6126810595E+02	6.5420807431E+01	-4.8723556481E+02	6.4464284751E+02	3.2500000000E+02	0.000E+00	0.0
	-14	1	6	6	0	0	2.1502570980E+02	1.2222146714E+02	-6.0288443776E+02	7.2819557002E+02	3.2500000000E+02	0.000E+00	0.0
	25	2	5	5	0	0	4.6242396150E+01	-1.8764227457E+02	-1.5326805418E+02	2.7659044357E+02	1.2515268528E+02	0.000E+00	0.0
	-5	1	9	9	0	501	-2.9656495361E+01	-1.2433934048E+02	-1.0971073661E+02	1.6850429501E+02	4.1800000000E+00	0.000E+00	0.0
	5	1	9	9	501	0	7.5898891511E+01	-6.3302934087E+01	-4.3557317570E+01	1.0808614856E+02	4.1800000000E+00	0.000E+00	0.0
</event>
<event>
    11  -1  1.0000000E+00  1.0000000E+00  -1.0000000E+00  -1.0000000E+00
	2212	-1	0	0	0	0	0.0000000000E+00	0.0000000000E+00	6.5000000000E+03	6.5000000000E+03	9.3827000000E-01	0.000E+00	0.0
	2212	-1	0	0	0	0	0.0000000000E+00	0.0000000000E+00	-6.5000000000E+03	6.5000000000E+03	9.3827000000E-01	0.000E+00	0.0
	2212	1	0	0	0	0	0.0000000000E+00	0.0000000000E+00	6.3246097292E+03	6.3246097292E+03	9.3827000000E-01	0.000E+00	0.0
	2212	1	0	0	0	0	0.0000000000E+00	0.0000000000E+00	-4.9294814195E+03	4.9294814195E+03	9.3827000000E-01	0.000E+00	0.0
	51	2	1	2	0	0	-1.3033569389E+02	-4.4106669034E+01	-1.3319208614E+03	1.7013996265E+03	1.0496736238E+03	0.000E+00	0.0
	1000022	2	5	5	0	0	1.3033569389E+02	4.4106669034E+01	-1.2168973266E+03	1.4882741862E+03	8.4568797939E+02	0.000E+00	0.0
	14	1	6	6	0	0	1.2301152417E+02	1.2701402335E+02	-2.0666469878E+02	4.2379204208E+02	3.2500000000E+02	0.000E+00	0.0
	-14	1	6	6	0	0	7.3241697198E+00	-8.2907354316E+01	-1.0102326278E+03	1.0644821441E+03	3.2500000000E+02	0.000E+00	0.0
	25	2	5	5	0	0	-1.3033569389E+02	-4.4106669034E+01	-1.7823098316E+02	2.5763466515E+02	1.2520601413E+02	0.000E+00	0.0
	-5	1	9	9	0	501	1.1901740652E+01	-4.1849070061E+01	-4.0739098883E+01	5.9750670903E+01	4.1800000000E+00	0.000E+00	0.0
	5	1	9	9	501	0	-1.4223743454E+02	-2.2575989728E+00	-1.3749188427E+02	1.9788399425E+02	4.1800000000E+00	0.000E+00	0.0
</event>
<event>
    11  -1  1.0000000E+00  1.0000000E+00  -1.0000000E+00  -1.0000000E+00
	2212	-1	0	0	0	0	0.0000000000E+00	0.0000000000E+00	6.5000000000E+03	6.5000000000E+03	9.3827000000E-01	0.000E+00	0.0
	2212	-1	0	0	0	0	0.0000000000E+00	0.0000000000E+00	-6.5000000000E+03	6.5000000000E+03	9.3827000000E-01	0.000E+00	0.0
	2212	1	0	0	0	0	0.0000000000E+00	0.0000000000E+00	5.6004668475E+03	5.6004668475E+03	9.3827000000E-01	0.000E+00	0.0
	2212	1	0	0	0	0	0.0000000000E+00	0.0000000000E+00	-6.1911584736E+03	6.1911584736E+03	9.3827000000E-01	0.000E+00	0.0
	51	2	1	2	0	0	-6.2689478261E+01	5.3355095343E+01	7.3795909547E+02	1.2894235653E+03	1.0541597447E+03	0.000E+00	0.0
	1000022	2	5	5	0	0	6.2689478261E+01	-5.3355095343E+01	3.4048414983E+02	9.1674197465E+02	8.4717746365E+02	0.000E+00	0.0
	14	1	6	6	0	0	-2.7362983401E+01	-7.4848113902E+01	4.5065472854E+02	5.6130709720E+02	3.2500000000E+02	0.000E+00	0.0
	-14	1	6	6	0	0	9.0052461663E+01	2.1493018559E+01	-1.1017057870E+02	3.5543487745E+02	3.2500000000E+02	0.000E+00	0.0
	25	2	5	5	0	0	-6.2689478261E+01	5.3355095343E+01	2.5020747624E+02	2.9163270420E+02	1.2517634005E+02	0.000E+00	0.0
	-5	1	9	9	0	501	-9.0728946129E+01	3.3085421995E+01	1.0678944962E+02	1.4404112526E+02	4.1800000000E+00	0.000E+00	0.0
	5	1	9	9	501	0	2.8039467867E+01	2.0269673348E+01	1.4341802662E+02	1.4759157894E+02	4.1800000000E+00	0.000E+00	0.0
</event>
<event>
    11  -1  1.0000000E+00  1.0000000E+00  -1.0000000E+00  -1.0000000E+00
	2212	-1	0	0	0	0	0.0000000000E+00	0.0000000000E+00	6.5000000000E+03	6.5000000000E+03	9.3827000000E-01	0.000E+00	0.0
	2212	-1	0	0	0	0	0.0000000000E+00	0.0000000000E+00	-6.5000000000E+03	6.5000000000E+03	9.3827000000E-01	0.000E+00	0.0
	2212	1	0	0	0	0	0.0000000000E+00	0.0000000000E+00	6.1503358024E+03	6.1503358024E+03	9.3827000000E-01	0.000E+00	0.0
	2212	1	0	0	0	0	0.0000000000E+00	0.0000000000E+00	-5.7222863572E+03	5.7222863572E+03	9.3827000000E-01	0.000E+00	0.0
	51	2	1	2	0	0	4.1637725647E+01	-1.1865790058E+02	-4.4702594510E+02	1.1416654767E+03	1.0429546815E+03	0.000E+00	0.0
	1000022	2	5	5	0	0	-4.1637725647E+01	1.1865790058E+02	-3.3914650845E+02	9.2892102425E+02	8.5560535151E+02	0.000E+00	0.0
	14	1	6	6	0	0	2.5363563883E+02	2.8467063170E+01	-1.2229810878E+02	4.3095619079E+02	3.2500000000E+02	0.000E+00	0.0
	-14	1	6	6	0	0	-2.9527336448E+02	9.0190837414E+01	-2.1684839967E+02	4.9796483346E+02	3.2500000000E+02	0.000E+00	0.0
	25	2	5	5	0	0	4.1637725647E+01	-1.1865790058E+02	-8.8902936703E+01	1.9845681618E+02	1.2517179461E+02	0.000E+00	0.0
	-5	1	9	9	0	501	5.5911330231E+01	-1.2136782089E+02	-1.0956606685E+02	1.7285375380E+02	4.1800000000E+00	0.000E+00	0.0
	5	1	9	9	501	0	-1.4273604584E+01	2.7099203067E+00	2.0663130147E+01	2.5603062383E+01	4.1800000000E+00	0.000E+00	0.0
</event>
<event>
    11  -1  1.0000000E+00  1.0000000E+00  -1.0000000E+00  -1.0000000E+00
	2212	-1	0	0	0	0	0.0000000000E+00	0.0000000000E+00	6.5000000000E+03	6.5000000000E+03	9.3827000000E-01	0.000E+00	0.0
	2212	-1	0	0	0	0	0.0000000000E+00	0.0000000000E+00	-6.5000000000E+03	6.5000000000E+03	9.3827000000E-01	0.000E+00	0.0
	2212	1	0	0	0	0	0.0000000000E+00	0.0000000000E+00	4.9401623863E+03	4.9401623863E+03	9.3827000000E-01	0.000E+00	0.0
	2212	1	0	0	0	0	0.0000000000E+00	0.0000000000E+00	-6.3223261493E+03	6.3223261493E+03	9.3827000000E-01	0.000E+00	0.0
	51	2	1	2	0	0	1.3979444293E+02	-7.6470573598E+00	1.4226925318E+03	1.7754504851E+03	1.0528862337E+03	0.000E+00	0.0
	1000022	2	5	5	0	0	-1.3979444293E+02	7.6470573598E+00	1.1064270562E+03	1.4038936684E+03	8.5272248566E+02	0.000E+00	0.0
	14	1	6	6	0	0	-1.2694847987E+02	-4.1512046703E+01	9.9718549122E+02	1.0572809799E+03	3.2500000000E+02	0.000E+00	0.0
	-14	1	6	6	0	0	-1.2845963061E+01	4.9159104063E+01	1.0924156502E+02	3.4661268847E+02	3.2500000000E+02	0.000E+00	0.0
	25	2	5	5	0	0	1.3979444293E+02	-7.6470573598E+00	2.7573670681E+02	3.3361779606E+02	1.2517642992E+02	0.000E+00	0.0
	-5	1	9	9	0	501	9.8794421603E+01	-3.7001978728E+01	2.6001581484E+02	2.8063353424E+02	4.1800000000E+00	0.000E+00	0.0
	5	1	9	9	501	0	4.1000021325E+01	2.9354921368E+01	1.5720891969E+01	5.2984261828E+01	4.1800000000E+00	0.000E+00	0.0
</event>
<event>
    11  -1  1.0000000E+00  1.0000000E+00  -1.0000000E+00  -1.0000000E+00
	2212	-1	0	0	0	0	0.0000000000E+00	0.0000000000E+00	6.5000000000E+03	6.5000000000E+03	9.3827000000E-01	0.000E+00	0.0
	2212	-1	0	0	0	0	0.0000000000E+00	0.0000000000E+00	-6.5000000000E+03	6.5000000000E+03	9.3827000000E-01	0.000E+00	0.0
	2212	1	0	0	0	0	0.0000000000E+00	0.0000000000E+00	5.9034020997E+03	5.9034020997E+03	9.3827000000E-01	0.000E+00	0.0
	2212	1	0	0	0	0	0.0000000000E+00	0.0000000000E+00	-6.0380300379E+03	6.0380300379E+03	9.3827000000E-01	0.000E+00	0.0
	51	2	1	2	0	0	-1.0633245879E+02	7.7045183954E+01	2.0246331247E+02	1.0773463615E+03	1.0499720175E+03	0.000E+00	0.0
	1000022	2	5	5	0	0	1.0633245879E+02	-7.7045183954E+01	4.3355857422E+01	8.5550856114E+02	8.4425861894E+02	0.000E+00	0.0
	14	1	6	6	0	0	-1.0095218670E+02	-2.4738402667E+02	9.3813377061E+01	4.3106397480E+02	3.2500000000E+02	0.000E+00	0.0
	-14	1	6	6	0	0	2.0728464549E+02	1.7033884271E+02	-5.0457519639E+01	4.2444458635E+02	3.2500000000E+02	0.000E+00	0.0
	25	2	5	5	0	0	-1.0633245879E+02	7.7045183954E+01	9.1272080848E+01	2.0305930123E+02	1.2513966163E+02	0.000E+00	0.0
	-5	1	9	9	0	501	-7.8310174415E+01	3.8089008999E+01	-1.3049808278E+01	8.8153422620E+01	4.1800000000E+00	0.000E+00	0.0
	5	1	9	9	501	0	-2.8022284371E+01	3.8956174956E+01	1.0432188913E+02	1.1490587861E+02	4.1800000000E+00	0.000E+00	0.0
</event>
<event>
    11  -1  1.0000000E+00  1.0000000E+00  -1.0000000E+00  -1.0000000E+00
	2212	-1	0	0	0	0	0.0000000000E+00	0.0000000000E+00	6.5000000000E+03	6.5000000000E+03	9.3827000000E-01	0.000E+00	0.0
	2212	-1	0	0	0	0	0.0000000000E+00	0.0000000000E+00	-6.5000000000E+03	6.5000000000E+03	9.3827000000E-01	0.000E+00	0.0
	2212	1	0	0	0	0	0.0000000000E+00	0.0000000000E+00	4.9753484255E+03	4.9753484255E+03	9.3827000000E-01	0.000E+00	0.0
	2212	1	0	0	0	0	0.0000000000E+00	0.0000000000E+00	-6.3197400695E+03	6.3197400695E+03	9.3827000000E-01	0.000E+00	0.0
	51	2	1	2	0	0	1.2493101094E+02	-4.6595956762E+01	1.4091170882E+03	1.7614551531E+03	1.0484914627E+03	0.000E+00	0.0
	1000022	2	5	5	0	0	-1.2493101094E+02	4.6595956762E+01	1.0529105064E+03	1.3608040416E+03	8.5169722570E+02	0.000E+00	0.0
	14	1	6	6	0	0	1.8695731572E+02	-5.5784601040E+01	3.2825141008E+02	5.0143688320E+02	3.2500000000E+02	0.000E+00	0.0
	-14	1	6	6	0	0	-3.1188832666E+02	1.0238055780E+02	7.2465909636E+02	8.5936715836E+02	3.2500000000E+02	0.000E+00	0.0
	25	2	5	5	0	0	1.2493101094E+02	-4.6595956762E+01	2.9148113756E+02	3.4410746341E+02	1.2517888057E+02	0.000E+00	0.0
	-5	1	9	9	0	501	-2.0735201948E+01	-1.7890511374E+01	1.8427900530E+01	3.3272795419E+01	4.1800000000E+00	0.000E+00	0.0
	5	1	9	9	501	0	1.4566621289E+02	-2.8705445388E+01	2.7305323703E+02	3.1083466799E+02	4.1800000000E+00	0.000E+00	0.0
</event>
<event>
    11  -1  1.0000000E+00  1.0000000E+00  -1.0000000E+00  -1.0000000E+00
	2212	-1	0	0	0	0	0.0000000000E+00	0.0000000000E+00	6.5000000000E+03	6.5000000000E+03	9.3827000000E-01	0.000E+00	0.0
	2212	-1	0	0	0	0	0.0000000000E+00	0.0000000000E+00	-6.5000000000E+03	6.5000000000E+03	9.3827000000E-01	0.000E+00	0.0
	2212	1	0	0	0	0	0.0000000000E+00	0.0000000000E+00	6.3055665756E+03	6.3055665756E+03	9.3827000000E-01	0.000E+00	0.0
	2212	1	0	0	0	0	0.0000000000E+00	0.0000000000E+00	-5.0780073071E+03	5.0780073071E+03	9.3827000000E-01	0.000E+00	0.0
	51	2	1	2	0	0	-3.8144087938E+01	1.3827005842E+02	-1.2414686819E+03	1.6333247393E+03	1.0516328424E+03	0.000E+00	0.0
	1000022	2	5	5	0	0	3.8144087938E+01	-1.3827005842E+02	-1.0027825171E+03	1.3218614950E+03	8.4921814327E+02	0.000E+00	0.0
	14	1	6	6	0	0	-9.6129837674E+01	1.7448758078E+02	-5.4697329706E+02	6.6670206932E+02	3.2500000000E+02	0.000E+00	0.0
	-14	1	6	6	0	0	1.3427392561E+02	-3.1275763920E+02	-4.5580921999E+02	6.5515942564E+02	3.2500000000E+02	0.000E+00	0.0
	25	2	5	5	0	0	-3.8144087938E+01	1.3827005842E+02	-2.2477675142E+02	2.9456462237E+02	1.2518046282E+02	0.000E+00	0.0
	-5	1	9	9	0	501	3.3669348074E+01	2.4305071867E+00	-6.1761859977E+01	7.0509092412E+01	4.1800000000E+00	0.000E+00	0.0
	5	1	9	9	501	0	-7.1813436012E+01	1.3583955124E+02	-1.6301489145E+02	2.2405552996E+02	4.1800000000E+00	0.000E+00	0.0
</event>
<event>
    11  -1  1.0000000E+00  1.0000000E+00  -1.0000000E+00  -1.0000000E+00
	2212	-1	0	0	0	0	0.0000000000E+00	0.0000000000E+00	6.5000000000E+03	6.5000000000E+03	9.3827000000E-01	0.000E+00	0.0
	2212	-1	0	0	0	0	0.0000000000E+00	0.0000000000E+00	-6.5000000000E+03	6.5000000000E+03	9.3827000000E-01	0.000E+00	0.0
	2212	1	0	0	0	0	0.0000000000E+00	0.0000000000E+00	5.7680628016E+03	5.7680628016E+03	9.3827000000E-01	0.000E+00	0.0
	2212	1	0	0	0	0	0.0000000000E+00	0.0000000000E+00	-6.1287115529E+03	6.1287115529E+03	9.3827000000E-01	0.000E+00	0.0
	51	2	1	2	0	0	-1.1143694605E+02	4.6652078208E+01	3.8428455722E+02	1.1177247127E+03	1.0426117700E+03	0.000E+00	0.0
	1000022	2	5	5	0	0	1.1143694605E+02	-4.6652078208E+01	2.7891760177E+02	9.1101274277E+02	8.5880997873E+02	0.000E+00	0.0
	14	1	6	6	0	0	2.7475646676E+01	2.5555015085E+02	1.5790319302E+02	4.4341764638E+02	3.2500000000E+02	0.000E+00	0.0
	-14	1	6	6	0	0	8.3961299378E+01	-3.0220222906E+02	1.2101440875E+02	4.6759509639E+02	3.2500000000E+02	0.000E+00	0.0
	25	2	5	5	0	0	-1.1143694605E+02	4.6652078208E+01	8.1731149485E+01	1.9221290269E+02	1.2518470282E+02	0.000E+00	0.0
	-5	1	9	9	0	501	-3.5646002499E+01	3.9698751367E+01	-2.6591485973E+01	5.9759584005E+01	4.1800000000E+00	0.000E+00	0.0
	5	1	9	9	501	0	-7.5790943555E+01	6.9533268409E+00	1.0832263546E+02	1.3245331869E+02	4.1800000000E+00	0.000E+00	0.0
</event>
<event>
    11  -1  1.0000000E+00  1.0000000E+00  -1.0000000E+00  -1.0000000E+00
	2212	-1	0	0	0	0	0.0000000000E+00	0.0000000000E+00	6.5000000000E+03	6.5000000000E+03	9.3827000000E-01	0.000E+00	0.0
	2212	-1	0	0	0	0	0.0000000000E+00	0.0000000000E+00	-6.5000000000E+03	6.5000000000E+03	9.3827000000E-01	0.000E+00	0.0
	2212	1	0	0	0	0	0.0000000000E+00	0.0000000000E+00	6.2776241253E+03	6.2776241253E+03	9.3827000000E-01	0.000E+00	0.0
	2212	1	0	0	0	0	0.0000000000E+00	0.0000000000E+00	-5.2580846499E+03	5.2580846499E+03	9.3827000000E-01	0.000E+00	0.0
	51	2	1	2	0	0	1.3232042294E+02	-5.5972992423E+01	-9.4925875980E+02	1.4235244685E+03	1.0510414117E+03	0.000E+00	0.0
	1000022	2	5	5	0	0	-1.3232042294E+02	5.5972992423E+01	-9.0748725058E+02	1.2431862918E+03	8.3745888017E+02	0.000E+00	0.0
	14	1	6	6	0	0	-1.0200759247E+02	9.0033387621E+01	-9.2006215271E+01	3.6414516811E+02	3.2500000000E+02	0.000E+00	0.0
	-14	1	6	6	0	0	-3.0312830467E+01	-3.4060395198E+01	-8.1548103531E+02	8.7904112370E+02	3.2500000000E+02	0.000E+00	0.0
	25	2	5	5	0	0	1.3232042294E+02	-5.5972992423E+01	-1.1205222486E+02	2.2110493299E+02	1.2525981035E+02	0.000E+00	0.0
	-5	1	9	9	0	501	1.5859702334E+01	3.7496484898E+01	-1.9156042046E+01	4.5187862139E+01	4.1800000000E+00	0.000E+00	0.0
	5	1	9	9	501	0	1.1646072061E+02	-9.3469477322E+01	-9.2896182818E+01	1.7591707085E+02	4.1800000000E+00	0.000E+00	0.0
</event>
<event>
    11  -1  1.0000000E+00  1.0000000E+00  -1.0000000E+00  -1.0000000E+00
	2212	-1	0	0	0	0	0.0000000000E+00	0.0000000000E+00	6.5000000000E+03	6.5000000000E+03	9.3827000000E-01	0.000E+00	0.0
	2212	-1	0	0	0	0	0.0000000000E+00	0.0000000000E+00	-6.5000000000E+03	6.5000000000E+03	9.3827000000E-01	0.000E+00	0.0
	2212	1	0	0	0	0	0.0000000000E+00	0.0000000000E+00	5.8943186992E+03	5.8943186992E+03	9.3827000000E-01	0.000E+00	0.0
	2212	1	0	0	0	0	0.0000000000E+00	0.0000000000E+00	-6.0433073633E+03	6.0433073633E+03	9.3827000000E-01	0.000E+00	0.0
	51	2	1	2	0	0	-4.5644446283E+01	-1.0765000197E+02	7.4850801015E+01	1.0609973336E+03	1.0518748790E+03	0.000E+00	0.0
	1000022	2	5	5	0	0	4.5644446283E+01	1.0765000197E+02	1.9792650265E+02	8.8406002910E+02	8.5364822744E+02	0.000E+00	0.0
	14	1	6	6	0	0	-1.5377460231E+02	-1.5615096581E+02	3.9035153421E+01	3.9392701817E+02	3.2500000000E+02	0.000E+00	0.0
	-14	1	6	6	0	0	1.9941904860E+02	2.6380096778E+02	1.5889134923E+02	4.9013301093E+02	3.2500000000E+02	0.000E+00	0.0
	25	2	5	5	0	0	-4.5644446283E+01	-1.0765000197E+02	-4.8937838500E+01	1.7831390844E+02	1.2541530810E+02	0.000E+00	0.0
	-5	1	9	9	0	501	3.8803145208E+01	-5.5171585634E+01	-3.9687255908E+01	7.8371797357E+01	4.1800000000E+00	0.000E+00	0.0
	5	1	9	9	501	0	-8.4447591491E+01	-5.2478416331E+01	-9.2505825918E+00	9.9942111082E+01	4.1800000000E+00	0.000E+00	0.0
</event>
<event>
    11  -1  1.0000000E+00  1.0000000E+00  -1.0000000E+00  -1.0000000E+00
	2212	-1	0	0	0	0	0.0000000000E+00	0.0000000000E+00	6.5000000000E+03	6.5000000000E+03	9.3827000000E-01	0.000E+00	0.0
	2212	-1	0	0	0	0	0.0000000000E+00	0.0000000000E+00	-6.5000000000E+03	6.5000000000E+03	9.3827000000E-01	0.000E+00	0.0
	2212	1	0	0	0	0	0.0000000000E+00	0.0000000000E+00	5.3403775943E+03	5.3403775943E+03	9.3827000000E-01	0.000E+00	0.0
	2212	1	0	0	0	0	0.0000000000E+00	0.0000000000E+00	-6.2589227808E+03	6.2589227808E+03	9.3827000000E-01	0.000E+00	0.0
	51	2	1	2	0	0	7.1361629399E+01	1.2222094725E+02	9.7323465442E+02	1.4441088304E+03	1.0574659235E+03	0.000E+00	0.0
	1000022	2	5	5	0	0	-7.1361629399E+01	-1.2222094725E+02	7.0566719244E+02	1.1160670015E+03	8.5299995507E+02	0.000E+00	0.0
	14	1	6	6	0	0	-9.7068638716E+01	-2.4988186500E+02	6.2996921352E+02	7.5785848090E+02	3.2500000000E+02	0.000E+00	0.0
	-14	1	6	6	0	0	2.5707009317E+01	1.2766091775E+02	7.5697978913E+01	3.5820852064E+02	3.2500000000E+02	0.000E+00	0.0
	25	2	5	5	0	0	7.1361629399E+01	1.2222094725E+02	2.1287799408E+02	2.8463262333E+02	1.2517287168E+02	0.000E+00	0.0
	-5	1	9	9	0	501	-3.0233918004E+00	2.8204805785E+01	-1.0945227372E+01	3.0690753812E+01	4.1800000000E+00	0.000E+00	0.0
	5	1	9	9	501	0	7.4385021199E+01	9.4016141465E+01	2.2382322145E+02	2.5394186952E+02	4.1800000000E+00	0.000E+00	0.0
</event>
<event>
    11  -1  1.0000000E+00  1.0000000E+00  -1.0000000E+00  -1.0000000E+00
	2212	-1	0	0	0	0	0.0000000000E+00	0.0000000000E+00	6.5000000000E+03	6.5000000000E+03	9.3827000000E-01	0.000E+00	0.0
	2212	-1	0	0	0	0	0.0000000000E+00	0.0000000000E+00	-6.5000000000E+03	6.5000000000E+03	9.3827000000E-01	0.000E+00	0.0
	2212	1	0	0	0	0	0.0000000000E+00	0.0000000000E+00	6.0125601642E+03	6.0125601642E+03	9.3827000000E-01	0.000E+00	0.0
	2212	1	0	0	0	0	0.0000000000E+00	0.0000000000E+00	-5.9316182487E+03	5.9316182487E+03	9.3827000000E-01	0.000E+00	0.0
	51	2	1	2	0	0	1.3647819128E+01	2.6864452812E+01	5.3644457601E+01	1.0545109387E+03	1.0527144105E+03	0.000E+00	0.0
	1000022	2	5	5	0	0	-1.3647819128E+01	-2.6864452812E+01	-2.0188585481E+02	8.7917776011E+02	8.5515359656E+02	0.000E+00	0.0
	14	1	6	6	0	0	-3.1706920187E+00	2.6399207396E+02	-8.1190965660E+01	4.2651945009E+02	3.2500000000E+02	0.000E+00	0.0
	-14	1	6	6	0	0	-1.0477127109E+01	-2.9085652677E+02	-1.2069488915E+02	4.5265831002E+02	3.2500000000E+02	0.000E+00	0.0
	25	2	5	5	0	0	1.3647819128E+01	2.6864452812E+01	1.2094393930E+02	1.7664382702E+02	1.2517045730E+02	0.000E+00	0.0
	-5	1	9	9	0	501	6.5979084007E+01	3.5960860140E+01	7.5714478621E+01	1.0675475475E+02	4.1800000000E+00	0.000E+00	0.0
	5	1	9	9	501	0	-5.2331264878E+01	-9.0964073285E+00	4.5229460680E+01	6.9889072275E+01	4.1800000000E+00	0.000E+00	0.0
</event>
<event>
    11  -1  1.0000000E+00  1.0000000E+00  -1.0000000E+00  -1.0000000E+00
	2212	-1	0	0	0	0	0.0000000000E+00	0.0000000000E+00	6.5000000000E+03	6.5000000000E+03	9.3827000000E-01	0.000E+00	0.0
	2212	-1	0	0	0	0	0.0000000000E+00	0.0000000000E+00	-6.5000000000E+03	6.5000000000E+03	9.3827000000E-01	0.000E+00	0.0
	2212	1	0	0	0	0	0.0000000000E+00	0.0000000000E+00	6.1748329623E+03	6.1748329623E+03	9.3827000000E-01	0.000E+00	0.0
	2212	1	0	0	0	0	0.0000000000E+00	0.0000000000E+00	-5.6761378867E+03	5.6761378867E+03	9.3827000000E-01	0.000E+00	0.0
	51	2	1	2	0	0	6.4605615757E+01	-2.7326317961E+01	-6.1318145273E+02	1.2051901587E+03	1.0351672384E+03	0.000E+00	0.0
	1000022	2	5	5	0	0	-6.4605615757E+01	2.7326317961E+01	-3.0355341247E+02	9.0703259135E+02	8.5184671996E+02	0.000E+00	0.0
	14	1	6	6	0	0	-2.2386666230E+02	3.7484971546E+01	5.1716579580E+01	3.9977620012E+02	3.2500000000E+02	0.000E+00	0.0
	-14	1	6	6	0	0	1.5926104655E+02	-1.0158653586E+01	-3.5526999205E+02	5.0725639123E+02	3.2500000000E+02	0.000E+00	0.0
	25	2	5	5	0	0	6.4605615757E+01	-2.7326317961E+01	-1.9514166304E+02	2.4199655966E+02	1.2474555299E+02	0.000E+00	0.0
	-5	1	9	9	0	501	6.2873236194E+01	1.1445390424E+01	-2.7202951868E+01	6.9580987215E+01	4.1800000000E+00	0.000E+00	0.0
	5	1	9	9	501	0	1.7323795630E+00	-3.8771708385E+01	-1.6793871117E+02	1.7241557244E+02	4.1800000000E+00	0.000E+00	0.0
</event>
<event>
    11  -1  1.0000000E+00  1.0000000E+00  -1.0000000E+00  -1.0000000E+00
	2212	-1	0	0	0	0	0.0000000000E+00	0.0000000000E+00	6.5000000000E+03	6.5000000000E+03	9.3827000000E-01	0.000E+00	0.0
	2212	-1	0	0	0	0	0.0000000000E+00	0.0000000000E+00	-6.5000000000E+03	6.5000000000E+03	9.3827000000E-01	0.000E+00	0.0
	2212	1	0	0	0	0	0.0000000000E+00	0.0000000000E+00	5.7998080463E+03	5.7998080463E+03	9.3827000000E-01	0.000E+00	0.0
	2212	1	0	0	0	0	0.0000000000E+00	0.0000000000E+00	-6.1008691997E+03	6.1008691997E+03	9.3827000000E-01	0.000E+00	0.0
	51	2	1	2	0	0	-2.8644167943E+01	6.4019427272E+01	1.7193763301E+02	1.0734776311E+03	1.0572949917E+03	0.000E+00	0.0
	1000022	2	5	5	0	0	2.8644167943E+01	-6.4019427272E+01	3.7845795314E+02	9.3628810825E+02	8.5351392721E+02	0.000E+00	0.0
	14	1	6	6	0	0	1.8838037038E+02	1.8166914456E+02	2.1250083065E+02	4.6826535752E+02	3.2500000000E+02	0.000E+00	0.0
	-14	1	6	6	0	0	-1.5973620244E+02	-2.4568857183E+02	1.6595712249E+02	4.6802275073E+02	3.2500000000E+02	0.000E+00	0.0
	25	2	5	5	0	0	-2.8644167943E+01	6.4019427272E+01	-7.7396799727E+01	1.6303464580E+02	1.2518408724E+02	0.000E+00	0.0
	-5	1	9	9	0	501	-1.3173991116E+01	-3.1569218430E+01	6.2305674258E+00	3.5020878982E+01	4.1800000000E+00	0.000E+00	0.0
	5	1	9	9	501	0	-1.5470176827E+01	9.5588645702E+01	-8.3627367153E+01	1.2801376682E+02	4.1800000000E+00	0.000E+00	0.0
</event>
<event>
    11  -1  1.0000000E+00  1.0000000E+00  -1.0000000E+00  -1.0000000E+00
	2212	-1	0	0	0	0	0.0000000000E+00	0.0000000000E+00	6.5000000000E+03	6.5000000000E+03	9.3827000000E-01	0.000E+00	0.0
	2212	-1	0	0	0	0	0.0000000000E+00	0.0000000000E+00	-6.5000000000E+03	6.5000000000E+03	9.3827000000E-01	0.000E+00	0.0
	2212	1	0	0	0	0	0.0000000000E+00	0.0000000000E+00	6.1552638399E+03	6.1552638399E+03	9.3827000000E-01	0.000E+00	0.0
	2212	1	0	0	0	0	0.0000000000E+00	0.0000000000E+00	-5.6993373024E+03	5.6993373024E+03	9.3827000000E-01	0.000E+00	0.0
	51	2	1	2	0	0	1.2879681108E+02	-6.4597613080E+01	-5.1191991936E+02	1.1776642177E+03	1.0507471321E+03	0.000E+00	0.0
	1000022	2	5	5	0	0	-1.2879681108E+02	6.4597613080E+01	-3.1935398905E+02	9.1069894344E+02	8.4060937724E+02	0.000E+00	0.0
	14	1	6	6	0	0	-3.2731484052E+02	8.8059537407E+01	-1.4734661983E+02	4.9216411219E+02	3.2500000000E+02	0.000E+00	0.0
	-14	1	6	6	0	0	1.9851802944E+02	-2.3461924327E+01	-1.7200736922E+02	4.1853483125E+02	3.2500000000E+02	0.000E+00	0.0
	25	2	5	5	0	0	1.2879681108E+02	-6.4597613080E+01	-1.3657254846E+02	2.3469991424E+02	1.2518194196E+02	0.000E+00	0.0
	-5	1	9	9	0	501	1.4746971908E+02	-4.2476306031E+01	-1.3653224145E+02	2.0545091865E+02	4.1800000000E+00	0.000E+00	0.0
	5	1	9	9	501	0	-1.8672907995E+01	-2.2121307049E+01	-4.0307010599E-02	2.9248995593E+01	4.1800000000E+00	0.000E+00	0.0
</event>
<event>
    11  -1  1.0000000E+00  1.0000000E+00  -1.0000000E+00  -1.0000000E+00
	2212	-1	0	0	0	0	0.0000000000E+00	0.0000000000E+00	6.5000000000E+03	6.5000000000E+03	9.3827000000E-01	0.000E+00	0.0
	2212	-1	0	0	0	0	0.0000000000E+00	0.0000000000E+00	-6.5000000000E+03	6.5000000000E+03	9.3827000000E-01	0.000E+00	0.0
	2212	1	0	0	0	0	0.0000000000E+00	0.0000000000E+00	4.9977302012E+03	4.9977302012E+03	9.3827000000E-01	0.000E+00	0.0
	2212	1	0	0	0	0	0.0000000000E+00	0.0000000000E+00	-6.3154454884E+03	6.3154454884E+03	9.3827000000E-01	0.000E+00	0.0
	51	2	1	2	0	0	-3.9062222370E+00	-7.3810617290E+01	1.5201709700E+03	1.8507797599E+03	1.0530919598E+03	0.000E+00	0.0
	1000022	2	5	5	0	0	3.9062222370E+00	7.3810617290E+01	8.9171041144E+02	1.2367006597E+03	8.5370826289E+02	0.000E+00	0.0
	14	1	6	6	0	0	7.5083410121E+00	4.9985328600E+01	4.8194506026E+01	3.3241934160E+02	3.2500000000E+02	0.000E+00	0.0
	-14	1	6	6	0	0	-3.6021187751E+00	2.3825288690E+01	8.4351590542E+02	9.0428131814E+02	3.2500000000E+02	0.000E+00	0.0
	25	2	5	5	0	0	-3.9062222370E+00	-7.3810617290E+01	4.2600487577E+02	4.5012365061E+02	1.2517140596E+02	0.000E+00	0.0
	-5	1	9	9	0	501	3.9391935824E+01	1.2952822584E+01	7.3422974106E+01	8.4426925488E+01	4.1800000000E+00	0.000E+00	0.0
	5	1	9	9	501	0	-4.3298158061E+01	-8.6763439874E+01	3.5258190166E+02	3.6569672513E+02	4.1800000000E+00	0.000E+00	0.0
</event>
<event>
    11  -1  1.0000000E+00  1.0000000E+00  -1.0000000E+00  -1.0000000E+00
	2212	-1	0	0	0	0	0.0000000000E+00	0.0000000000E+00	6.5000000000E+03	6.5000000000E+03	9.3827000000E-01	0.000E+00	0.0
	2212	-1	0	0	0	0	0.0000000000E+00	0.0000000000E+00	-6.5000000000E+03	6.5000000000E+03	9.3827000000E-01	0.000E+00	0.0
	2212	1	0	0	0	0	0.0000000000E+00	0.0000000000E+00	5.0454921501E+03	5.0454921501E+03	9.3827000000E-01	0.000E+00	0.0
	2212	1	0	0	0	0	0.0000000000E+00	0.0000000000E+00	-6.3173784988E+03	6.3173784988E+03	9.3827000000E-01	0.000E+00	0.0
	51	2	1	2	0	0	-7.4955854812E+01	-7.6754237955E+01	1.3539696872E+03	1.7050633816E+03	1.0307752558E+03	0.000E+00	0.0
	1000022	2	5	5	0	0	7.4955854812E+01	7.6754237955E+01	9.8658693490E+02	1.3076224199E+03	8.5147696369E+02	0.000E+00	0.0
	14	1	6	6	0	0	2.1796315401E+02	-7.1512542910E+01	2.3179257703E+02	4.6040718833E+02	3.2500000000E+02	0.000E+00	0.0
	-14	1	6	6	0	0	-1.4300729920E+02	1.4826678087E+02	7.5479435787E+02	8.4721523157E+02	3.2500000000E+02	0.000E+00	0.0
	25	2	5	5	0	0	-7.4955854812E+01	-7.6754237955E+01	2.8529941382E+02	3.2950693116E+02	1.2517774938E+02	0.000E+00	0.0
	-5	1	9	9	0	501	-6.9534161460E+01	-5.0886282867E+01	2.8980477310E+02	3.0237177828E+02	4.1800000000E+00	0.000E+00	0.0
	5	1	9	9	501	0	-5.4216933515E+00	-2.5867955088E+01	-4.5053592746E+00	2.7135152873E+01	4.1800000000E+00	0.000E+00	0.0
</event>
<event>
    11  -1  1.0000000E+00  1.0000000E+00  -1.0000000E+00  -1.0000000E+00
	2212	-1	0	0	0	0	0.0000000000E+00	0.0000000000E+00	6.5000000000E+03	6.5000000000E+03	9.3827000000E-01	0.000E+00	0.0
	2212	-1	0	0	0	0	0.0000000000E+00	0.0000000000E+00	-6.5000000000E+03	6.5000000000E+03	9.3827000000E-01	0.000E+00	0.0
	2212	1	0	0	0	0	0.0000000000E+00	0.0000000000E+00	6.2769454362E+03	6.2769454362E+03	9.3827000000E-01	0.000E+00	0.0
	2212	1	0	0	0	0	0.0000000000E+00	0.0000000000E+00	-5.2586935999E+03	5.2586935999E+03	9.3827000000E-01	0.000E+00	0.0
	51	2	1	2	0	0	2.7708387987E+01	6.6503155487E+01	-8.5876553381E+02	1.3602150187E+03	1.0523859704E+03	0.000E+00	0.0
	1000022	2	5	5	0	0	-2.7708387987E+01	-6.6503155487E+01	-1.0044249139E+03	1.3192629482E+03	8.5228803477E+02	0.000E+00	0.0
	14	1	6	6	0	0	1.9824604833E+02	2.6290306673E+01	-2.3258305632E+02	4.4689210554E+02	3.2500000000E+02	0.000E+00	0.0
	-14	1	6	6	0	0	-2.2595443631E+02	-9.2793462160E+01	-7.7184185760E+02	8.7237084262E+02	3.2500000000E+02	0.000E+00	0.0
	25	2	5	5	0	0	2.7708387987E+01	6.6503155487E+01	-1.3826922379E+01	1.4509801583E+02	1.2518716372E+02	0.000E+00	0.0
	-5	1	9	9	0	501	2.9072657588E+01	9.8851795557E+01	-3.1692427884E+01	1.0788317426E+02	4.1800000000E+00	0.000E+00	0.0
	5	1	9	9	501	0	-1.3642696007E+00	-3.2348640070E+01	1.7865505505E+01	3.7214841567E+01	4.1800000000E+00	0.000E+00	0.0
</event>
<event>
    11  -1  1.0000000E+00  1.0000000E+00  -1.0000000E+00  -1.0000000E+00
	2212	-1	0	0	0	0	0.0000000000E+00	0.0000000000E+00	6.5000000000E+03	6.5000000000E+03	9.3827000000E-01	0.000E+00	0.0
	2212	-1	0	0	0	0	0.0000000000E+00	0.0000000000E+00	-6.5000000000E+03	6.5000000000E+03	9.3827000000E-01	0.000E+00	0.0
	2212	1	0	0	0	0	0.0000000000E+00	0.0000000000E+00	5.4169568442E+03	5.4169568442E+03	9.3827000000E-01	0.000E+00	0.0
	2212	1	0	0	0	0	0.0000000000E+00	0.0000000000E+00	-6.2444043778E+03	6.2444043778E+03	9.3827000000E-01	0.000E+00	0.0
	51	2	1	2	0	0	3.8018619660E+01	-1.3707762732E+02	8.0174059744E+02	1.3305292307E+03	1.0522757989E+03	0.000E+00	0.0
	1000022	2	5	5	0	0	-3.8018619660E+01	1.3707762732E+02	7.1050468438E+02	1.1159705094E+03	8.4872703506E+02	0.000E+00	0.0
	14	1	6	6	0	0	3.2169279702E+01	2.0090707237E+02	6.7575164679E+01	3.8934549845E+02	3.2500000000E+02	0.000E+00	0.0
	-14	1	6	6	0	0	-7.0187899361E+01	-6.3829445050E+01	6.4292951970E+02	7.2662501097E+02	3.2500000000E+02	0.000E+00	0.0
	25	2	5	5	0	0	3.8018619660E+01	-1.3707762732E+02	1.1694284923E+02	2.2266826849E+02	1.2517921734E+02	0.000E+00	0.0
	-5	1	9	9	0	501	4.8935545510E+01	-8.9162392240E+01	6.8404759865E+00	1.0202393992E+02	4.1800000000E+00	0.000E+00	0.0
	5	1	9	9	501	0	-1.0916925850E+01	-4.7915235078E+01	1.1010237324E+02	1.2064432857E+02	4.1800000000E+00	0.000E+00	0.0
</event>
<event>
    11  -1  1.0000000E+00  1.0000000E+00  -1.0000000E+00  -1.0000000E+00
	2212	-1	0	0	0	0	0.0000000000E+00	0.0000000000E+00	6.5000000000E+03	6.5000000000E+03	9.3827000000E-01	0.000E+00	0.0
	2212	-1	0	0	0	0	0.0000000000E+00	0.0000000000E+00	-6.5000000000E+03	6.5000000000E+03	9.3827000000E-01	0.000E+00	0.0
	2212	1	0	0	0	0	0.0000000000E+00	0.0000000000E+00	4.9096129475E+03	4.9096129475E+03	9.3827000000E-01	0.000E+00	0.0
	2212	1	0	0	0	0	0.0000000000E+00	0.0000000000E+00	-6.3257799683E+03	6.3257799683E+03	9.3827000000E-01	0.000E+00	0.0
	51	2	1	2	0	0	1.3964949206E+01	4.8958962935E+01	1.6496150713E+03	1.9575829521E+03	1.0527626186E+03	0.000E+00	0.0
	1000022	2	5	5	0	0	-1.3964949206E+01	-4.8958962935E+01	9.4154145858E+02	1.2711133118E+03	8.5242989933E+02	0.000E+00	0.0
	14	1	6	6	0	0	4.0286196188E+01	-2.7017817308E+02	3.1180191233E+02	5.2674913891E+02	3.2500000000E+02	0.000E+00	0.0
	-14	1	6	6	0	0	-5.4251145394E+01	2.2121921015E+02	6.2973954625E+02	7.4436417286E+02	3.2500000000E+02	0.000E+00	0.0
	25	2	5	5	0	0	1.3964949206E+01	4.8958962935E+01	4.7462556222E+02	4.9349377249E+02	1.2519855959E+02	0.000E+00	0.0
	-5	1	9	9	0	501	1.2813898389E+01	5.7476470120E+01	4.7925271737E+02	4.8287511855E+02	4.1800000000E+00	0.000E+00	0.0
	5	1	9	9	501	0	1.1510508163E+00	-8.5175071857E+00	-4.6271551565E+00	1.0618653939E+01	4.1800000000E+00	0.000E+00	0.0
</event>
<event>
    11  -1  1.0000000E+00  1.0000000E+00  -1.0000000E+00  -1.0000000E+00
	2212	-1	0	0	0	0	0.0000000000E+00	0.0000000000E+00	6.5000000000E+03	6.5000000000E+03	9.3827000000E-01	0.000E+00	0.0
	2212	-1	0	0	0	0	0.0000000000E+00	0.0000000000E+00	-6.5000000000E+03	6.5000000000E+03	9.3827000000E-01	0.000E+00	0.0
	2212	1	0	0	0	0	0.0000000000E+00	0.0000000000E+00	6.1977442950E+03	6.1977442950E+03	9.3827000000E-01	0.000E+00	0.0
	2212	1	0	0	0	0	0.0000000000E+00	0.0000000000E+00	-5.6301525683E+03	5.6301525683E+03	9.3827000000E-01	0.000E+00	0.0
	51	2	1	2	0	0	-5.0462780787E+01	4.5725853091E+01	-4.6705367732E+02	1.1289118115E+03	1.0255073840E+03	0.000E+00	0.0
	1000022	2	5	5	0	0	5.0462780787E+01	-4.5725853091E+01	-5.7802221273E+02	1.0292181806E+03	8.4884806586E+02	0.000E+00	0.0
	14	1	6	6	0	0	-2.3865386682E+02	-6.7525656800E+01	-2.1321344028E+02	4.6108605877E+02	3.2500000000E+02	0.000E+00	0.0
	-14	1	6	6	0	0	2.8911664760E+02	2.1799803709E+01	-3.6480877245E+02	5.6813212180E+02	3.2500000000E+02	0.000E+00	0.0
	25	2	5	5	0	0	-5.0462780787E+01	4.5725853091E+01	1.0430485946E+01	1.4288495613E+02	1.2517974982E+02	0.000E+00	0.0
	-5	1	9	9	0	501	-3.3500932725E+01	7.2809240477E+01	4.7898832023E+01	9.3462658326E+01	4.1800000000E+00	0.000E+00	0.0
	5	1	9	9	501	0	-1.6961848061E+01	-2.7083387386E+01	-3.7468346077E+01	4.9422297799E+01	4.1800000000E+00	0.000E+00	0.0
</event>
<event>
    11  -1  1.0000000E+00  1.0000000E+00  -1.0000000E+00  -1.0000000E+00
	2212	-1	0	0	0	0	0.0000000000E+00	0.0000000000E+00	6.5000000000E+03	6.5000000000E+03	9.3827000000E-01	0.000E+00	0.0
	2212	-1	0	0	0	0	0.0000000000E+00	0.0000000000E+00	-6.5000000000E+03	6.5000000000E+03	9.3827000000E-01	0.000E+00	0.0
	2212	1	0	0	0	0	0.0000000000E+00	0.0000000000E+00	5.3890338919E+03	5.3890338919E+03	9.3827000000E-01	0.000E+00	0.0
	2212	1	0	0	0	0	0.0000000000E+00	0.0000000000E+00	-6.2414756796E+03	6.2414756796E+03	9.3827000000E-01	0.000E+00	0.0
	51	2	1	2	0	0	-4.4307993812E+01	-1.3527976683E+02	9.9098153290E+02	1.4666817121E+03	1.0718428207E+03	0.000E+00	0.0
	1000022	2	5	5	0	0	4.4307993812E+01	1.3527976683E+02	5.5469323776E+02	1.0165222257E+03	8.3986250886E+02	0.000E+00	0.0
	14	1	6	6	0	0	-1.6681048324E+02	2.3365843310E+02	1.8325828769E+02	4.7077659318E+02	3.2500000000E+02	0.000E+00	0.0
	-14	1	6	6	0	0	2.1111847705E+02	-9.8378666268E+01	3.7143495008E+02	5.4574563257E+02	3.2500000000E+02	0.000E+00	0.0
	25	2	5	5	0	0	-4.4307993812E+01	-1.3527976683E+02	2.9774854995E+02	3.5296820277E+02	1.2517403700E+02	0.000E+00	0.0
	-5	1	9	9	0	501	-5.8395180318E+01	-1.2962104997E+01	5.8024551590E+01	8.3440603051E+01	4.1800000000E+00	0.000E+00	0.0
	5	1	9	9	501	0	1.4087186506E+01	-1.2231766183E+02	2.3972399837E+02	2.6952759972E+02	4.1800000000E+00	0.000E+00	0.0
</event>
<event>
    11  -1  1.0000000E+00  1.0000000E+00  -1.0000000E+00  -1.0000000E+00
	2212	-1	0	0	0	0	0.0000000000E+00	0.0000000000E+00	6.5000000000E+03	6.5000000000E+03	9.3827000000E-01	0.000E+00	0.0
	2212	-1	0	0	0	0	0.0000000000E+00	0.0000000000E+00	-6.5000000000E+03	6.5000000000E+03	9.3827000000E-01	0.000E+00	0.0
	2212	1	0	0	0	0	0.0000000000E+00	0.0000000000E+00	6.1683077819E+03	6.1683077819E+03	9.3827000000E-01	0.000E+00	0.0
	2212	1	0	0	0	0	0.0000000000E+00	0.0000000000E+00	-5.6666667469E+03	5.6666667469E+03	9.3827000000E-01	0.000E+00	0.0
	51	2	1	2	0	0	-1.5302580327E+01	3.1864084853E+01	-6.5042321588E+02	1.2369076235E+03	1.0514944700E+03	0.000E+00	0.0
	1000022	2	5	5	0	0	1.5302580327E+01	-3.1864084853E+01	-2.6906767759E+02	8.9854429634E+02	8.5658329922E+02	0.000E+00	0.0
	14	1	6	6	0	0	9.0041745837E+01	1.4930552184E+02	-3.5226480366E+02	5.1001484953E+02	3.2500000000E+02	0.000E+00	0.0
	-14	1	6	6	0	0	-7.4739165510E+01	-1.8116960669E+02	8.3197126069E+01	3.8852944681E+02	3.2500000000E+02	0.000E+00	0.0
	25	2	5	5	0	0	-1.5302580327E+01	3.1864084853E+01	-2.3257335749E+02	2.6648117486E+02	1.2518930096E+02	0.000E+00	0.0
	-5	1	9	9	0	501	8.3990413111E+00	-7.5120066230E+00	-2.1764684046E+02	2.1797842485E+02	4.1800000000E+00	0.000E+00	0.0
	5	1	9	9	501	0	-2.3701621638E+01	3.9376091476E+01	-1.4926517029E+01	4.8502750012E+01	4.1800000000E+00	0.000E+00	0.0
</event>
<event>
    11  -1  1.0000000E+00  1.0000000E+00  -1.0000000E+00  -1.0000000E+00
	2212	-1	0	0	0	0	0.0000000000E+00	0.0000000000E+00	6.5000000000E+03	6.5000000000E+03	9.3827000000E-01	0.000E+00	0.0
	2212	-1	0	0	0	0	0.0000000000E+00	0.0000000000E+00	-6.5000000000E+03	6.5000000000E+03	9.3827000000E-01	0.000E+00	0.0
	2212	1	0	0	0	0	0.0000000000E+00	0.0000000000E+00	5.6495387831E+03	5.6495387831E+03	9.3827000000E-01	0.000E+00	0.0
	2212	1	0	0	0	0	0.0000000000E+00	0.0000000000E+00	-6.1780333796E+03	6.1780333796E+03	9.3827000000E-01	0.000E+00	0.0
	51	2	1	2	0	0	1.1021991263E+02	9.6161698528E+00	4.3876146521E+02	1.1401899045E+03	1.0465564940E+03	0.000E+00	0.0
	1000022	2	5	5	0	0	-1.1021991263E+02	-9.6161698528E+00	5.2838760902E+02	1.0053618286E+03	8.4812619415E+02	0.000E+00	0.0
	14	1	6	6	0	0	-2.7597556385E+02	-1.3674404192E+02	3.9366112245E+02	5.9620090923E+02	3.2500000000E+02	0.000E+00	0.0
	-14	1	6	6	0	0	1.6575565122E+02	1.2712787207E+02	1.3472648657E+02	4.0916091938E+02	3.2500000000E+02	0.000E+00	0.0
	25	2	5	5	0	0	1.1021991263E+02	9.6161698528E+00	1.0698746188E-01	1.6706600865E+02	1.2518042953E+02	0.000E+00	0.0
	-5	1	9	9	0	501	-9.8588010529E+00	-1.3729950609E+01	-3.5545147286E+01	3.9580770552E+01	4.1800000000E+00	0.000E+00	0.0
	5	1	9	9	501	0	1.2007871369E+02	2.3346120462E+01	3.5652134748E+01	1.2748523810E+02	4.1800000000E+00	0.000E+00	0.0
</event>
<event>
    11  -1  1.0000000E+00  1.0000000E+00  -1.0000000E+00  -1.0000000E+00
	2212	-1	0	0	0	0	0.0000000000E+00	0.0000000000E+00	6.5000000000E+03	6.5000000000E+03	9.3827000000E-01	0.000E+00	0.0
	2212	-1	0	0	0	0	0.0000000000E+00	0.0000000000E+00	-6.5000000000E+03	6.5000000000E+03	9.3827000000E-01	0.000E+00	0.0
	2212	1	0	0	0	0	0.0000000000E+00	0.0000000000E+00	5.1114721160E+03	5.1114721160E+03	9.3827000000E-01	0.000E+00	0.0
	2212	1	0	0	0	0	0.0000000000E+00	0.0000000000E+00	-6.2997223597E+03	6.2997223597E+03	9.3827000000E-01	0.000E+00	0.0
	51	2	1	2	0	0	-4.6672736578E+01	9.9517114287E+01	1.0563548944E+03	1.4967738693E+03	1.0546868505E+03	0.000E+00	0.0
	1000022	2	5	5	0	0	4.6672736578E+01	-9.9517114287E+01	1.1153037401E+03	1.4069438061E+03	8.5059181786E+02	0.000E+00	0.0
	14	1	6	6	0	0	1.2506737364E+00	-5.4237498070E+01	1.0827954063E+02	3.4683242251E+02	3.2500000000E+02	0.000E+00	0.0
	-14	1	6	6	0	0	4.5422062842E+01	-4.5279616218E+01	1.0070241994E+03	1.0601113836E+03	3.2500000000E+02	0.000E+00	0.0
	25	2	5	5	0	0	-4.6672736578E+01	9.9517114287E+01	7.2946503605E+01	1.8186171822E+02	1.2518183490E+02	0.000E+00	0.0
	-5	1	9	9	0	501	3.7341327578E+01	1.1534563959E+01	3.9278962411E+01	5.5567348317E+01	4.1800000000E+00	0.000E+00	0.0
	5	1	9	9	501	0	-8.4014064156E+01	8.7982550329E+01	3.3667541195E+01	1.2629436990E+02	4.1800000000E+00	0.000E+00	0.0
</event>
<event>
    11  -1  1.0000000E+00  1.0000000E+00  -1.0000000E+00  -1.0000000E+00
	2212	-1	0	0	0	0	0.0000000000E+00	0.0000000000E+00	6.5000000000E+03	6.5000000000E+03	9.3827000000E-01	0.000E+00	0.0
	2212	-1	0	0	0	0	0.0000000000E+00	0.0000000000E+00	-6.5000000000E+03	6.5000000000E+03	9.3827000000E-01	0.000E+00	0.0
	2212	1	0	0	0	0	0.0000000000E+00	0.0000000000E+00	6.0947469660E+03	6.0947469660E+03	9.3827000000E-01	0.000E+00	0.0
	2212	1	0	0	0	0	0.0000000000E+00	0.0000000000E+00	-5.8239627668E+03	5.8239627668E+03	9.3827000000E-01	0.000E+00	0.0
	51	2	1	2	0	0	1.6637814388E+01	1.2967987340E+02	-2.6399632335E+02	1.0874981860E+03	1.0468354977E+03	0.000E+00	0.0
	1000022	2	5	5	0	0	-1.6637814388E+01	-1.2967987340E+02	-2.3280993021E+02	8.9633901044E+02	8.5564564605E+02	0.000E+00	0.0
	14	1	6	6	0	0	-1.6146849281E+02	-2.3347699009E+02	-2.9195991266E+02	5.2100784032E+02	3.2500000000E+02	0.000E+00	0.0
	-14	1	6	6	0	0	1.4483067842E+02	1.0379711669E+02	5.9149982444E+01	3.7533117013E+02	3.2500000000E+02	0.000E+00	0.0
	25	2	5	5	0	0	1.6637814388E+01	1.2967987340E+02	-3.7974269023E+01	1.8495125674E+02	1.2518480670E+02	0.000E+00	0.0
	-5	1	9	9	0	501	-1.8985670473E+01	3.1385481661E+01	4.0019195302E+01	5.4447337263E+01	4.1800000000E+00	0.000E+00	0.0
	5	1	9	9	501	0	3.5623484861E+01	9.8294391734E+01	-7.7993464325E+01	1.3050391947E+02	4.1800000000E+00	0.000E+00	0.0
</event>
<event>
    11  -1  1.0000000E+00  1.0000000E+00  -1.0000000E+00  -1.0000000E+00
	2212	-1	0	0	0	0	0.0000000000E+00	0.0000000000E+00	6.5000000000E+03	6.5000000000E+03	9.3827000000E-01	0.000E+00	0.0
	2212	-1	0	0	0	0	0.0000000000E+00	0.0000000000E+00	-6.5000000000E+03	6.5000000000E+03	9.3827000000E-01	0.000E+00	0.0
	2212	1	0	0	0	0	0.0000000000E+00	0.0000000000E+00	6.1281054698E+03	6.1281054698E+03	9.3827000000E-01	0.000E+00	0.0
	2212	1	0	0	0	0	0.0000000000E+00	0.0000000000E+00	-5.7657413565E+03	5.7657413565E+03	9.3827000000E-01	0.000E+00	0.0
	51	2	1	2	0	0	3.9119060309E+01	-7.4650552610E+00	-2.3600808042E+02	1.0721720641E+03	1.0451158275E+03	0.000E+00	0.0
	1000022	2	5	5	0	0	-3.9119060309E+01	7.4650552610E+00	-4.2929207030E+02	9.5872405972E+02	8.5631426073E+02	0.000E+00	0.0
	14	1	6	6	0	0	-3.0388286324E+01	-2.6442923939E+02	-2.9792977059E+02	5.1500817352E+02	3.2500000000E+02	0.000E+00	0.0
	-14	1	6	6	0	0	-8.7307739845E+00	2.7189429465E+02	-1.3136229971E+02	4.4371588620E+02	3.2500000000E+02	0.000E+00	0.0
	25	2	5	5	0	0	3.9119060309E+01	-7.4650552610E+00	6.6927956967E+01	1.4742911395E+02	1.2517972794E+02	0.000E+00	0.0
	-5	1	9	9	0	501	-2.0819861387E+01	-5.0033036354E+01	1.2258966963E+01	5.5718273717E+01	4.1800000000E+00	0.000E+00	0.0
	5	1	9	9	501	0	5.9938921696E+01	4.2567981093E+01	5.4668990004E+01	9.1710840234E+01	4.1800000000E+00	0.000E+00	0.0
</event>
<event>
    11  -1  1.0000000E+00  1.0000000E+00  -1.0000000E+00  -1.0000000E+00
	2212	-1	0	0	0	0	0.0000000000E+00	0.0000000000E+00	6.5000000000E+03	6.5000000000E+03	9.3827000000E-01	0.000E+00	0.0
	2212	-1	0	0	0	0	0.0000000000E+00	0.0000000000E+00	-6.5000000000E+03	6.5000000000E+03	9.3827000000E-01	0.000E+00	0.0
	2212	1	0	0	0	0	0.0000000000E+00	0.0000000000E+00	6.2249266535E+03	6.2249266535E+03	9.3827000000E-01	0.000E+00	0.0
	2212	1	0	0	0	0	0.0000000000E+00	0.0000000000E+00	-5.4991523653E+03	5.4991523653E+03	9.3827000000E-01	0.000E+00	0.0
	51	2	1	2	0	0	-3.2842857119E+01	-1.2774597229E+02	-6.5206629291E+02	1.2425031872E+03	1.0493931737E+03	0.000E+00	0.0
	1000022	2	5	5	0	0	3.2842857119E+01	1.2774597229E+02	-6.7272450904E+02	1.0864968994E+03	8.4292322346E+02	0.000E+00	0.0
	14	1	6	6	0	0	4.1846790218E+01	7.5101473368E+01	-6.7835692524E+02	7.5708949482E+02	3.2500000000E+02	0.000E+00	0.0
	-14	1	6	6	0	0	-9.0039330990E+00	5.2644498919E+01	5.6324161998E+00	3.2940740458E+02	3.2500000000E+02	0.000E+00	0.0
	25	2	5	5	0	0	-3.2842857119E+01	-1.2774597229E+02	-5.3049779140E+01	1.8942408186E+02	1.2517794144E+02	0.000E+00	0.0
	-5	1	9	9	0	501	-4.9921805253E+01	-1.4082755748E+02	-2.1502134993E+01	1.5101126380E+02	4.1800000000E+00	0.000E+00	0.0
	5	1	9	9	501	0	1.7078948133E+01	1.3081585188E+01	-3.1547644147E+01	3.8412818064E+01	4.1800000000E+00	0.000E+00	0.0
</event>
<event>
    11  -1  1.0000000E+00  1.0000000E+00  -1.0000000E+00  -1.0000000E+00
	2212	-1	0	0	0	0	0.0000000000E+00	0.0000000000E+00	6.5000000000E+03	6.5000000000E+03	9.3827000000E-01	0.000E+00	0.0
	2212	-1	0	0	0	0	0.0000000000E+00	0.0000000000E+00	-6.5000000000E+03	6.5000000000E+03	9.3827000000E-01	0.000E+00	0.0
	2212	1	0	0	0	0	0.0000000000E+00	0.0000000000E+00	6.2327022269E+03	6.2327022269E+03	9.3827000000E-01	0.000E+00	0.0
	2212	1	0	0	0	0	0.0000000000E+00	0.0000000000E+00	-5.4714988187E+03	5.4714988187E+03	9.3827000000E-01	0.000E+00	0.0
	51	2	1	2	0	0	3.6094082841E+01	-1.2914761932E+02	-7.0900093445E+02	1.2729212533E+03	1.0486487980E+03	0.000E+00	0.0
	1000022	2	5	5	0	0	-3.6094082841E+01	1.2914761932E+02	-6.8276690119E+02	1.0962895079E+03	8.4717067543E+02	0.000E+00	0.0
	14	1	6	6	0	0	-1.3128157920E+02	-1.4099191451E+02	-4.9859042611E+02	6.2556453384E+02	3.2500000000E+02	0.000E+00	0.0
	-14	1	6	6	0	0	9.5187496361E+01	2.7013953383E+02	-1.8417647508E+02	4.7072497403E+02	3.2500000000E+02	0.000E+00	0.0
	25	2	5	5	0	0	3.6094082841E+01	-1.2914761932E+02	-7.8436507051E+01	1.9950944654E+02	1.2517924439E+02	0.000E+00	0.0
	-5	1	9	9	0	501	-3.9259392980E+00	1.0667211976E+01	2.0329090081E+01	2.3663193238E+01	4.1800000000E+00	0.000E+00	0.0
	5	1	9	9	501	0	4.0020022139E+01	-1.3981483130E+02	-9.8765597131E+01	1.7584625330E+02	4.1800000000E+00	0.000E+00	0.0
</event>
<event>
    11  -1  1.0000000E+00  1.0000000E+00  -1.0000000E+00  -1.0000000E+00
	2212	-1	0	0	0	0	0.0000000000E+00	0.0000000000E+00	6.5000000000E+03	6.5000000000E+03	9.3827000000E-01	0.000E+00	0.0
	2212	-1	0	0	0	0	0.0000000000E+00	0.0000000000E+00	-6.5000000000E+03	6.5000000000E+03	9.3827000000E-01	0.000E+00	0.0
	2212	1	0	0	0	0	0.0000000000E+00	0.0000000000E+00	6.1396832096E+03	6.1396832096E+03	9.3827000000E-01	0.000E+00	0.0
	2212	1	0	0	0	0	0.0000000000E+00	0.0000000000E+00	-5.7320122945E+03	5.7320122945E+03	9.3827000000E-01	0.000E+00	0.0
	51	2	1	2	0	0	6.8940254551E+01	8.1953079686E+00	-5.3836939729E+02	1.1838652754E+03	1.0520814895E+03	0.000E+00	0.0
	1000022	2	5	5	0	0	-6.8940254551E+01	-8.1953079686E+00	-2.0839670697E+02	8.8294773878E+02	8.5518863426E+02	0.000E+00	0.0
	14	1	6	6	0	0	2.1026735861E+01	-2.7451031572E+02	-1.3648774855E+02	4.4727166528E+02	3.2500000000E+02	0.000E+00	0.0
	-14	1	6	6	0	0	-8.9966990412E+01	2.6631500775E+02	-7.1908958423E+01	4.3567607350E+02	3.2500000000E+02	0.000E+00	0.0
	25	2	5	5	0	0	6.8940254551E+01	8.1953079686E+00	-1.9927420815E+02	2.4535675720E+02	1.2517909768E+02	0.000E+00	0.0
	-5	1	9	9	0	501	7.4411923728E+01	5.2193861999E+00	-2.1517442997E+02	2.2777595153E+02	4.1800000000E+00	0.000E+00	0.0
	5	1	9	9	501	0	-5.4716691766E+00	2.9759217688E+00	1.5900221816E+01	1.7580805662E+01	4.1800000000E+00	0.000E+00	0.0
</event>
<event>
    11  -1  1.0000000E+00  1.0000000E+00  -1.0000000E+00  -1.0000000E+00
	2212	-1	0	0	0	0	0.0000000000E+00	0.0000000000E+00	6.5000000000E+03	6.5000000000E+03	9.3827000000E-01	0.000E+00	0.0
	2212	-1	0	0	0	0	0.0000000000E+00	0.0000000000E+00	-6.5000000000E+03	6.5000000000E+03	9.3827000000E-01	0.000E+00	0.0
	2212	1	0	0	0	0	0.0000000000E+00	0.0000000000E+00	5.0929814289E+03	5.0929814289E+03	9.3827000000E-01	0.000E+00	0.0
	2212	1	0	0	0	0	0.0000000000E+00	0.0000000000E+00	-6.3024779866E+03	6.3024779866E+03	9.3827000000E-01	0.000E+00	0.0
	51	2	1	2	0	0	-1.0722551881E+01	-3.7321176654E+01	1.4246787682E+03	1.7728186596E+03	1.0543569434E+03	0.000E+00	0.0
	1000022	2	5	5	0	0	1.0722551881E+01	3.7321176654E+01	7.8954715174E+02	1.1646145468E+03	8.5523943693E+02	0.000E+00	0.0
	14	1	6	6	0	0	-9.8411374819E+01	-1.0422245446E+02	8.0197529381E+01	3.6414799523E+02	3.2500000000E+02	0.000E+00	0.0
	-14	1	6	6	0	0	1.0913392670E+02	1.4154363112E+02	7.0934962235E+02	8.0046655158E+02	3.2500000000E+02	0.000E+00	0.0
	25	2	5	5	0	0	-1.0722551881E+01	-3.7321176654E+01	4.1994940598E+02	4.3992603766E+02	1.2517815978E+02	0.000E+00	0.0
	-5	1	9	9	0	501	2.7000342712E+01	-7.1374762889E+01	1.9904855927E+02	2.1321626728E+02	4.1800000000E+00	0.000E+00	0.0
	5	1	9	9	501	0	-3.7722894593E+01	3.4053586236E+01	2.2090084671E+02	2.2670977039E+02	4.1800000000E+00	0.000E+00	0.0
</event>
<event>
    11  -1  1.0000000E+00  1.0000000E+00  -1.0000000E+00  -1.0000000E+00
	2212	-1	0	0	0	0	0.0000000000E+00	0.0000000000E+00	6.5000000000E+03	6.5000000000E+03	9.3827000000E-01	0.000E+00	0.0
	2212	-1	0	0	0	0	0.0000000000E+00	0.0000000000E+00	-6.5000000000E+03	6.5000000000E+03	9.3827000000E-01	0.000E+00	0.0
	2212	1	0	0	0	0	0.0000000000E+00	0.0000000000E+00	5.0609826721E+03	5.0609826721E+03	9.3827000000E-01	0.000E+00	0.0
	2212	1	0	0	0	0	0.0000000000E+00	0.0000000000E+00	-6.3088224805E+03	6.3088224805E+03	9.3827000000E-01	0.000E+00	0.0
	51	2	1	2	0	0	1.0191400591E+01	-2.7896982981E+01	1.0828029459E+03	1.5079043002E+03	1.0490143244E+03	0.000E+00	0.0
	1000022	2	5	5	0	0	-1.0191400591E+01	2.7896982981E+01	1.2182022104E+03	1.4981600391E+03	8.7154160611E+02	0.000E+00	0.0
	14	1	6	6	0	0	-8.9880832135E+01	2.9095544237E+02	6.5918213627E+02	7.9553737952E+02	3.2500000000E+02	0.000E+00	0.0
	-14	1	6	6	0	0	7.9689431543E+01	-2.6305845939E+02	5.5902007410E+02	7.0262265961E+02	3.2500000000E+02	0.000E+00	0.0
	25	2	5	5	0	0	1.0191400591E+01	-2.7896982981E+01	2.9637598089E+01	1.3203480824E+02	1.2519064287E+02	0.000E+00	0.0
	-5	1	9	9	0	501	-3.1085344220E+01	3.3831220016E+00	-3.6295459380E+01	4.8089259834E+01	4.1800000000E+00	0.000E+00	0.0
	5	1	9	9	501	0	4.1276744811E+01	-3.1280104983E+01	6.5933057469E+01	8.3945548406E+01	4.1800000000E+00	0.000E+00	0.0
</event>
<event>
    11  -1  1.0000000E+00  1.0000000E+00  -1.0000000E+00  -1.0000000E+00
	2212	-1	0	0	0	0	0.0000000000E+00	0.0000000000E+00	6.5000000000E+03	6.5000000000E+03	9.3827000000E-01	0.000E+00	0.0
	2212	-1	0	0	0	0	0.0000000000E+00	0.0000000000E+00	-6.5000000000E+03	6.5000000000E+03	9.3827000000E-01	0.000E+00	0.0
	2212	1	0	0	0	0	0.0000000000E+00	0.0000000000E+00	5.0629261551E+03	5.0629261551E+03	9.3827000000E-01	0.000E+00	0.0
	2212	1	0	0	0	0	0.0000000000E+00	0.0000000000E+00	-6.3122481523E+03	6.3122481523E+03	9.3827000000E-01	0.000E+00	0.0
	51	2	1	2	0	0	-3.8922328411E+01	-6.4741418501E+01	1.5076453433E+03	1.8324720895E+03	1.0388710596E+03	0.000E+00	0.0
	1000022	2	5	5	0	0	3.8922328411E+01	6.4741418501E+01	7.5232166129E+02	1.1067641216E+03	8.0822802474E+02	0.000E+00	0.0
	14	1	6	6	0	0	1.8277928175E+02	-5.5690086669E+01	5.8483229066E+02	6.9581855378E+02	3.2500000000E+02	0.000E+00	0.0
	-14	1	6	6	0	0	-1.4385695334E+02	1.2043150517E+02	1.6748937063E+02	4.1094556785E+02	3.2500000000E+02	0.000E+00	0.0
	25	2	5	5	0	0	-3.8922328411E+01	-6.4741418501E+01	4.9700033588E+02	5.1806157091E+02	1.2518809239E+02	0.000E+00	0.0
	-5	1	9	9	0	501	-6.8543167705E+01	-2.5014192657E+01	1.4308556966E+02	1.6066993595E+02	4.1800000000E+00	0.000E+00	0.0
	5	1	9	9	501	0	2.9620839293E+01	-3.9727225843E+01	3.5391476622E+02	3.5739163497E+02	4.1800000000E+00	0.000E+00	0.0
</event>
<event>
    11  -1  1.0000000E+00  1.0000000E+00  -1.0000000E+00  -1.0000000E+00
	2212	-1	0	0	0	0	0.0000000000E+00	0.0000000000E+00	6.5000000000E+03	6.5000000000E+03	9.3827000000E-01	0.000E+00	0.0
	2212	-1	0	0	0	0	0.0000000000E+00	0.0000000000E+00	-6.5000000000E+03	6.5000000000E+03	9.3827000000E-01	0.000E+00	0.0
	2212	1	0	0	0	0	0.0000000000E+00	0.0000000000E+00	5.8023483780E+03	5.8023483780E+03	9.3827000000E-01	0.000E+00	0.0
	2212	1	0	0	0	0	0.0000000000E+00	0.0000000000E+00	-6.0920414355E+03	6.0920414355E+03	9.3827000000E-01	0.000E+00	0.0
	51	2	1	2	0	0	-1.1444071509E+02	-1.7143297648E+02	2.6178653816E+02	1.1177969185E+03	1.0669825757E+03	0.000E+00	0.0
	1000022	2	5	5	0	0	1.1444071509E+02	1.7143297648E+02	2.5702668285E+02	8.6224770831E+02	7.9682021315E+02	0.000E+00	0.0
	14	1	6	6	0	0	1.1141208845E+02	1.8624950253E+02	-7.4393328924E+01	3.9782018304E+02	3.2500000000E+02	0.000E+00	0.0
	-14	1	6	6	0	0	3.0286266437E+00	-1.4816526046E+01	3.3142001177E+02	4.6442752527E+02	3.2500000000E+02	0.000E+00	0.0
	25	2	5	5	0	0	-1.1444071509E+02	-1.7143297648E+02	3.2666374688E+01	2.4336247813E+02	1.2518890139E+02	0.000E+00	0.0
	-5	1	9	9	0	501	-8.0322618182E+01	-1.5816366729E+02	-2.0560211939E+01	1.7862716298E+02	4.1800000000E+00	0.000E+00	0.0
	5	1	9	9	501	0	-3.4118096913E+01	-1.3269309196E+01	5.3226586627E+01	6.4735315149E+01	4.1800000000E+00	0.000E+00	0.0
</event>
<event>
    11  -1  1.0000000E+00  1.0000000E+00  -1.0000000E+00  -1.0000000E+00
	2212	-1	0	0	0	0	0.0000000000E+00	0.0000000000E+00	6.5000000000E+03	6.5000000000E+03	9.3827000000E-01	0.000E+00	0.0
	2212	-1	0	0	0	0	0.0000000000E+00	0.0000000000E+00	-6.5000000000E+03	6.5000000000E+03	9.3827000000E-01	0.000E+00	0.0
	2212	1	0	0	0	0	0.0000000000E+00	0.0000000000E+00	6.3166765180E+03	6.3166765180E+03	9.3827000000E-01	0.000E+00	0.0
	2212	1	0	0	0	0	0.0000000000E+00	0.0000000000E+00	-5.0365684834E+03	5.0365684834E+03	9.3827000000E-01	0.000E+00	0.0
	51	2	1	2	0	0	-9.5131004179E+01	-1.0049945053E+02	-1.3113534274E+03	1.6768790369E+03	1.0359176827E+03	0.000E+00	0.0
	1000022	2	5	5	0	0	9.5131004179E+01	1.0049945053E+02	-1.0292170383E+03	1.3340747341E+03	8.3744709490E+02	0.000E+00	0.0
	14	1	6	6	0	0	3.1076334958E+01	2.1261450643E+02	-2.0835366632E+02	4.4182226880E+02	3.2500000000E+02	0.000E+00	0.0
	-14	1	6	6	0	0	6.4054669221E+01	-1.1211505590E+02	-8.2086337197E+02	8.9225246531E+02	3.2500000000E+02	0.000E+00	0.0
	25	2	5	5	0	0	-9.5131004179E+01	-1.0049945053E+02	-2.5089099632E+02	3.1268026454E+02	1.2519028832E+02	0.000E+00	0.0
	-5	1	9	9	0	501	-7.1561388020E+01	-1.2929426032E+02	-2.1413282860E+02	2.6020833709E+02	4.1800000000E+00	0.000E+00	0.0
	5	1	9	9	501	0	-2.3569616159E+01	2.8794809791E+01	-3.6758167714E+01	5.2471927451E+01	4.1800000000E+00	0.000E+00	0.0
</event>
<event>
    11  -1  1.0000000E+00  1.0000000E+00  -1.0000000E+00  -1.0000000E+00
	2212	-1	0	0	0	0	0.0000000000E+00	0.0000000000E+00	6.5000000000E+03	6.5000000000E+03	9.3827000000E-01	0.000E+00	0.0
	2212	-1	0	0	0	0	0.0000000000E+00	0.0000000000E+00	-6.5000000000E+03	6.5000000000E+03	9.3827000000E-01	0.000E+00	0.0
	2212	1	0	0	0	0	0.0000000000E+00	0.0000000000E+00	5.1454734751E+03	5.1454734751E+03	9.3827000000E-01	0.000E+00	0.0
	2212	1	0	0	0	0	0.0000000000E+00	0.0000000000E+00	-6.0506106564E+03	6.0506106564E+03	9.3827000000E-01	0.000E+00	0.0
	51	2	1	2	0	0	4.2590630567E+02	3.8965320631E+01	1.3389100711E+03	2.1001032831E+03	1.5603971109E+03	0.000E+00	0.0
	1000022	2	5	5	0	0	-4.2590630567E+02	-3.8965320631E+01	2.0248917329E+02	9.7186703722E+02	8.4888703330E+02	0.000E+00	0.0
	14	1	6	6	0	0	-1.5562831275E+02	-2.8594413518E+02	7.6233656893E+01	4.6628402355E+02	3.2500000000E+02	0.000E+00	0.0
	-14	1	6	6	0	0	-2.7027799293E+02	2.4697881455E+02	1.2625551639E+02	5.0558301367E+02	3.2500000000E+02	0.000E+00	0.0
	25	2	5	5	0	0	4.2590630567E+02	3.8965320631E+01	7.0264800800E+02	8.3204883130E+02	1.2520605855E+02	0.000E+00	0.0
	-5	1	9	9	0	501	2.3845522830E+02	-4.0653466131E+01	3.8038065790E+02	4.5079986415E+02	4.1800000000E+00	0.000E+00	0.0
	5	1	9	9	501	0	1.8745107737E+02	7.9618786761E+01	3.2226735009E+02	3.8124896715E+02	4.1800000000E+00	0.000E+00	0.0
</event>
<event>
    11  -1  1.0000000E+00  1.0000000E+00  -1.0000000E+00  -1.0000000E+00
	2212	-1	0	0	0	0	0.0000000000E+00	0.0000000000E+00	6.5000000000E+03	6.5000000000E+03	9.3827000000E-01	0.000E+00	0.0
	2212	-1	0	0	0	0	0.0000000000E+00	0.0000000000E+00	-6.5000000000E+03	6.5000000000E+03	9.3827000000E-01	0.000E+00	0.0
	2212	1	0	0	0	0	0.0000000000E+00	0.0000000000E+00	6.2537588889E+03	6.2537588889E+03	9.3827000000E-01	0.000E+00	0.0
	2212	1	0	0	0	0	0.0000000000E+00	0.0000000000E+00	-5.3801455313E+03	5.3801455313E+03	9.3827000000E-01	0.000E+00	0.0
	51	2	1	2	0	0	2.3082700168E+01	-8.3840828672E+01	-1.0308511002E+03	1.4741889027E+03	1.0502460829E+03	0.000E+00	0.0
	1000022	2	5	5	0	0	-2.3082700168E+01	8.3840828672E+01	-5.6594210640E+02	1.0227648383E+03	8.4746407062E+02	0.000E+00	0.0
	14	1	6	6	0	0	1.4408583103E+02	-1.6526222257E+01	-5.3491973527E+02	6.4249355320E+02	3.2500000000E+02	0.000E+00	0.0
	-14	1	6	6	0	0	-1.6716853120E+02	1.0036705093E+02	-3.1022371138E+01	3.8027128507E+02	3.2500000000E+02	0.000E+00	0.0
	25	2	5	5	0	0	2.3082700168E+01	-8.3840828672E+01	-3.0767125114E+02	3.4333074150E+02	1.2510916705E+02	0.000E+00	0.0
	-5	1	9	9	0	501	4.2823756884E+01	-1.1049733954E+02	-2.2995232176E+02	2.5872587594E+02	4.1800000000E+00	0.000E+00	0.0
	5	1	9	9	501	0	-1.9741056716E+01	2.6656510869E+01	-7.7718929377E+01	8.4604865554E+01	4.1800000000E+00	0.000E+00	0.0
</event>
<event>
    11  -1  1.0000000E+00  1.0000000E+00  -1.0000000E+00  -1.0000000E+00
	2212	-1	0	0	0	0	0.0000000000E+00	0.0000000000E+00	6.5000000000E+03	6.5000000000E+03	9.3827000000E-01	0.000E+00	0.0
	2212	-1	0	0	0	0	0.0000000000E+00	0.0000000000E+00	-6.5000000000E+03	6.5000000000E+03	9.3827000000E-01	0.000E+00	0.0
	2212	1	0	0	0	0	0.0000000000E+00	0.0000000000E+00	5.7357024767E+03	5.7357024767E+03	9.3827000000E-01	0.000E+00	0.0
	2212	1	0	0	0	0	0.0000000000E+00	0.0000000000E+00	-6.1403376677E+03	6.1403376677E+03	9.3827000000E-01	0.000E+00	0.0
	51	2	1	2	0	0	7.5527627910E+01	-1.3067265747E+01	4.8943411311E+02	1.1597314544E+03	1.0485972150E+03	0.000E+00	0.0
	1000022	2	5	5	0	0	-7.5527627910E+01	1.3067265747E+01	2.5800516547E+02	9.1643928503E+02	8.7602461251E+02	0.000E+00	0.0
	14	1	6	6	0	0	-4.4708533734E+01	1.4357348151E+02	4.0035077768E+02	5.3713866252E+02	3.2500000000E+02	0.000E+00	0.0
	-14	1	6	6	0	0	-3.0819094176E+01	-1.3050621576E+02	-1.4234561222E+02	3.7930062251E+02	3.2500000000E+02	0.000E+00	0.0
	25	2	5	5	0	0	7.5527627910E+01	-1.3067265747E+01	1.4663002550E+02	2.0752057057E+02	1.2525672366E+02	0.000E+00	0.0
	-5	1	9	9	0	501	1.4227798722E+01	-3.6436657002E+01	-7.4189838485E+00	4.0032161461E+01	4.1800000000E+00	0.000E+00	0.0
	5	1	9	9	501	0	6.1299829188E+01	2.3369391254E+01	1.5404900935E+02	1.6748840911E+02	4.1800000000E+00	0.000E+00	0.0
</event>
<event>
    11  -1  1.0000000E+00  1.0000000E+00  -1.0000000E+00  -1.0000000E+00
	2212	-1	0	0	0	0	0.0000000000E+00	0.0000000000E+00	6.5000000000E+03	6.5000000000E+03	9.3827000000E-01	0.000E+00	0.0
	2212	-1	0	0	0	0	0.0000000000E+00	0.0000000000E+00	-6.5000000000E+03	6.5000000000E+03	9.3827000000E-01	0.000E+00	0.0
	2212	1	0	0	0	0	0.0000000000E+00	0.0000000000E+00	5.8290404594E+03	5.8290404594E+03	9.3827000000E-01	0.000E+00	0.0
	2212	1	0	0	0	0	0.0000000000E+00	0.0000000000E+00	-6.0937430179E+03	6.0937430179E+03	9.3827000000E-01	0.000E+00	0.0
	51	2	1	2	0	0	8.7179022324E+01	-7.6847515988E+01	3.5483501982E+02	1.1089371517E+03	1.0441877190E+03	0.000E+00	0.0
	1000022	2	5	5	0	0	-8.7179022324E+01	7.6847515988E+01	1.2871609291E+02	8.5889138446E+02	8.4120202988E+02	0.000E+00	0.0
	14	1	6	6	0	0	9.9239117212E+01	2.6308265029E+02	8.6449734249E+01	4.3835994322E+02	3.2500000000E+02	0.000E+00	0.0
	-14	1	6	6	0	0	-1.8641813954E+02	-1.8623513430E+02	4.2266358666E+01	4.2053144124E+02	3.2500000000E+02	0.000E+00	0.0
	25	2	5	5	0	0	8.7179022324E+01	-7.6847515988E+01	1.3598646560E+02	2.1832513832E+02	1.2517118099E+02	0.000E+00	0.0
	-5	1	9	9	0	501	9.3261333690E+01	-3.2812088539E-01	6.5642305976E+01	1.1412348031E+02	4.1800000000E+00	0.000E+00	0.0
	5	1	9	9	501	0	-6.0823113659E+00	-7.6519395103E+01	7.0344159627E+01	1.0420165801E+02	4.1800000000E+00	0.000E+00	0.0
</event>
<event>
    11  -1  1.0000000E+00  1.0000000E+00  -1.0000000E+00  -1.0000000E+00
	2212	-1	0	0	0	0	0.0000000000E+00	0.0000000000E+00	6.5000000000E+03	6.5000000000E+03	9.3827000000E-01	0.000E+00	0.0
	2212	-1	0	0	0	0	0.0000000000E+00	0.0000000000E+00	-6.5000000000E+03	6.5000000000E+03	9.3827000000E-01	0.000E+00	0.0
	2212	1	0	0	0	0	0.0000000000E+00	0.0000000000E+00	4.9724186136E+03	4.9724186136E+03	9.3827000000E-01	0.000E+00	0.0
	2212	1	0	0	0	0	0.0000000000E+00	0.0000000000E+00	-6.3236425592E+03	6.3236425592E+03	9.3827000000E-01	0.000E+00	0.0
	51	2	1	2	0	0	-1.5448632631E+01	-9.7298823644E+01	1.4055375527E+03	1.7500979713E+03	1.0380758043E+03	0.000E+00	0.0
	1000022	2	5	5	0	0	1.5448632631E+01	9.7298823644E+01	1.0927495051E+03	1.4003260078E+03	8.7011822518E+02	0.000E+00	0.0
	14	1	6	6	0	0	2.3620801685E+02	2.0554087023E+00	2.7132438041E+02	4.8480962380E+02	3.2500000000E+02	0.000E+00	0.0
	-14	1	6	6	0	0	-2.2075938422E+02	9.5243414942E+01	8.2142512474E+02	9.1551638400E+02	3.2500000000E+02	0.000E+00	0.0
	25	2	5	5	0	0	-1.5448632631E+01	-9.7298823644E+01	2.5847444047E+02	3.0361281938E+02	1.2516383816E+02	0.000E+00	0.0
	-5	1	9	9	0	501	5.3271729837E+01	-2.9203766303E+01	7.9744203088E+01	1.0033617240E+02	4.1800000000E+00	0.000E+00	0.0
	5	1	9	9	501	0	-6.8720362467E+01	-6.8095057341E+01	1.7873023738E+02	2.0327664698E+02	4.1800000000E+00	0.000E+00	0.0
</event>
<event>
    11  -1  1.0000000E+00  1.0000000E+00  -1.0000000E+00  -1.0000000E+00
	2212	-1	0	0	0	0	0.0000000000E+00	0.0000000000E+00	6.5000000000E+03	6.5000000000E+03	9.3827000000E-01	0.000E+00	0.0
	2212	-1	0	0	0	0	0.0000000000E+00	0.0000000000E+00	-6.5000000000E+03	6.5000000000E+03	9.3827000000E-01	0.000E+00	0.0
	2212	1	0	0	0	0	0.0000000000E+00	0.0000000000E+00	5.6064550802E+03	5.6064550802E+03	9.3827000000E-01	0.000E+00	0.0
	2212	1	0	0	0	0	0.0000000000E+00	0.0000000000E+00	-6.1696676537E+03	6.1696676537E+03	9.3827000000E-01	0.000E+00	0.0
	51	2	1	2	0	0	8.8869218732E+01	8.7155639849E+01	4.0998709106E+02	1.1680113090E+03	1.0865850908E+03	0.000E+00	0.0
	1000022	2	5	5	0	0	-8.8869218732E+01	-8.7155639849E+01	6.0697788728E+02	1.0418831002E+03	8.3761828726E+02	0.000E+00	0.0
	14	1	6	6	0	0	-6.6259360858E+01	-1.3289081769E+02	6.7139434205E+00	3.5737983906E+02	3.2500000000E+02	0.000E+00	0.0
	-14	1	6	6	0	0	-2.2609857874E+01	4.5735177843E+01	6.0026394386E+02	6.8450326110E+02	3.2500000000E+02	0.000E+00	0.0
	25	2	5	5	0	0	8.8869218732E+01	8.7155639849E+01	-4.3765313750E+01	1.8199416592E+02	1.2535003050E+02	0.000E+00	0.0
	-5	1	9	9	0	501	1.0474751264E+02	1.9380949302E+01	-3.1719857731E+01	1.1122627556E+02	4.1800000000E+00	0.000E+00	0.0
	5	1	9	9	501	0	-1.5878293908E+01	6.7774690546E+01	-1.2045456019E+01	7.0767890365E+01	4.1800000000E+00	0.000E+00	0.0
</event>
<event>
    11  -1  1.0000000E+00  1.0000000E+00  -1.0000000E+00  -1.0000000E+00
	2212	-1	0	0	0	0	0.0000000000E+00	0.0000000000E+00	6.5000000000E+03	6.5000000000E+03	9.3827000000E-01	0.000E+00	0.0
	2212	-1	0	0	0	0	0.0000000000E+00	0.0000000000E+00	-6.5000000000E+03	6.5000000000E+03	9.3827000000E-01	0.000E+00	0.0
	2212	1	0	0	0	0	0.0000000000E+00	0.0000000000E+00	5.1094181427E+03	5.1094181427E+03	9.3827000000E-01	0.000E+00	0.0
	2212	1	0	0	0	0	0.0000000000E+00	0.0000000000E+00	-6.2998744138E+03	6.2998744138E+03	9.3827000000E-01	0.000E+00	0.0
	51	2	1	2	0	0	8.7208739895E+01	7.7404795665E+01	1.2817942076E+03	1.6642587823E+03	1.0550658924E+03	0.000E+00	0.0
	1000022	2	5	5	0	0	-8.7208739895E+01	-7.7404795665E+01	9.0530070177E+02	1.2581737641E+03	8.6593013189E+02	0.000E+00	0.0
	14	1	6	6	0	0	7.0800614763E+01	1.4653319029E+02	1.5362437716E+02	3.9460125718E+02	3.2500000000E+02	0.000E+00	0.0
	-14	1	6	6	0	0	-1.5800935466E+02	-2.2393798596E+02	7.5167632461E+02	8.6357250691E+02	3.2500000000E+02	0.000E+00	0.0
	25	2	5	5	0	0	8.7208739895E+01	7.7404795665E+01	2.8515556940E+02	3.3253367940E+02	1.2517221126E+02	0.000E+00	0.0
	-5	1	9	9	0	501	1.1671607595E+02	5.7071619367E+01	2.5192273132E+02	2.8348253399E+02	4.1800000000E+00	0.000E+00	0.0
	5	1	9	9	501	0	-2.9507336054E+01	2.0333176298E+01	3.3232838082E+01	4.9051145413E+01	4.1800000000E+00	0.000E+00	0.0
</event>
<event>
    11  -1  1.0000000E+00  1.0000000E+00  -1.0000000E+00  -1.0000000E+00
	2212	-1	0	0	0	0	0.0000000000E+00	0.0000000000E+00	6.5000000000E+03	6.5000000000E+03	9.3827000000E-01	0.000E+00	0.0
	2212	-1	0	0	0	0	0.0000000000E+00	0.0000000000E+00	-6.5000000000E+03	6.5000000000E+03	9.3827000000E-01	0.000E+00	0.0
	2212	1	0	0	0	0	0.0000000000E+00	0.0000000000E+00	4.7694489235E+03	4.7694489235E+03	9.3827000000E-01	0.000E+00	0.0
	2212	1	0	0	0	0	0.0000000000E+00	0.0000000000E+00	-6.2131275410E+03	6.2131275410E+03	9.3827000000E-01	0.000E+00	0.0
	51	2	1	2	0	0	3.7124546832E+02	1.9525925434E+02	1.4239272618E+03	2.0467799080E+03	1.4091805316E+03	0.000E+00	0.0
	1000022	2	5	5	0	0	-3.7124546832E+02	-1.9525925434E+02	1.0747851011E+03	1.4449675406E+03	8.6995333532E+02	0.000E+00	0.0
	14	1	6	6	0	0	-3.3636240410E+02	-1.9322832967E+02	2.6403309272E+02	5.7080235487E+02	3.2500000000E+02	0.000E+00	0.0
	-14	1	6	6	0	0	-3.4883064217E+01	-2.0309246722E+00	8.1075200834E+02	8.7416518568E+02	3.2500000000E+02	0.000E+00	0.0
	25	2	5	5	0	0	3.7124546832E+02	1.9525925434E+02	3.6889351642E+02	5.7245599488E+02	1.2519610802E+02	0.000E+00	0.0
	-5	1	9	9	0	501	2.2326356792E+02	5.7885111294E+01	1.5291654303E+02	2.7676388566E+02	4.1800000000E+00	0.000E+00	0.0
	5	1	9	9	501	0	1.4798190039E+02	1.3737414305E+02	2.1597697339E+02	2.9569210922E+02	4.1800000000E+00	0.000E+00	0.0
</event>
<event>
    11  -1  1.0000000E+00  1.0000000E+00  -1.0000000E+00  -1.0000000E+00
	2212	-1	0	0	0	0	0.0000000000E+00	0.0000000000E+00	6.5000000000E+03	6.5000000000E+03	9.3827000000E-01	0.000E+00	0.0
	2212	-1	0	0	0	0	0.0000000000E+00	0.0000000000E+00	-6.5000000000E+03	6.5000000000E+03	9.3827000000E-01	0.000E+00	0.0
	2212	1	0	0	0	0	0.0000000000E+00	0.0000000000E+00	6.3274918627E+03	6.3274918627E+03	9.3827000000E-01	0.000E+00	0.0
	2212	1	0	0	0	0	0.0000000000E+00	0.0000000000E+00	-4.9234680962E+03	4.9234680962E+03	9.3827000000E-01	0.000E+00	0.0
	51	2	1	2	0	0	-6.9816163477E+01	1.1089112204E+02	-1.4395861507E+03	1.7825368865E+03	1.0430044720E+03	0.000E+00	0.0
	1000022	2	5	5	0	0	6.9816163477E+01	-1.1089112204E+02	-1.1348669601E+03	1.4245466988E+03	8.5102240998E+02	0.000E+00	0.0
	14	1	6	6	0	0	-1.1654935669E+02	-2.6103287904E+02	-4.1717523021E+02	6.0115063768E+02	3.2500000000E+02	0.000E+00	0.0
	-14	1	6	6	0	0	1.8636552017E+02	1.5014175700E+02	-7.1769172987E+02	8.2339606109E+02	3.2500000000E+02	0.000E+00	0.0
	25	2	5	5	0	0	-6.9816163477E+01	1.1089112204E+02	-2.6915680644E+02	3.2449334241E+02	1.2521743163E+02	0.000E+00	0.0
	-5	1	9	9	0	501	-3.8905751463E+01	-2.1900395049E+01	-6.6667213190E+01	8.0344723005E+01	4.1800000000E+00	0.000E+00	0.0
	5	1	9	9	501	0	-3.0910412014E+01	1.3279151709E+02	-2.0248959325E+02	2.4414861940E+02	4.1800000000E+00	0.000E+00	0.0
</event>
<event>
    11  -1  1.0000000E+00  1.0000000E+00  -1.0000000E+00  -1.0000000E+00
	2212	-1	0	0	0	0	0.0000000000E+00	0.0000000000E+00	6.5000000000E+03	6.5000000000E+03	9.3827000000E-01	0.000E+00	0.0
	2212	-1	0	0	0	0	0.0000000000E+00	0.0000000000E+00	-6.5000000000E+03	6.5000000000E+03	9.3827000000E-01	0.000E+00	0.0
	2212	1	0	0	0	0	0.0000000000E+00	0.0000000000E+00	5.1117124286E+03	5.1117124286E+03	9.3827000000E-01	0.000E+00	0.0
	2212	1	0	0	0	0	0.0000000000E+00	0.0000000000E+00	-6.3006081906E+03	6.3006081906E+03	9.3827000000E-01	0.000E+00	0.0
	51	2	1	2	0	0	2.5020891436E+01	1.4581911483E+02	1.2430368734E+03	1.6353233965E+03	1.0522607488E+03	0.000E+00	0.0
	1000022	2	5	5	0	0	-2.5020891436E+01	-1.4581911483E+02	9.2564665223E+02	1.2607876228E+03	8.4313370581E+02	0.000E+00	0.0
	14	1	6	6	0	0	2.1051531851E+02	-2.2048058965E+02	4.3822044654E+02	6.2497243899E+02	3.2500000000E+02	0.000E+00	0.0
	-14	1	6	6	0	0	-2.3553620994E+02	7.4661474821E+01	4.8742620569E+02	6.3581518385E+02	3.2500000000E+02	0.000E+00	0.0
	25	2	5	5	0	0	2.5020891436E+01	1.4581911483E+02	2.6324910973E+02	3.2689175796E+02	1.2517535057E+02	0.000E+00	0.0
	-5	1	9	9	0	501	-3.0983681562E+01	4.9807837328E+01	2.4890918161E+01	6.3857962615E+01	4.1800000000E+00	0.000E+00	0.0
	5	1	9	9	501	0	5.6004572998E+01	9.6011277498E+01	2.3835819157E+02	2.6303379534E+02	4.1800000000E+00	0.000E+00	0.0
</event>
<event>
    11  -1  1.0000000E+00  1.0000000E+00  -1.0000000E+00  -1.0000000E+00
	2212	-1	0	0	0	0	0.0000000000E+00	0.0000000000E+00	6.5000000000E+03	6.5000000000E+03	9.3827000000E-01	0.000E+00	0.0
	2212	-1	0	0	0	0	0.0000000000E+00	0.0000000000E+00	-6.5000000000E+03	6.5000000000E+03	9.3827000000E-01	0.000E+00	0.0
	2212	1	0	0	0	0	0.0000000000E+00	0.0000000000E+00	6.0927327120E+03	6.0927327120E+03	9.3827000000E-01	0.000E+00	0.0
	2212	1	0	0	0	0	0.0000000000E+00	0.0000000000E+00	-5.8232118332E+03	5.8232118332E+03	9.3827000000E-01	0.000E+00	0.0
	51	2	1	2	0	0	1.3933000222E+02	2.5168693411E+01	-1.8893334890E+02	1.0762327108E+03	1.0500165355E+03	0.000E+00	0.0
	1000022	2	5	5	0	0	-1.3933000222E+02	-2.5168693411E+01	-3.0054722215E+02	8.9253529486E+02	8.2839864026E+02	0.000E+00	0.0
	14	1	6	6	0	0	-1.2412162098E+02	1.5508947972E+02	-3.5002932488E+02	5.1730498914E+02	3.2500000000E+02	0.000E+00	0.0
	-14	1	6	6	0	0	-1.5208381235E+01	-1.8025817314E+02	4.9482102727E+01	3.7523030572E+02	3.2500000000E+02	0.000E+00	0.0
	25	2	5	5	0	0	1.3933000222E+02	2.5168693411E+01	3.1026343359E+01	1.9152015985E+02	1.2518396463E+02	0.000E+00	0.0
	-5	1	9	9	0	501	1.3866779974E+02	-6.3172256508E-01	-1.4017198544E+01	1.3943855999E+02	4.1800000000E+00	0.000E+00	0.0
	5	1	9	9	501	0	6.6220248007E-01	2.5800415976E+01	4.5043541903E+01	5.2081599859E+01	4.1800000000E+00	0.000E+00	0.0
</event>
<event>
    11  -1  1.0000000E+00  1.0000000E+00  -1.0000000E+00  -1.0000000E+00
	2212	-1	0	0	0	0	0.0000000000E+00	0.0000000000E+00	6.5000000000E+03	6.5000000000E+03	9.3827000000E-01	0.000E+00	0.0
	2212	-1	0	0	0	0	0.0000000000E+00	0.0000000000E+00	-6.5000000000E+03	6.5000000000E+03	9.3827000000E-01	0.000E+00	0.0
	2212	1	0	0	0	0	0.0000000000E+00	0.0000000000E+00	6.2227930856E+03	6.2227930856E+03	9.3827000000E-01	0.000E+00	0.0
	2212	1	0	0	0	0	0.0000000000E+00	0.0000000000E+00	-5.5140324069E+03	5.5140324069E+03	9.3827000000E-01	0.000E+00	0.0
	51	2	1	2	0	0	1.3231108501E+01	-1.1352721844E+02	-8.0272631035E+02	1.3231406416E+03	1.0455946330E+03	0.000E+00	0.0
	1000022	2	5	5	0	0	-1.3231108501E+01	1.1352721844E+02	-4.9565651682E+02	9.9087611663E+02	8.5035087127E+02	0.000E+00	0.0
	14	1	6	6	0	0	8.1466645762E+01	-1.5316202005E+02	-5.1450251460E+01	3.7197788527E+02	3.2500000000E+02	0.000E+00	0.0
	-14	1	6	6	0	0	-9.4697754263E+01	2.6668923848E+02	-4.4420626536E+02	6.1889823135E+02	3.2500000000E+02	0.000E+00	0.0
	25	2	5	5	0	0	1.3231108501E+01	-1.1352721844E+02	-2.1310416195E+02	2.7229839088E+02	1.2517802633E+02	0.000E+00	0.0
	-5	1	9	9	0	501	-4.7020938832E+01	-9.5406809953E+01	-1.3482981319E+02	1.7178468791E+02	4.1800000000E+00	0.000E+00	0.0
	5	1	9	9	501	0	6.0252047333E+01	-1.8120408484E+01	-7.8274348756E+01	1.0051370297E+02	4.1800000000E+00	0.000E+00	0.0
</event>
<event>
    11  -1  1.0000000E+00  1.0000000E+00  -1.0000000E+00  -1.0000000E+00
	2212	-1	0	0	0	0	0.0000000000E+00	0.0000000000E+00	6.5000000000E+03	6.5000000000E+03	9.3827000000E-01	0.000E+00	0.0
	2212	-1	0	0	0	0	0.0000000000E+00	0.0000000000E+00	-6.5000000000E+03	6.5000000000E+03	9.3827000000E-01	0.000E+00	0.0
	2212	1	0	0	0	0	0.0000000000E+00	0.0000000000E+00	6.2429890552E+03	6.2429890552E+03	9.3827000000E-01	0.000E+00	0.0
	2212	1	0	0	0	0	0.0000000000E+00	0.0000000000E+00	-5.4193245092E+03	5.4193245092E+03	9.3827000000E-01	0.000E+00	0.0
	51	2	1	2	0	0	-1.0597986806E+02	5.3965787987E+01	-7.2380380415E+02	1.2841408416E+03	1.0540311738E+03	0.000E+00	0.0
	1000022	2	5	5	0	0	1.0597986806E+02	-5.3965787987E+01	-7.8104688831E+02	1.1598375578E+03	8.4914361566E+02	0.000E+00	0.0
	14	1	6	6	0	0	6.8104543562E+01	-2.0060075531E+02	-6.8729906253E+02	7.8922993686E+02	3.2500000000E+02	0.000E+00	0.0
	-14	1	6	6	0	0	3.7875324500E+01	1.4663496732E+02	-9.3747825775E+01	3.7060762092E+02	3.2500000000E+02	0.000E+00	0.0
	25	2	5	5	0	0	-1.0597986806E+02	5.3965787987E+01	-4.2617657707E+01	1.7784887774E+02	1.2517955048E+02	0.000E+00	0.0
	-5	1	9	9	0	501	-8.3483827783E+01	1.1153904153E+01	3.0847952654E+01	8.9794363198E+01	4.1800000000E+00	0.000E+00	0.0
	5	1	9	9	501	0	-2.2496040279E+01	4.2811883834E+01	-7.3465610362E+01	8.8054514543E+01	4.1800000000E+00	0.000E+00	0.0
</event>
<event>
    11  -1  1.0000000E+00  1.0000000E+00  -1.0000000E+00  -1.0000000E+00
	2212	-1	0	0	0	0	0.0000000000E+00	0.0000000000E+00	6.5000000000E+03	6.5000000000E+03	9.3827000000E-01	0.000E+00	0.0
	2212	-1	0	0	0	0	0.0000000000E+00	0.0000000000E+00	-6.5000000000E+03	6.5000000000E+03	9.3827000000E-01	0.000E+00	0.0
	2212	1	0	0	0	0	0.0000000000E+00	0.0000000000E+00	6.0540531065E+03	6.0540531065E+03	9.3827000000E-01	0.000E+00	0.0
	2212	1	0	0	0	0	0.0000000000E+00	0.0000000000E+00	-5.8670727398E+03	5.8670727398E+03	9.3827000000E-01	0.000E+00	0.0
	51	2	1	2	0	0	-1.2779711980E+02	-1.6622077380E+00	-2.9239548444E+02	1.1094312814E+03	1.0625477787E+03	0.000E+00	0.0
	1000022	2	5	5	0	0	1.2779711980E+02	1.6622077380E+00	-4.7550378645E+01	8.5205169036E+02	8.4106847389E+02	0.000E+00	0.0
	14	1	6	6	0	0	-1.4336902305E+02	1.6603105512E+02	2.1863319581E+01	3.9271362693E+02	3.2500000000E+02	0.000E+00	0.0
	-14	1	6	6	0	0	2.7116614285E+02	-1.6436884738E+02	-6.9413698226E+01	4.5933806343E+02	3.2500000000E+02	0.000E+00	0.0
	25	2	5	5	0	0	-1.2779711980E+02	-1.6622077380E+00	-1.3942998806E+02	2.2682246337E+02	1.2519121997E+02	0.000E+00	0.0
	-5	1	9	9	0	501	-4.4567301885E+01	6.0006063482E+01	-5.1286092270E+01	9.0745290304E+01	4.1800000000E+00	0.000E+00	0.0
	5	1	9	9	501	0	-8.3229817916E+01	-6.1668271220E+01	-8.8143895792E+01	1.3607717307E+02	4.1800000000E+00	0.000E+00	0.0
</event>
<event>
    11  -1  1.0000000E+00  1.0000000E+00  -1.0000000E+00  -1.0000000E+00
	2212	-1	0	0	0	0	0.0000000000E+00	0.0000000000E+00	6.5000000000E+03	6.5000000000E+03	9.3827000000E-01	0.000E+00	0.0
	2212	-1	0	0	0	0	0.0000000000E+00	0.0000000000E+00	-6.5000000000E+03	6.5000000000E+03	9.3827000000E-01	0.000E+00	0.0
	2212	1	0	0	0	0	0.0000000000E+00	0.0000000000E+00	4.9871746368E+03	4.9871746368E+03	9.3827000000E-01	0.000E+00	0.0
	2212	1	0	0	0	0	0.0000000000E+00	0.0000000000E+00	-6.3179410167E+03	6.3179410167E+03	9.3827000000E-01	0.000E+00	0.0
	51	2	1	2	0	0	-1.5881216556E+02	-1.1872874642E+00	1.3882112743E+03	1.7475832014E+03	1.0496160204E+03	0.000E+00	0.0
	1000022	2	5	5	0	0	1.5881216556E+02	1.1872874642E+00	1.0303805714E+03	1.3327722403E+03	8.3028610069E+02	0.000E+00	0.0
	14	1	6	6	0	0	5.0458611808E+01	1.3900539491E+02	8.4969157685E+02	9.2166661385E+02	3.2500000000E+02	0.000E+00	0.0
	-14	1	6	6	0	0	1.0835355375E+02	-1.3781810744E+02	1.8068899457E+02	4.1110562646E+02	3.2500000000E+02	0.000E+00	0.0
	25	2	5	5	0	0	-1.5881216556E+02	-1.1872874642E+00	3.0038580841E+02	3.6211210616E+02	1.2518318558E+02	0.000E+00	0.0
	-5	1	9	9	0	501	-8.4655028606E+01	4.6851119963E+01	8.3464220351E+01	1.2784854238E+02	4.1800000000E+00	0.000E+00	0.0
	5	1	9	9	501	0	-7.4157136957E+01	-4.8038407427E+01	2.1692158806E+02	2.3426356378E+02	4.1800000000E+00	0.000E+00	0.0
</event>
<event>
    11  -1  1.0000000E+00  1.0000000E+00  -1.0000000E+00  -1.0000000E+00
	2212	-1	0	0	0	0	0.0000000000E+00	0.0000000000E+00	6.5000000000E+03	6.5000000000E+03	9.3827000000E-01	0.000E+00	0.0
	2212	-1	0	0	0	0	0.0000000000E+00	0.0000000000E+00	-6.5000000000E+03	6.5000000000E+03	9.3827000000E-01	0.000E+00	0.0
	2212	1	0	0	0	0	0.0000000000E+00	0.0000000000E+00	5.7689506377E+03	5.7689506377E+03	9.3827000000E-01	0.000E+00	0.0
	2212	1	0	0	0	0	0.0000000000E+00	0.0000000000E+00	-6.1246607269E+03	6.1246607269E+03	9.3827000000E-01	0.000E+00	0.0
	51	2	1	2	0	0	1.3863069403E+01	1.2246148686E+02	4.2841194893E+02	1.1385481735E+03	1.0476479107E+03	0.000E+00	0.0
	1000022	2	5	5	0	0	-1.3863069403E+01	-1.2246148686E+02	2.2245048807E+02	8.8587234570E+02	8.4858505336E+02	0.000E+00	0.0
	14	1	6	6	0	0	-1.4772407907E+02	-2.7764696467E+02	2.2690463456E+01	4.5282457713E+02	3.2500000000E+02	0.000E+00	0.0
	-14	1	6	6	0	0	1.3386100967E+02	1.5518547781E+02	1.9976002461E+02	4.3304776857E+02	3.2500000000E+02	0.000E+00	0.0
	25	2	5	5	0	0	1.3863069403E+01	1.2246148686E+02	1.3325960114E+02	2.2051628963E+02	1.2522105350E+02	0.000E+00	0.0
	-5	1	9	9	0	501	-9.6559812776E+00	1.1454967321E+02	1.5092939821E+02	1.8976833574E+02	4.1800000000E+00	0.000E+00	0.0
	5	1	9	9	501	0	2.3519050680E+01	7.9118136513E+00	-1.7669797068E+01	3.0747953893E+01	4.1800000000E+00	0.000E+00	0.0
</event>
<event>
    11  -1  1.0000000E+00  1.0000000E+00  -1.0000000E+00  -1.0000000E+00
	2212	-1	0	0	0	0	0.0000000000E+00	0.0000000000E+00	6.5000000000E+03	6.5000000000E+03	9.3827000000E-01	0.000E+00	0.0
	2212	-1	0	0	0	0	0.0000000000E+00	0.0000000000E+00	-6.5000000000E+03	6.5000000000E+03	9.3827000000E-01	0.000E+00	0.0
	2212	1	0	0	0	0	0.0000000000E+00	0.0000000000E+00	6.1934291129E+03	6.1934291129E+03	9.3827000000E-01	0.000E+00	0.0
	2212	1	0	0	0	0	0.0000000000E+00	0.0000000000E+00	-5.5852868562E+03	5.5852868562E+03	9.3827000000E-01	0.000E+00	0.0
	51	2	1	2	0	0	-5.6903098646E+01	2.9280089084E+01	-5.2714553894E+02	1.1847680723E+03	1.0591022990E+03	0.000E+00	0.0
	1000022	2	5	5	0	0	5.6903098646E+01	-2.9280089084E+01	-6.0085626650E+02	1.0805088042E+03	8.9575428368E+02	0.000E+00	0.0
	14	1	6	6	0	0	-5.7865787557E+00	2.2010593200E+02	-5.3081825592E+02	6.6020688167E+02	3.2500000000E+02	0.000E+00	0.0
	-14	1	6	6	0	0	6.2689677402E+01	-2.4938602108E+02	-7.0038010585E+01	4.2030192254E+02	3.2500000000E+02	0.000E+00	0.0
	25	2	5	5	0	0	-5.6903098646E+01	2.9280089084E+01	-7.2859902360E+00	1.4077522672E+02	1.2517704483E+02	0.000E+00	0.0
	-5	1	9	9	0	501	-9.1821275983E+01	3.2845617089E+01	1.5339228625E+01	9.8806607167E+01	4.1800000000E+00	0.000E+00	0.0
	5	1	9	9	501	0	3.4918177337E+01	-3.5655280058E+00	-2.2625218861E+01	4.1968619551E+01	4.1800000000E+00	0.000E+00	0.0
</event>
<event>
    11  -1  1.0000000E+00  1.0000000E+00  -1.0000000E+00  -1.0000000E+00
	2212	-1	0	0	0	0	0.0000000000E+00	0.0000000000E+00	6.5000000000E+03	6.5000000000E+03	9.3827000000E-01	0.000E+00	0.0
	2212	-1	0	0	0	0	0.0000000000E+00	0.0000000000E+00	-6.5000000000E+03	6.5000000000E+03	9.3827000000E-01	0.000E+00	0.0
	2212	1	0	0	0	0	0.0000000000E+00	0.0000000000E+00	5.9238987097E+03	5.9238987097E+03	9.3827000000E-01	0.000E+00	0.0
	2212	1	0	0	0	0	0.0000000000E+00	0.0000000000E+00	-6.0743321905E+03	6.0743321905E+03	9.3827000000E-01	0.000E+00	0.0
	51	2	1	2	0	0	-3.2653065939E+01	-1.4604009570E+01	1.4946412884E+02	1.0022625019E+03	9.9040956030E+02	0.000E+00	0.0
	1000022	2	5	5	0	0	3.2653065939E+01	1.4604009570E+01	1.3172698349E+02	8.7024996061E+02	8.5947861867E+02	0.000E+00	0.0
	14	1	6	6	0	0	-4.1382657990E+01	1.9619540195E+02	-1.3641548145E+02	4.0551121280E+02	3.2500000000E+02	0.000E+00	0.0
	-14	1	6	6	0	0	7.4035723929E+01	-1.8159139238E+02	2.6814246494E+02	4.6473874781E+02	3.2500000000E+02	0.000E+00	0.0
	25	2	5	5	0	0	-3.2653065939E+01	-1.4604009570E+01	1.8706497249E+01	1.3151913917E+02	1.2517128711E+02	0.000E+00	0.0
	-5	1	9	9	0	501	-4.7940054658E+01	4.5704951154E+01	-1.7084012065E-01	6.6367861099E+01	4.1800000000E+00	0.000E+00	0.0
	5	1	9	9	501	0	1.5286988719E+01	-6.0308960724E+01	1.8877337369E+01	6.5151278068E+01	4.1800000000E+00	0.000E+00	0.0
</event>
<event>
    11  -1  1.0000000E+00  1.0000000E+00  -1.0000000E+00  -1.0000000E+00
	2212	-1	0	0	0	0	0.0000000000E+00	0.0000000000E+00	6.5000000000E+03	6.5000000000E+03	9.3827000000E-01	0.000E+00	0.0
	2212	-1	0	0	0	0	0.0000000000E+00	0.0000000000E+00	-6.5000000000E+03	6.5000000000E+03	9.3827000000E-01	0.000E+00	0.0
	2212	1	0	0	0	0	0.0000000000E+00	0.0000000000E+00	5.4259794769E+03	5.4259794769E+03	9.3827000000E-01	0.000E+00	0.0
	2212	1	0	0	0	0	0.0000000000E+00	0.0000000000E+00	-6.2334302482E+03	6.2334302482E+03	9.3827000000E-01	0.000E+00	0.0
	51	2	1	2	0	0	7.5630472956E+01	1.1863758781E+02	9.1452857317E+02	1.4146953360E+03	1.0701427648E+03	0.000E+00	0.0
	1000022	2	5	5	0	0	-7.5630472956E+01	-1.1863758781E+02	5.5558912050E+02	1.0261042186E+03	8.5112616629E+02	0.000E+00	0.0
	14	1	6	6	0	0	-1.8480449388E+02	1.0720945694E+02	7.8663232342E+01	3.9681163382E+02	3.2500000000E+02	0.000E+00	0.0
	-14	1	6	6	0	0	1.0917402092E+02	-2.2584704475E+02	4.7692588815E+02	6.2929258478E+02	3.2500000000E+02	0.000E+00	0.0
	25	2	5	5	0	0	7.5630472956E+01	1.1863758781E+02	2.5186165084E+02	3.1448605628E+02	1.2518922778E+02	0.000E+00	0.0
	-5	1	9	9	0	501	1.0103333796E+02	1.2592763524E+02	2.1304019324E+02	2.6733705510E+02	4.1800000000E+00	0.000E+00	0.0
	5	1	9	9	501	0	-2.5402865002E+01	-7.2900474332E+00	3.8821457600E+01	4.7149001178E+01	4.1800000000E+00	0.000E+00	0.0
</event>
<event>
    11  -1  1.0000000E+00  1.0000000E+00  -1.0000000E+00  -1.0000000E+00
	2212	-1	0	0	0	0	0.0000000000E+00	0.0000000000E+00	6.5000000000E+03	6.5000000000E+03	9.3827000000E-01	0.000E+00	0.0
	2212	-1	0	0	0	0	0.0000000000E+00	0.0000000000E+00	-6.5000000000E+03	6.5000000000E+03	9.3827000000E-01	0.000E+00	0.0
	2212	1	0	0	0	0	0.0000000000E+00	0.0000000000E+00	5.3565169463E+03	5.3565169463E+03	9.3827000000E-01	0.000E+00	0.0
	2212	1	0	0	0	0	0.0000000000E+00	0.0000000000E+00	-6.2582657823E+03	6.2582657823E+03	9.3827000000E-01	0.000E+00	0.0
	51	2	1	2	0	0	-1.3861200926E+02	6.6936645130E+01	9.3411859148E+02	1.4149018595E+03	1.0515112580E+03	0.000E+00	0.0
	1000022	2	5	5	0	0	1.3861200926E+02	-6.6936645130E+01	7.0833248725E+02	1.1081417095E+03	8.3818215933E+02	0.000E+00	0.0
	14	1	6	6	0	0	-1.4069225025E+02	-1.5142347547E+02	4.7955000219E+02	6.1507445306E+02	3.2500000000E+02	0.000E+00	0.0
	-14	1	6	6	0	0	2.7930425951E+02	8.4486830345E+01	2.2878248506E+02	4.9306725642E+02	3.2500000000E+02	0.000E+00	0.0
	25	2	5	5	0	0	-1.3861200926E+02	6.6936645130E+01	1.9341634879E+02	2.7707556190E+02	1.2516860409E+02	0.000E+00	0.0
	-5	1	9	9	0	501	-6.5584607053E+01	9.0285032716E+01	7.0228733280E+01	1.3191768340E+02	4.1800000000E+00	0.000E+00	0.0
	5	1	9	9	501	0	-7.3027402209E+01	-2.3348387585E+01	1.2318761551E+02	1.4515787851E+02	4.1800000000E+00	0.000E+00	0.0
</event>
<event>
    11  -1  1.0000000E+00  1.0000000E+00  -1.0000000E+00  -1.0000000E+00
	2212	-1	0	0	0	0	0.0000000000E+00	0.0000000000E+00	6.5000000000E+03	6.5000000000E+03	9.3827000000E-01	0.000E+00	0.0
	2212	-1	0	0	0	0	0.0000000000E+00	0.0000000000E+00	-6.5000000000E+03	6.5000000000E+03	9.3827000000E-01	0.000E+00	0.0
	2212	1	0	0	0	0	0.0000000000E+00	0.0000000000E+00	5.9765781835E+03	5.9765781835E+03	9.3827000000E-01	0.000E+00	0.0
	2212	1	0	0	0	0	0.0000000000E+00	0.0000000000E+00	-5.9758284166E+03	5.9758284166E+03	9.3827000000E-01	0.000E+00	0.0
	51	2	1	2	0	0	-7.9435837626E+01	-7.2013517369E+01	3.3155718111E+01	1.0535875237E+03	1.0475931316E+03	0.000E+00	0.0
	1000022	2	5	5	0	0	7.9435837626E+01	7.2013517369E+01	-3.4539124533E+01	8.7934333593E+02	8.7209847628E+02	0.000E+00	0.0
	14	1	6	6	0	0	1.4870686143E+01	2.8758128022E+02	1.2684165071E+02	4.5236924563E+02	3.2500000000E+02	0.000E+00	0.0
	-14	1	6	6	0	0	6.4565151483E+01	-2.1556776285E+02	-1.6138077524E+02	4.2697409030E+02	3.2500000000E+02	0.000E+00	0.0
	25	2	5	5	0	0	-7.9435837626E+01	-7.2013517369E+01	3.3789357706E+01	1.6825006398E+02	1.2518132590E+02	0.000E+00	0.0
	-5	1	9	9	0	501	-8.2451480903E+01	-1.0228128443E+02	3.9002462702E+01	1.3710715643E+02	4.1800000000E+00	0.000E+00	0.0
	5	1	9	9	501	0	3.0156432772E+00	3.0267767060E+01	-5.2131049959E+00	3.1142907553E+01	4.1800000000E+00	0.000E+00	0.0
</event>
<event>
    11  -1  1.0000000E+00  1.0000000E+00  -1.0000000E+00  -1.0000000E+00
	2212	-1	0	0	0	0	0.0000000000E+00	0.0000000000E+00	6.5000000000E+03	6.5000000000E+03	9.3827000000E-01	0.000E+00	0.0
	2212	-1	0	0	0	0	0.0000000000E+00	0.0000000000E+00	-6.5000000000E+03	6.5000000000E+03	9.3827000000E-01	0.000E+00	0.0
	2212	1	0	0	0	0	0.0000000000E+00	0.0000000000E+00	6.3059064892E+03	6.3059064892E+03	9.3827000000E-01	0.000E+00	0.0
	2212	1	0	0	0	0	0.0000000000E+00	0.0000000000E+00	-5.0780698803E+03	5.0780698803E+03	9.3827000000E-01	0.000E+00	0.0
	51	2	1	2	0	0	7.3304001964E+01	1.5268744944E+01	-1.1623947420E+03	1.5686675185E+03	1.0506900761E+03	0.000E+00	0.0
	1000022	2	5	5	0	0	-7.3304001964E+01	-1.5268744944E+01	-1.1190465625E+03	1.4340634906E+03	8.9368130484E+02	0.000E+00	0.0
	14	1	6	6	0	0	1.7199488452E+01	-2.3584010071E+02	-8.7492834338E+02	9.6282967422E+02	3.2500000000E+02	0.000E+00	0.0
	-14	1	6	6	0	0	-9.0503490416E+01	2.2057135576E+02	-2.4411821914E+02	4.7123381636E+02	3.2500000000E+02	0.000E+00	0.0
	25	2	5	5	0	0	7.3304001964E+01	1.5268744944E+01	-1.0879004637E+02	1.8196013985E+02	1.2517031209E+02	0.000E+00	0.0
	-5	1	9	9	0	501	9.2483861527E+01	4.9838167658E+01	-8.7944316275E+01	1.3707218085E+02	4.1800000000E+00	0.000E+00	0.0
	5	1	9	9	501	0	-1.9179859562E+01	-3.4569422714E+01	-2.0845730092E+01	4.4887958994E+01	4.1800000000E+00	0.000E+00	0.0
</event>
<event>
    11  -1  1.0000000E+00  1.0000000E+00  -1.0000000E+00  -1.0000000E+00
	2212	-1	0	0	0	0	0.0000000000E+00	0.0000000000E+00	6.5000000000E+03	6.5000000000E+03	9.3827000000E-01	0.000E+00	0.0
	2212	-1	0	0	0	0	0.0000000000E+00	0.0000000000E+00	-6.5000000000E+03	6.5000000000E+03	9.3827000000E-01	0.000E+00	0.0
	2212	1	0	0	0	0	0.0000000000E+00	0.0000000000E+00	6.0313571562E+03	6.0313571562E+03	9.3827000000E-01	0.000E+00	0.0
	2212	1	0	0	0	0	0.0000000000E+00	0.0000000000E+00	-5.9151379336E+03	5.9151379336E+03	9.3827000000E-01	0.000E+00	0.0
	51	2	1	2	0	0	-2.6193576088E+01	1.0043875600E+02	-2.0506029360E+02	1.0720025463E+03	1.0470748245E+03	0.000E+00	0.0
	1000022	2	5	5	0	0	2.6193576088E+01	-1.0043875600E+02	-7.8612573058E+00	8.5809038031E+02	8.5175304771E+02	0.000E+00	0.0
	14	1	6	6	0	0	2.6189782853E+02	6.5290477448E+01	-2.7038581079E+01	4.2333131694E+02	3.2500000000E+02	0.000E+00	0.0
	-14	1	6	6	0	0	-2.3570425244E+02	-1.6572923345E+02	1.9177323773E+01	4.3475906337E+02	3.2500000000E+02	0.000E+00	0.0
	25	2	5	5	0	0	-2.6193576088E+01	1.0043875600E+02	-1.0835796524E+02	1.9541452992E+02	1.2518523370E+02	0.000E+00	0.0
	-5	1	9	9	0	501	9.3323186980E+00	1.1787133163E+02	-9.9632184071E+01	1.5467639605E+02	4.1800000000E+00	0.000E+00	0.0
	5	1	9	9	501	0	-3.5525894786E+01	-1.7432575634E+01	-8.7257811691E+00	4.0738133863E+01	4.1800000000E+00	0.000E+00	0.0
</event>
<event>
    11  -1  1.0000000E+00  1.0000000E+00  -1.0000000E+00  -1.0000000E+00
	2212	-1	0	0	0	0	0.0000000000E+00	0.0000000000E+00	6.5000000000E+03	6.5000000000E+03	9.3827000000E-01	0.000E+00	0.0
	2212	-1	0	0	0	0	0.0000000000E+00	0.0000000000E+00	-6.5000000000E+03	6.5000000000E+03	9.3827000000E-01	0.000E+00	0.0
	2212	1	0	0	0	0	0.0000000000E+00	0.0000000000E+00	5.6902266930E+03	5.6902266930E+03	9.3827000000E-01	0.000E+00	0.0
	2212	1	0	0	0	0	0.0000000000E+00	0.0000000000E+00	-6.1530001948E+03	6.1530001948E+03	9.3827000000E-01	0.000E+00	0.0
	51	2	1	2	0	0	-8.9706308945E+01	-1.1942985091E+02	4.8957955596E+02	1.1772695409E+03	1.0601720234E+03	0.000E+00	0.0
	1000022	2	5	5	0	0	8.9706308945E+01	1.1942985091E+02	3.5509320025E+02	9.3411913858E+02	8.5098570672E+02	0.000E+00	0.0
	14	1	6	6	0	0	9.6903801292E+01	3.2437094112E+02	2.6676380506E+02	5.3980994973E+02	3.2500000000E+02	0.000E+00	0.0
	-14	1	6	6	0	0	-7.1974923464E+00	-2.0494109020E+02	8.8329395195E+01	3.9430918884E+02	3.2500000000E+02	0.000E+00	0.0
	25	2	5	5	0	0	-8.9706308945E+01	-1.1942985091E+02	1.0768030162E+02	2.2265397365E+02	1.2517600996E+02	0.000E+00	0.0
	-5	1	9	9	0	501	-7.9320889703E+01	-1.2374235916E+02	3.7897614341E+01	1.5184754383E+02	4.1800000000E+00	0.000E+00	0.0
	5	1	9	9	501	0	-1.0385419242E+01	4.3125082437E+00	6.9782687281E+01	7.0806429824E+01	4.1800000000E+00	0.000E+00	0.0
</event>
<event>
    11  -1  1.0000000E+00  1.0000000E+00  -1.0000000E+00  -1.0000000E+00
	2212	-1	0	0	0	0	0.0000000000E+00	0.0000000000E+00	6.5000000000E+03	6.5000000000E+03	9.3827000000E-01	0.000E+00	0.0
	2212	-1	0	0	0	0	0.0000000000E+00	0.0000000000E+00	-6.5000000000E+03	6.5000000000E+03	9.3827000000E-01	0.000E+00	0.0
	2212	1	0	0	0	0	0.0000000000E+00	0.0000000000E+00	5.1662234297E+03	5.1662234297E+03	9.3827000000E-01	0.000E+00	0.0
	2212	1	0	0	0	0	0.0000000000E+00	0.0000000000E+00	-6.2985998621E+03	6.2985998621E+03	9.3827000000E-01	0.000E+00	0.0
	51	2	1	2	0	0	8.8337953323E+00	-1.0212783586E+02	1.2452172587E+03	1.6234424206E+03	1.0365766450E+03	0.000E+00	0.0
	1000022	2	5	5	0	0	-8.8337953323E+00	1.0212783586E+02	8.3479361704E+02	1.1964540007E+03	8.5094868348E+02	0.000E+00	0.0
	14	1	6	6	0	0	2.6831754803E+02	3.0759244601E+01	4.4746271518E+02	6.1545781268E+02	3.2500000000E+02	0.000E+00	0.0
	-14	1	6	6	0	0	-2.7715134337E+02	7.1368591256E+01	3.8733090186E+02	5.8099618801E+02	3.2500000000E+02	0.000E+00	0.0
	25	2	5	5	0	0	8.8337953323E+00	-1.0212783586E+02	2.9758281537E+02	3.3872270756E+02	1.2517751321E+02	0.000E+00	0.0
	-5	1	9	9	0	501	2.5793349317E+01	1.9829249405E+01	3.1389538149E+01	4.5401228025E+01	4.1800000000E+00	0.000E+00	0.0
	5	1	9	9	501	0	-1.6959553984E+01	-1.2195708526E+02	2.6619327723E+02	2.9332147954E+02	4.1800000000E+00	0.000E+00	0.0
</event>
<event>
    11  -1  1.0000000E+00  1.0000000E+00  -1.0000000E+00  -1.0000000E+00
	2212	-1	0	0	0	0	0.0000000000E+00	0.0000000000E+00	6.5000000000E+03	6.5000000000E+03	9.3827000000E-01	0.000E+00	0.0
	2212	-1	0	0	0	0	0.0000000000E+00	0.0000000000E+00	-6.5000000000E+03	6.5000000000E+03	9.3827000000E-01	0.000E+00	0.0
	2212	1	0	0	0	0	0.0000000000E+00	0.0000000000E+00	6.1148628652E+03	6.1148628652E+03	9.3827000000E-01	0.000E+00	0.0
	2212	1	0	0	0	0	0.0000000000E+00	0.0000000000E+00	-5.7892198026E+03	5.7892198026E+03	9.3827000000E-01	0.000E+00	0.0
	51	2	1	2	0	0	8.0615227970E+01	-3.8496078628E+01	-3.3038286322E+02	1.1009654827E+03	1.0464183650E+03	0.000E+00	0.0
	1000022	2	5	5	0	0	-8.0615227970E+01	3.8496078628E+01	-2.7421959136E+02	9.3376021902E+02	8.8810528615E+02	0.000E+00	0.0
	14	1	6	6	0	0	1.1784420280E+01	7.5850460667E+01	-4.4256625809E+02	5.5442047017E+02	3.2500000000E+02	0.000E+00	0.0
	-14	1	6	6	0	0	-9.2399648250E+01	-3.7354382039E+01	1.6834666674E+02	3.7933974885E+02	3.2500000000E+02	0.000E+00	0.0
	25	2	5	5	0	0	8.0615227970E+01	-3.8496078628E+01	-5.1423471236E+01	1.6215711314E+02	1.2517904336E+02	0.000E+00	0.0
	-5	1	9	9	0	501	-2.3025098595E+01	2.0596994826E+01	-2.4828993831E+01	3.9854017311E+01	4.1800000000E+00	0.000E+00	0.0
	5	1	9	9	501	0	1.0364032656E+02	-5.9093073454E+01	-2.6594477405E+01	1.2230309583E+02	4.1800000000E+00	0.000E+00	0.0
</event>
<event>
    11  -1  1.0000000E+00  1.0000000E+00  -1.0000000E+00  -1.0000000E+00
	2212	-1	0	0	0	0	0.0000000000E+00	0.0000000000E+00	6.5000000000E+03	6.5000000000E+03	9.3827000000E-01	0.000E+00	0.0
	2212	-1	0	0	0	0	0.0000000000E+00	0.0000000000E+00	-6.5000000000E+03	6.5000000000E+03	9.3827000000E-01	0.000E+00	0.0
	2212	1	0	0	0	0	0.0000000000E+00	0.0000000000E+00	5.4687356708E+03	5.4687356708E+03	9.3827000000E-01	0.000E+00	0.0
	2212	1	0	0	0	0	0.0000000000E+00	0.0000000000E+00	-6.2366927025E+03	6.2366927025E+03	9.3827000000E-01	0.000E+00	0.0
	51	2	1	2	0	0	-1.0305906897E+02	-1.5666171274E+01	8.6215521986E+02	1.3565898119E+03	1.0421888956E+03	0.000E+00	0.0
	1000022	2	5	5	0	0	1.0305906897E+02	1.5666171274E+01	5.4834348961E+02	1.0211364583E+03	8.5508624321E+02	0.000E+00	0.0
	14	1	6	6	0	0	-2.2587031132E+02	2.0202355996E+01	2.9340573382E+02	4.9308970519E+02	3.2500000000E+02	0.000E+00	0.0
	-14	1	6	6	0	0	3.2892938029E+02	-4.5361847224E+00	2.5493775580E+02	5.2804675315E+02	3.2500000000E+02	0.000E+00	0.0
	25	2	5	5	0	0	-1.0305906897E+02	-1.5666171274E+01	2.1961354211E+02	2.7343516836E+02	1.2518020129E+02	0.000E+00	0.0
	-5	1	9	9	0	501	-2.0242356642E+01	2.3276876005E+01	-4.3758173199E+00	3.1435428043E+01	4.1800000000E+00	0.000E+00	0.0
	5	1	9	9	501	0	-8.2816712324E+01	-3.8943047279E+01	2.2398935943E+02	2.4199974031E+02	4.1800000000E+00	0.000E+00	0.0
</event>
<event>
    11  -1  1.0000000E+00  1.0000000E+00  -1.0000000E+00  -1.0000000E+00
	2212	-1	0	0	0	0	0.0000000000E+00	0.0000000000E+00	6.5000000000E+03	6.5000000000E+03	9.3827000000E-01	0.000E+00	0.0
	2212	-1	0	0	0	0	0.0000000000E+00	0.0000000000E+00	-6.5000000000E+03	6.5000000000E+03	9.3827000000E-01	0.000E+00	0.0
	2212	1	0	0	0	0	0.0000000000E+00	0.0000000000E+00	5.9688356115E+03	5.9688356115E+03	9.3827000000E-01	0.000E+00	0.0
	2212	1	0	0	0	0	0.0000000000E+00	0.0000000000E+00	-5.9885557486E+03	5.9885557486E+03	9.3827000000E-01	0.000E+00	0.0
	51	2	1	2	0	0	-7.5164366622E+01	4.3556229552E+01	-8.1838381420E+01	1.0492322146E+03	1.0424221277E+03	0.000E+00	0.0
	1000022	2	5	5	0	0	7.5164366622E+01	-4.3556229552E+01	1.1797464541E+02	8.6130120733E+02	8.4874903573E+02	0.000E+00	0.0
	14	1	6	6	0	0	2.0383686914E+02	1.2685347264E+02	-9.8972163833E+01	4.1600692537E+02	3.2500000000E+02	0.000E+00	0.0
	-14	1	6	6	0	0	-1.2867250252E+02	-1.7040970219E+02	2.1694680924E+02	4.4529428196E+02	3.2500000000E+02	0.000E+00	0.0
	25	2	5	5	0	0	-7.5164366622E+01	4.3556229552E+01	-9.8254508290E+01	1.8130743265E+02	1.2518629954E+02	0.000E+00	0.0
	-5	1	9	9	0	501	-1.4973383077E+01	7.4096708818E+01	-2.0860866256E+01	7.8531347877E+01	4.1800000000E+00	0.000E+00	0.0
	5	1	9	9	501	0	-6.0190983545E+01	-3.0540479266E+01	-7.7393642033E+01	1.0277608477E+02	4.1800000000E+00	0.000E+00	0.0
</event>
<event>
    11  -1  1.0000000E+00  1.0000000E+00  -1.0000000E+00  -1.0000000E+00
	2212	-1	0	0	0	0	0.0000000000E+00	0.0000000000E+00	6.5000000000E+03	6.5000000000E+03	9.3827000000E-01	0.000E+00	0.0
	2212	-1	0	0	0	0	0.0000000000E+00	0.0000000000E+00	-6.5000000000E+03	6.5000000000E+03	9.3827000000E-01	0.000E+00	0.0
	2212	1	0	0	0	0	0.0000000000E+00	0.0000000000E+00	5.7896128740E+03	5.7896128740E+03	9.3827000000E-01	0.000E+00	0.0
	2212	1	0	0	0	0	0.0000000000E+00	0.0000000000E+00	-6.0995789613E+03	6.0995789613E+03	9.3827000000E-01	0.000E+00	0.0
	51	2	1	2	0	0	9.8459022595E+01	-5.7101370353E+01	4.0748009648E+02	1.1475236721E+03	1.0666844910E+03	0.000E+00	0.0
	1000022	2	5	5	0	0	-9.8459022595E+01	5.7101370353E+01	1.5951989954E+02	8.8440256327E+02	8.6241901065E+02	0.000E+00	0.0
	14	1	6	6	0	0	-2.2375723854E+02	2.0321548919E+02	2.3042268919E+02	5.0008344558E+02	3.2500000000E+02	0.000E+00	0.0
	-14	1	6	6	0	0	1.2529821595E+02	-1.4611411884E+02	-7.0902789645E+01	3.8431911769E+02	3.2500000000E+02	0.000E+00	0.0
	25	2	5	5	0	0	9.8459022595E+01	-5.7101370353E+01	1.5044618780E+02	2.2640560138E+02	1.2518264770E+02	0.000E+00	0.0
	-5	1	9	9	0	501	-2.0467673337E+01	-2.0036821874E+01	-2.5599198442E+00	2.9058999849E+01	4.1800000000E+00	0.000E+00	0.0
	5	1	9	9	501	0	1.1892669593E+02	-3.7064548480E+01	1.5300610765E+02	1.9734660153E+02	4.1800000000E+00	0.000E+00	0.0
</event>
<event>
    11  -1  1.0000000E+00  1.0000000E+00  -1.0000000E+00  -1.0000000E+00
	2212	-1	0	0	0	0	0.0000000000E+00	0.0000000000E+00	6.5000000000E+03	6.5000000000E+03	9.3827000000E-01	0.000E+00	0.0
	2212	-1	0	0	0	0	0.0000000000E+00	0.0000000000E+00	-6.5000000000E+03	6.5000000000E+03	9.3827000000E-01	0.000E+00	0.0
	2212	1	0	0	0	0	0.0000000000E+00	0.0000000000E+00	5.2760655635E+03	5.2760655635E+03	9.3827000000E-01	0.000E+00	0.0
	2212	1	0	0	0	0	0.0000000000E+00	0.0000000000E+00	-6.2737128489E+03	6.2737128489E+03	9.3827000000E-01	0.000E+00	0.0
	51	2	1	2	0	0	-1.0892721899E+02	3.6758869516E+01	1.0870858766E+03	1.5175027524E+03	1.0525409954E+03	0.000E+00	0.0
	1000022	2	5	5	0	0	1.0892721899E+02	-3.6758869516E+01	7.4505158775E+02	1.1457684667E+03	8.6282510244E+02	0.000E+00	0.0
	14	1	6	6	0	0	-2.2287954615E+02	-8.6027566953E+01	3.4956914428E+02	5.3375989078E+02	3.2500000000E+02	0.000E+00	0.0
	-14	1	6	6	0	0	3.3180676514E+02	4.9268697436E+01	3.9548244347E+02	6.1200857595E+02	3.2500000000E+02	0.000E+00	0.0
	25	2	5	5	0	0	-1.0892721899E+02	3.6758869516E+01	2.5259569771E+02	3.0445312087E+02	1.2518291730E+02	0.000E+00	0.0
	-5	1	9	9	0	501	-2.4600553752E+01	-1.5842883280E+01	-3.4541980060E+00	2.9758831956E+01	4.1800000000E+00	0.000E+00	0.0
	5	1	9	9	501	0	-8.4326665242E+01	5.2601752797E+01	2.5604989572E+02	2.7469428892E+02	4.1800000000E+00	0.000E+00	0.0
</event>
<event>
    11  -1  1.0000000E+00  1.0000000E+00  -1.0000000E+00  -1.0000000E+00
	2212	-1	0	0	0	0	0.0000000000E+00	0.0000000000E+00	6.5000000000E+03	6.5000000000E+03	9.3827000000E-01	0.000E+00	0.0
	2212	-1	0	0	0	0	0.0000000000E+00	0.0000000000E+00	-6.5000000000E+03	6.5000000000E+03	9.3827000000E-01	0.000E+00	0.0
	2212	1	0	0	0	0	0.0000000000E+00	0.0000000000E+00	6.3113325897E+03	6.3113325897E+03	9.3827000000E-01	0.000E+00	0.0
	2212	1	0	0	0	0	0.0000000000E+00	0.0000000000E+00	-5.0493899051E+03	5.0493899051E+03	9.3827000000E-01	0.000E+00	0.0
	51	2	1	2	0	0	-1.0384428985E+02	-1.8293236485E+01	-1.2525542904E+03	1.6354638269E+03	1.0462941268E+03	0.000E+00	0.0
	1000022	2	5	5	0	0	1.0384428985E+02	1.8293236485E+01	-1.0799852058E+03	1.3945307780E+03	8.7591652963E+02	0.000E+00	0.0
	14	1	6	6	0	0	1.6760283783E+02	-1.7194785252E+02	-2.3552553128E+02	4.6771150415E+02	3.2500000000E+02	0.000E+00	0.0
	-14	1	6	6	0	0	-6.3758547980E+01	1.9024108901E+02	-8.4445967453E+02	9.2681927380E+02	3.2500000000E+02	0.000E+00	0.0
	25	2	5	5	0	0	-1.0384428985E+02	-1.8293236485E+01	-1.8195747884E+02	2.4474672725E+02	1.2519647503E+02	0.000E+00	0.0
	-5	1	9	9	0	501	2.5525301937E+01	1.3637518294E+01	-4.4589240860E+01	5.3321625488E+01	4.1800000000E+00	0.000E+00	0.0
	5	1	9	9	501	0	-1.2936959178E+02	-3.1930754779E+01	-1.3736823799E+02	1.9142510177E+02	4.1800000000E+00	0.000E+00	0.0
</event>
<event>
    11  -1  1.0000000E+00  1.0000000E+00  -1.0000000E+00  -1.0000000E+00
	2212	-1	0	0	0	0	0.0000000000E+00	0.0000000000E+00	6.5000000000E+03	6.5000000000E+03	9.3827000000E-01	0.000E+00	0.0
	2212	-1	0	0	0	0	0.0000000000E+00	0.0000000000E+00	-6.5000000000E+03	6.5000000000E+03	9.3827000000E-01	0.000E+00	0.0
	2212	1	0	0	0	0	0.0000000000E+00	0.0000000000E+00	4.9645842293E+03	4.9645842293E+03	9.3827000000E-01	0.000E+00	0.0
	2212	1	0	0	0	0	0.0000000000E+00	0.0000000000E+00	-6.3188741186E+03	6.3188741186E+03	9.3827000000E-01	0.000E+00	0.0
	51	2	1	2	0	0	-1.0190969958E+02	5.4591314752E+01	1.2108034547E+03	1.6099145765E+03	1.0547104528E+03	0.000E+00	0.0
	1000022	2	5	5	0	0	1.0190969958E+02	-5.4591314752E+01	1.2600100743E+03	1.5218036551E+03	8.4551474186E+02	0.000E+00	0.0
	14	1	6	6	0	0	1.7340014960E+01	-2.0444171788E+02	2.8130822647E+02	4.7629445767E+02	3.2500000000E+02	0.000E+00	0.0
	-14	1	6	6	0	0	8.4569684622E+01	1.4985040312E+02	9.7870184787E+02	1.0455091974E+03	3.2500000000E+02	0.000E+00	0.0
	25	2	5	5	0	0	-1.0190969958E+02	5.4591314752E+01	9.4279814998E+01	1.9473799707E+02	1.2517350148E+02	0.000E+00	0.0
	-5	1	9	9	0	501	-8.1345456610E+01	7.7490249144E+01	1.9951747608E+01	1.1418128856E+02	4.1800000000E+00	0.000E+00	0.0
	5	1	9	9	501	0	-2.0564242972E+01	-2.2898934392E+01	7.4328067390E+01	8.0556708518E+01	4.1800000000E+00	0.000E+00	0.0
</event>
<event>
    11  -1  1.0000000E+00  1.0000000E+00  -1.0000000E+00  -1.0000000E+00
	2212	-1	0	0	0	0	0.0000000000E+00	0.0000000000E+00	6.5000000000E+03	6.5000000000E+03	9.3827000000E-01	0.000E+00	0.0
	2212	-1	0	0	0	0	0.0000000000E+00	0.0000000000E+00	-6.5000000000E+03	6.5000000000E+03	9.3827000000E-01	0.000E+00	0.0
	2212	1	0	0	0	0	0.0000000000E+00	0.0000000000E+00	6.1644460939E+03	6.1644460939E+03	9.3827000000E-01	0.000E+00	0.0
	2212	1	0	0	0	0	0.0000000000E+00	0.0000000000E+00	-5.7003420376E+03	5.7003420376E+03	9.3827000000E-01	0.000E+00	0.0
	51	2	1	2	0	0	-1.0916280430E+02	-2.4877467470E+00	-3.9829987322E+02	1.1152931933E+03	1.0360084031E+03	0.000E+00	0.0
	1000022	2	5	5	0	0	1.0916280430E+02	2.4877467470E+00	-4.5371857905E+02	9.6876844323E+02	8.4895762020E+02	0.000E+00	0.0
	14	1	6	6	0	0	2.2456925633E+02	2.1737455605E+01	3.6065488540E+00	3.9565373126E+02	3.2500000000E+02	0.000E+00	0.0
	-14	1	6	6	0	0	-1.1540645204E+02	-1.9249708858E+01	-4.5732512790E+02	5.7311471197E+02	3.2500000000E+02	0.000E+00	0.0
	25	2	5	5	0	0	-1.0916280430E+02	-2.4877467470E+00	-1.0385477307E+01	1.6644342529E+02	1.2519124953E+02	0.000E+00	0.0
	-5	1	9	9	0	501	-1.0586560224E+02	-6.0243134212E+00	4.1662392203E+01	1.1400458505E+02	4.1800000000E+00	0.000E+00	0.0
	5	1	9	9	501	0	-3.2972020598E+00	3.5365666742E+00	-5.2047869511E+01	5.2438840241E+01	4.1800000000E+00	0.000E+00	0.0
</event>
<event>
    11  -1  1.0000000E+00  1.0000000E+00  -1.0000000E+00  -1.0000000E+00
	2212	-1	0	0	0	0	0.0000000000E+00	0.0000000000E+00	6.5000000000E+03	6.5000000000E+03	9.3827000000E-01	0.000E+00	0.0
	2212	-1	0	0	0	0	0.0000000000E+00	0.0000000000E+00	-6.5000000000E+03	6.5000000000E+03	9.3827000000E-01	0.000E+00	0.0
	2212	1	0	0	0	0	0.0000000000E+00	0.0000000000E+00	5.9265392599E+03	5.9265392599E+03	9.3827000000E-01	0.000E+00	0.0
	2212	1	0	0	0	0	0.0000000000E+00	0.0000000000E+00	-5.9893086729E+03	5.9893086729E+03	9.3827000000E-01	0.000E+00	0.0
	51	2	1	2	0	0	8.1501847787E+01	1.4156620770E+02	1.0828140831E+02	1.0999336850E+03	1.0823334540E+03	0.000E+00	0.0
	1000022	2	5	5	0	0	-8.1501847787E+01	-1.4156620770E+02	5.8079738102E+00	8.7061588003E+02	8.5513433778E+02	0.000E+00	0.0
	14	1	6	6	0	0	-2.9714567962E+02	3.5827348224E+01	-8.4128037773E+00	4.4189922954E+02	3.2500000000E+02	0.000E+00	0.0
	-14	1	6	6	0	0	2.1564383184E+02	-1.7739355593E+02	1.4220777587E+01	4.2871665049E+02	3.2500000000E+02	0.000E+00	0.0
	25	2	5	5	0	0	8.1501847787E+01	1.4156620770E+02	5.6961439184E+01	2.1353618718E+02	1.2517809442E+02	0.000E+00	0.0
	-5	1	9	9	0	501	5.9098332935E+01	9.5388839335E+01	-2.6585256993E+01	1.1539450557E+02	4.1800000000E+00	0.000E+00	0.0
	5	1	9	9	501	0	2.2403514853E+01	4.6177368367E+01	8.3546696177E+01	9.8141681610E+01	4.1800000000E+00	0.000E+00	0.0
</event>
<event>
    11  -1  1.0000000E+00  1.0000000E+00  -1.0000000E+00  -1.0000000E+00
	2212	-1	0	0	0	0	0.0000000000E+00	0.0000000000E+00	6.5000000000E+03	6.5000000000E+03	9.3827000000E-01	0.000E+00	0.0
	2212	-1	0	0	0	0	0.0000000000E+00	0.0000000000E+00	-6.5000000000E+03	6.5000000000E+03	9.3827000000E-01	0.000E+00	0.0
	2212	1	0	0	0	0	0.0000000000E+00	0.0000000000E+00	6.2070149889E+03	6.2070149889E+03	9.3827000000E-01	0.000E+00	0.0
	2212	1	0	0	0	0	0.0000000000E+00	0.0000000000E+00	-5.5058941355E+03	5.5058941355E+03	9.3827000000E-01	0.000E+00	0.0
	51	2	1	2	0	0	-1.4270571922E+02	9.7647174264E+01	-8.0214212477E+02	1.3558629548E+03	1.0793666990E+03	0.000E+00	0.0
	1000022	2	5	5	0	0	1.4270571922E+02	-9.7647174264E+01	-4.6359992673E+02	9.6773794421E+02	8.3168019314E+02	0.000E+00	0.0
	14	1	6	6	0	0	-1.8585626700E+01	1.4785052629E+02	-4.2428878730E+01	3.6004223835E+02	3.2500000000E+02	0.000E+00	0.0
	-14	1	6	6	0	0	1.6129134592E+02	-2.4549770056E+02	-4.2117104800E+02	6.0769570586E+02	3.2500000000E+02	0.000E+00	0.0
	25	2	5	5	0	0	-1.4270571922E+02	9.7647174264E+01	-2.3752092670E+02	3.1935293137E+02	1.2518071423E+02	0.000E+00	0.0
	-5	1	9	9	0	501	-1.6100981253E+02	9.3940994647E+01	-2.3509781115E+02	3.0006253251E+02	4.1800000000E+00	0.000E+00	0.0
	5	1	9	9	501	0	1.8304093310E+01	3.7061796166E+00	-2.4231155430E+00	1.9290398860E+01	4.1800000000E+00	0.000E+00	0.0
</event>
<event>
    11  -1  1.0000000E+00  1.0000000E+00  -1.0000000E+00  -1.0000000E+00
	2212	-1	0	0	0	0	0.0000000000E+00	0.0000000000E+00	6.5000000000E+03	6.5000000000E+03	9.3827000000E-01	0.000E+00	0.0
	2212	-1	0	0	0	0	0.0000000000E+00	0.0000000000E+00	-6.5000000000E+03	6.5000000000E+03	9.3827000000E-01	0.000E+00	0.0
	2212	1	0	0	0	0	0.0000000000E+00	0.0000000000E+00	6.3133627859E+03	6.3133627859E+03	9.3827000000E-01	0.000E+00	0.0
	2212	1	0	0	0	0	0.0000000000E+00	0.0000000000E+00	-5.0351550070E+03	5.0351550070E+03	9.3827000000E-01	0.000E+00	0.0
	51	2	1	2	0	0	7.2060444368E+00	-8.1506471195E+01	-1.4497460307E+03	1.7894236894E+03	1.0457429677E+03	0.000E+00	0.0
	1000022	2	5	5	0	0	-7.2060444368E+00	8.1506471195E+01	-8.9503212186E+02	1.2400989458E+03	8.5443997121E+02	0.000E+00	0.0
	14	1	6	6	0	0	4.0107439793E+01	3.1327619865E+02	-5.2746292053E+02	6.9540830877E+02	3.2500000000E+02	0.000E+00	0.0
	-14	1	6	6	0	0	-4.7313484230E+01	-2.3176972746E+02	-3.6756920133E+02	5.4469063708E+02	3.2500000000E+02	0.000E+00	0.0
	25	2	5	5	0	0	7.2060444368E+00	-8.1506471195E+01	-3.8317565707E+02	4.1138326131E+02	1.2536894191E+02	0.000E+00	0.0
	-5	1	9	9	0	501	-4.2451354827E+01	4.2403142548E+00	-6.3012152474E+01	7.6210901786E+01	4.1800000000E+00	0.000E+00	0.0
	5	1	9	9	501	0	4.9657399264E+01	-8.5746785450E+01	-3.2016350459E+02	3.3517235953E+02	4.1800000000E+00	0.000E+00	0.0
</event>
<event>
    11  -1  1.0000000E+00  1.0000000E+00  -1.0000000E+00  -1.0000000E+00
	2212	-1	0	0	0	0	0.0000000000E+00	0.0000000000E+00	6.5000000000E+03	6.5000000000E+03	9.3827000000E-01	0.000E+00	0.0
	2212	-1	0	0	0	0	0.0000000000E+00	0.0000000000E+00	-6.5000000000E+03	6.5000000000E+03	9.3827000000E-01	0.000E+00	0.0
	2212	1	0	0	0	0	0.0000000000E+00	0.0000000000E+00	5.9506102331E+03	5.9506102331E+03	9.3827000000E-01	0.000E+00	0.0
	2212	1	0	0	0	0	0.0000000000E+00	0.0000000000E+00	-6.0004539021E+03	6.0004539021E+03	9.3827000000E-01	0.000E+00	0.0
	51	2	1	2	0	0	-6.7191787768E+01	-1.1786756472E+02	3.1223190307E+01	1.0569600011E+03	1.0477509519E+03	0.000E+00	0.0
	1000022	2	5	5	0	0	6.7191787768E+01	1.1786756472E+02	6.0060086730E+01	8.6405233974E+02	8.5121779389E+02	0.000E+00	0.0
	14	1	6	6	0	0	-5.4018255845E+01	-2.2165866108E+01	-2.1998482222E+02	3.9677149544E+02	3.2500000000E+02	0.000E+00	0.0
	-14	1	6	6	0	0	1.2121004361E+02	1.4003343083E+02	2.8004490895E+02	4.6728084430E+02	3.2500000000E+02	0.000E+00	0.0
	25	2	5	5	0	0	-6.7191787768E+01	-1.1786756472E+02	-1.0216417792E+01	1.8488352509E+02	1.2518004434E+02	0.000E+00	0.0
	-5	1	9	9	0	501	-2.2170023017E+01	3.2181928348E+00	4.0148236765E+01	4.6165138373E+01	4.1800000000E+00	0.000E+00	0.0
	5	1	9	9	501	0	-4.5021764751E+01	-1.2108575756E+02	-5.0364654557E+01	1.3871838671E+02	4.1800000000E+00	0.000E+00	0.0
</event>
<event>
    11  -1  1.0000000E+00  1.0000000E+00  -1.0000000E+00  -1.0000000E+00
	2212	-1	0	0	0	0	0.0000000000E+00	0.0000000000E+00	6.5000000000E+03	6.5000000000E+03	9.3827000000E-01	0.000E+00	0.0
	2212	-1	0	0	0	0	0.0000000000E+00	0.0000000000E+00	-6.5000000000E+03	6.5000000000E+03	9.3827000000E-01	0.000E+00	0.0
	2212	1	0	0	0	0	0.0000000000E+00	0.0000000000E+00	6.3221970643E+03	6.3221970643E+03	9.3827000000E-01	0.000E+00	0.0
	2212	1	0	0	0	0	0.0000000000E+00	0.0000000000E+00	-4.9472686494E+03	4.9472686494E+03	9.3827000000E-01	0.000E+00	0.0
	51	2	1	2	0	0	-1.3647231450E+02	-2.9238425982E+01	-1.3555168768E+03	1.7208214177E+03	1.0508666757E+03	0.000E+00	0.0
	1000022	2	5	5	0	0	1.3647231450E+02	2.9238425982E+01	-1.1597894932E+03	1.4450335220E+03	8.5060603870E+02	0.000E+00	0.0
	14	1	6	6	0	0	1.4554983743E+02	-1.8259187406E+02	-2.9498096695E+02	4.9715522577E+02	3.2500000000E+02	0.000E+00	0.0
	-14	1	6	6	0	0	-9.0775229355E+00	2.1183030004E+02	-8.6480852627E+02	9.4787829627E+02	3.2500000000E+02	0.000E+00	0.0
	25	2	5	5	0	0	-1.3647231450E+02	-2.9238425982E+01	-2.1513892160E+02	2.8550076426E+02	1.2548447164E+02	0.000E+00	0.0
	-5	1	9	9	0	501	-7.9765107581E+01	-4.6235617601E+01	-4.0012313704E+01	1.0059156212E+02	4.1800000000E+00	0.000E+00	0.0
	5	1	9	9	501	0	-5.6707206917E+01	1.6997191619E+01	-1.7512660790E+02	1.8490920213E+02	4.1800000000E+00	0.000E+00	0.0
</event>
<event>
    11  -1  1.0000000E+00  1.0000000E+00  -1.0000000E+00  -1.0000000E+00
	2212	-1	0	0	0	0	0.0000000000E+00	0.0000000000E+00	6.5000000000E+03	6.5000000000E+03	9.3827000000E-01	0.000E+00	0.0
	2212	-1	0	0	0	0	0.0000000000E+00	0.0000000000E+00	-6.5000000000E+03	6.5000000000E+03	9.3827000000E-01	0.000E+00	0.0
	2212	1	0	0	0	0	0.0000000000E+00	0.0000000000E+00	5.7884336147E+03	5.7884336147E+03	9.3827000000E-01	0.000E+00	0.0
	2212	1	0	0	0	0	0.0000000000E+00	0.0000000000E+00	-6.1196572814E+03	6.1196572814E+03	9.3827000000E-01	0.000E+00	0.0
	51	2	1	2	0	0	4.8096703415E+01	1.2593860608E+02	2.8118708591E+02	1.0861843197E+03	1.0404596935E+03	0.000E+00	0.0
	1000022	2	5	5	0	0	-4.8096703415E+01	-1.2593860608E+02	3.2366487289E+02	9.0776546942E+02	8.3732035216E+02	0.000E+00	0.0
	14	1	6	6	0	0	1.7734879310E+02	-1.0542554683E+02	-1.7016753946E+01	3.8533324571E+02	3.2500000000E+02	0.000E+00	0.0
	-14	1	6	6	0	0	-2.2544549651E+02	-2.0513059249E+01	3.4068162684E+02	5.2243222370E+02	3.2500000000E+02	0.000E+00	0.0
	25	2	5	5	0	0	4.8096703415E+01	1.2593860608E+02	7.5587937751E+00	1.8414363445E+02	1.2521149055E+02	0.000E+00	0.0
	-5	1	9	9	0	501	6.0420429201E+01	1.1289228623E+02	-3.9125994459E+01	1.3395376963E+02	4.1800000000E+00	0.000E+00	0.0
	5	1	9	9	501	0	-1.2323725786E+01	1.3046319850E+01	4.6684788234E+01	5.0189864827E+01	4.1800000000E+00	0.000E+00	0.0
</event>
<event>
    11  -1  1.0000000E+00  1.0000000E+00  -1.0000000E+00  -1.0000000E+00
	2212	-1	0	0	0	0	0.0000000000E+00	0.0000000000E+00	6.5000000000E+03	6.5000000000E+03	9.3827000000E-01	0.000E+00	0.0
	2212	-1	0	0	0	0	0.0000000000E+00	0.0000000000E+00	-6.5000000000E+03	6.5000000000E+03	9.3827000000E-01	0.000E+00	0.0
	2212	1	0	0	0	0	0.0000000000E+00	0.0000000000E+00	6.1676147013E+03	6.1676147013E+03	9.3827000000E-01	0.000E+00	0.0
	2212	1	0	0	0	0	0.0000000000E+00	0.0000000000E+00	-5.6781369477E+03	5.6781369477E+03	9.3827000000E-01	0.000E+00	0.0
	51	2	1	2	0	0	-1.2283051710E+02	-4.5683406539E+01	-4.6223304503E+02	1.1504496868E+03	1.0453232918E+03	0.000E+00	0.0
	1000022	2	5	5	0	0	1.2283051710E+02	4.5683406539E+01	-4.3484282666E+02	9.6496482976E+02	8.5140738147E+02	0.000E+00	0.0
	14	1	6	6	0	0	-1.2878221424E+02	-1.1514731015E+02	-3.6455044314E+02	5.1804033369E+02	3.2500000000E+02	0.000E+00	0.0
	-14	1	6	6	0	0	2.5161273135E+02	1.6083071669E+02	-7.0292383527E+01	4.4692449607E+02	3.2500000000E+02	0.000E+00	0.0
	25	2	5	5	0	0	-1.2283051710E+02	-4.5683406539E+01	-5.4634926975E+01	1.8928352118E+02	1.2517574278E+02	0.000E+00	0.0
	-5	1	9	9	0	501	-3.8274692001E+01	-7.2633289232E+00	4.0440065617E+01	5.6307897332E+01	4.1800000000E+00	0.000E+00	0.0
	5	1	9	9	501	0	-8.4555825102E+01	-3.8420077616E+01	-9.5074992592E+01	1.3297562385E+02	4.1800000000E+00	0.000E+00	0.0
</event>
<event>
    11  -1  1.0000000E+00  1.0000000E+00  -1.0000000E+00  -1.0000000E+00
	2212	-1	0	0	0	0	0.0000000000E+00	0.0000000000E+00	6.5000000000E+03	6.5000000000E+03	9.3827000000E-01	0.000E+00	0.0
	2212	-1	0	0	0	0	0.0000000000E+00	0.0000000000E+00	-6.5000000000E+03	6.5000000000E+03	9.3827000000E-01	0.000E+00	0.0
	2212	1	0	0	0	0	0.0000000000E+00	0.0000000000E+00	4.9594985335E+03	4.9594985335E+03	9.3827000000E-01	0.000E+00	0.0
	2212	1	0	0	0	0	0.0000000000E+00	0.0000000000E+00	-6.3285539834E+03	6.3285539834E+03	9.3827000000E-01	0.000E+00	0.0
	51	2	1	2	0	0	-5.4682092352E+01	-3.9829998790E+01	1.4940840957E+03	1.8147493504E+03	1.0278381973E+03	0.000E+00	0.0
	1000022	2	5	5	0	0	5.4682092352E+01	3.9829998790E+01	1.0382618708E+03	1.3518450368E+03	8.6308790466E+02	0.000E+00	0.0
	14	1	6	6	0	0	-2.1110132731E+02	1.3986834820E+02	6.5950392425E+02	7.7762288503E+02	3.2500000000E+02	0.000E+00	0.0
	-14	1	6	6	0	0	2.6578341966E+02	-1.0003834941E+02	3.7875794653E+02	5.7422215177E+02	3.2500000000E+02	0.000E+00	0.0
	25	2	5	5	0	0	-5.4682092352E+01	-3.9829998790E+01	3.3079357919E+02	3.6010244630E+02	1.2519113295E+02	0.000E+00	0.0
	-5	1	9	9	0	501	3.1030570678E+00	-3.2403308830E+01	1.0398797446E+01	3.4426890284E+01	4.1800000000E+00	0.000E+00	0.0
	5	1	9	9	501	0	-5.7785149420E+01	-7.4266899595E+00	3.2039478174E+02	3.2567555601E+02	4.1800000000E+00	0.000E+00	0.0
</event>
<event>
    11  -1  1.0000000E+00  1.0000000E+00  -1.0000000E+00  -1.0000000E+00
	2212	-1	0	0	0	0	0.0000000000E+00	0.0000000000E+00	6.5000000000E+03	6.5000000000E+03	9.3827000000E-01	0.000E+00	0.0
	2212	-1	0	0	0	0	0.0000000000E+00	0.0000000000E+00	-6.5000000000E+03	6.5000000000E+03	9.3827000000E-01	0.000E+00	0.0
	2212	1	0	0	0	0	0.0000000000E+00	0.0000000000E+00	6.3166968420E+03	6.3166968420E+03	9.3827000000E-01	0.000E+00	0.0
	2212	1	0	0	0	0	0.0000000000E+00	0.0000000000E+00	-4.9961750701E+03	4.9961750701E+03	9.3827000000E-01	0.000E+00	0.0
	51	2	1	2	0	0	1.2145613195E+02	-3.9383506379E+01	-1.4128189915E+03	1.7649316106E+03	1.0500587769E+03	0.000E+00	0.0
	1000022	2	5	5	0	0	-1.2145613195E+02	3.9383506379E+01	-1.0058192496E+03	1.3251745867E+03	8.5329518324E+02	0.000E+00	0.0
	14	1	6	6	0	0	-1.0796214479E+02	9.9769115814E+01	-1.1480124998E+02	3.7471859865E+02	3.2500000000E+02	0.000E+00	0.0
	-14	1	6	6	0	0	-1.3493987157E+01	-6.0385609435E+01	-8.9101799964E+02	9.5045598804E+02	3.2500000000E+02	0.000E+00	0.0
	25	2	5	5	0	0	1.2145613195E+02	-3.9383506379E+01	-3.1470252228E+02	3.6195350122E+02	1.2517989836E+02	0.000E+00	0.0
	-5	1	9	9	0	501	1.2676147163E+02	1.1470873728E+01	-2.1728466712E+02	2.5185343079E+02	4.1800000000E+00	0.000E+00	0.0
	5	1	9	9	501	0	-5.3053396834E+00	-5.0854380107E+01	-9.7417855154E+01	1.1010007043E+02	4.1800000000E+00	0.000E+00	0.0
</event>
<event>
    11  -1  1.0000000E+00  1.0000000E+00  -1.0000000E+00  -1.0000000E+00
	2212	-1	0	0	0	0	0.0000000000E+00	0.0000000000E+00	6.5000000000E+03	6.5000000000E+03	9.3827000000E-01	0.000E+00	0.0
	2212	-1	0	0	0	0	0.0000000000E+00	0.0000000000E+00	-6.5000000000E+03	6.5000000000E+03	9.3827000000E-01	0.000E+00	0.0
	2212	1	0	0	0	0	0.0000000000E+00	0.0000000000E+00	5.6340648519E+03	5.6340648519E+03	9.3827000000E-01	0.000E+00	0.0
	2212	1	0	0	0	0	0.0000000000E+00	0.0000000000E+00	-6.1955111014E+03	6.1955111014E+03	9.3827000000E-01	0.000E+00	0.0
	51	2	1	2	0	0	7.9181367881E+01	-6.8435346433E+01	5.0817079680E+02	1.1505916750E+03	1.0269715469E+03	0.000E+00	0.0
	1000022	2	5	5	0	0	-7.9181367881E+01	6.8435346433E+01	5.2500924174E+02	1.0032365194E+03	8.4846669008E+02	0.000E+00	0.0
	14	1	6	6	0	0	2.2823918139E+02	6.7835718089E+01	3.0107552961E+02	5.0295753608E+02	3.2500000000E+02	0.000E+00	0.0
	-14	1	6	6	0	0	-3.0742054927E+02	5.9962834369E-01	2.2393371213E+02	5.0027898327E+02	3.2500000000E+02	0.000E+00	0.0
	25	2	5	5	0	0	7.9181367881E+01	-6.8435346433E+01	3.6437007742E+01	1.6718752742E+02	1.2518357772E+02	0.000E+00	0.0
	-5	1	9	9	0	501	2.6219399538E+01	2.8970428667E+01	4.0140776055E+01	5.6173810193E+01	4.1800000000E+00	0.000E+00	0.0
	5	1	9	9	501	0	5.2961968343E+01	-9.7405775101E+01	-3.7037683127E+00	1.1101371723E+02	4.1800000000E+00	0.000E+00	0.0
</event>
<event>
    11  -1  1.0000000E+00  1.0000000E+00  -1.0000000E+00  -1.0000000E+00
	2212	-1	0	0	0	0	0.0000000000E+00	0.0000000000E+00	6.5000000000E+03	6.5000000000E+03	9.3827000000E-01	0.000E+00	0.0
	2212	-1	0	0	0	0	0.0000000000E+00	0.0000000000E+00	-6.5000000000E+03	6.5000000000E+03	9.3827000000E-01	0.000E+00	0.0
	2212	1	0	0	0	0	0.0000000000E+00	0.0000000000E+00	6.3325099311E+03	6.3325099311E+03	9.3827000000E-01	0.000E+00	0.0
	2212	1	0	0	0	0	0.0000000000E+00	0.0000000000E+00	-4.8748012147E+03	4.8748012147E+03	9.3827000000E-01	0.000E+00	0.0
	51	2	1	2	0	0	7.1008425680E+01	9.5625018288E+01	-1.3243659720E+03	1.6902515181E+03	1.0434647220E+03	0.000E+00	0.0
	1000022	2	5	5	0	0	-7.1008425680E+01	-9.5625018288E+01	-1.3358153192E+03	1.5812370153E+03	8.3768824219E+02	0.000E+00	0.0
	14	1	6	6	0	0	2.7016472689E-01	-4.9454932974E+01	-1.7423271258E+02	3.7205900274E+02	3.2500000000E+02	0.000E+00	0.0
	-14	1	6	6	0	0	-7.1278590407E+01	-4.6170085315E+01	-1.1615826066E+03	1.2091780126E+03	3.2500000000E+02	0.000E+00	0.0
	25	2	5	5	0	0	7.1008425680E+01	9.5625018288E+01	-1.2189339724E+02	2.1145183887E+02	1.2517004127E+02	0.000E+00	0.0
	-5	1	9	9	0	501	4.8222627493E+01	-1.1599286007E+01	-3.2706659145E+00	4.9881207821E+01	4.1800000000E+00	0.000E+00	0.0
	5	1	9	9	501	0	2.2785798188E+01	1.0722430430E+02	-1.1862273132E+02	1.6157063105E+02	4.1800000000E+00	0.000E+00	0.0
</event>
<event>
    11  -1  1.0000000E+00  1.0000000E+00  -1.0000000E+00  -1.0000000E+00
	2212	-1	0	0	0	0	0.0000000000E+00	0.0000000000E+00	6.5000000000E+03	6.5000000000E+03	9.3827000000E-01	0.000E+00	0.0
	2212	-1	0	0	0	0	0.0000000000E+00	0.0000000000E+00	-6.5000000000E+03	6.5000000000E+03	9.3827000000E-01	0.000E+00	0.0
	2212	1	0	0	0	0	0.0000000000E+00	0.0000000000E+00	6.0103728273E+03	6.0103728273E+03	9.3827000000E-01	0.000E+00	0.0
	2212	1	0	0	0	0	0.0000000000E+00	0.0000000000E+00	-5.8801263668E+03	5.8801263668E+03	9.3827000000E-01	0.000E+00	0.0
	51	2	1	2	0	0	1.2506849250E+02	1.3494917117E+02	-1.3240263078E+02	1.1249052231E+03	1.1018293415E+03	0.000E+00	0.0
	1000022	2	5	5	0	0	-1.2506849250E+02	-1.3494917117E+02	-1.0358833787E+02	8.8537719848E+02	8.5983070033E+02	0.000E+00	0.0
	14	1	6	6	0	0	-1.8264759667E+02	6.4911956534E+01	-2.7030854964E+02	4.6504345891E+02	3.2500000000E+02	0.000E+00	0.0
	-14	1	6	6	0	0	5.7579104166E+01	-1.9986112771E+02	1.6672021178E+02	4.2033373957E+02	3.2500000000E+02	0.000E+00	0.0
	25	2	5	5	0	0	1.2506849250E+02	1.3494917117E+02	-2.6658122571E+01	2.2412360738E+02	1.2516920256E+02	0.000E+00	0.0
	-5	1	9	9	0	501	3.7093780037E+01	-1.5850515594E+01	-2.8347859282E+01	4.9479903879E+01	4.1800000000E+00	0.000E+00	0.0
	5	1	9	9	501	0	8.7974712463E+01	1.5079968677E+02	1.6897367105E+00	1.7464370350E+02	4.1800000000E+00	0.000E+00	0.0
</event>
<event>
    11  -1  1.0000000E+00  1.0000000E+00  -1.0000000E+00  -1.0000000E+00
	2212	-1	0	0	0	0	0.0000000000E+00	0.0000000000E+00	6.5000000000E+03	6.5000000000E+03	9.3827000000E-01	0.000E+00	0.0
	2212	-1	0	0	0	0	0.0000000000E+00	0.0000000000E+00	-6.5000000000E+03	6.5000000000E+03	9.3827000000E-01	0.000E+00	0.0
	2212	1	0	0	0	0	0.0000000000E+00	0.0000000000E+00	6.0468780494E+03	6.0468780494E+03	9.3827000000E-01	0.000E+00	0.0
	2212	1	0	0	0	0	0.0000000000E+00	0.0000000000E+00	-5.8938346005E+03	5.8938346005E+03	9.3827000000E-01	0.000E+00	0.0
	51	2	1	2	0	0	-1.1408498295E+02	-7.5845219598E+01	-1.2897082763E+02	1.0649266396E+03	1.0481733601E+03	0.000E+00	0.0
	1000022	2	5	5	0	0	1.1408498295E+02	7.5845219598E+01	-1.5118445395E+02	8.7416286674E+02	8.5002123374E+02	0.000E+00	0.0
	14	1	6	6	0	0	-1.4735843584E+02	1.6952728443E+02	-2.0189693444E+02	4.4366809770E+02	3.2500000000E+02	0.000E+00	0.0
	-14	1	6	6	0	0	2.6144341879E+02	-9.3682064833E+01	5.0712480484E+01	4.3049476905E+02	3.2500000000E+02	0.000E+00	0.0
	25	2	5	5	0	0	-1.1408498295E+02	-7.5845219598E+01	-1.8589949730E+00	1.8512448332E+02	1.2449794293E+02	0.000E+00	0.0
	-5	1	9	9	0	501	-9.6352711610E+01	-5.2784520400E+01	-5.6103262171E+01	1.2343054344E+02	4.1800000000E+00	0.000E+00	0.0
	5	1	9	9	501	0	-1.7732271336E+01	-2.3060699198E+01	5.4244267198E+01	6.1693939881E+01	4.1800000000E+00	0.000E+00	0.0
</event>
<event>
    11  -1  1.0000000E+00  1.0000000E+00  -1.0000000E+00  -1.0000000E+00
	2212	-1	0	0	0	0	0.0000000000E+00	0.0000000000E+00	6.5000000000E+03	6.5000000000E+03	9.3827000000E-01	0.000E+00	0.0
	2212	-1	0	0	0	0	0.0000000000E+00	0.0000000000E+00	-6.5000000000E+03	6.5000000000E+03	9.3827000000E-01	0.000E+00	0.0
	2212	1	0	0	0	0	0.0000000000E+00	0.0000000000E+00	5.4159872597E+03	5.4159872597E+03	9.3827000000E-01	0.000E+00	0.0
	2212	1	0	0	0	0	0.0000000000E+00	0.0000000000E+00	-6.2473388379E+03	6.2473388379E+03	9.3827000000E-01	0.000E+00	0.0
	51	2	1	2	0	0	-1.0804013457E+02	4.0474117607E-01	9.2821386283E+02	1.4031412916E+03	1.0466860440E+03	0.000E+00	0.0
	1000022	2	5	5	0	0	1.0804013457E+02	-4.0474117607E-01	5.9789896593E+02	1.0505921753E+03	8.5708104099E+02	0.000E+00	0.0
	14	1	6	6	0	0	1.2643834271E+02	-1.1766832483E+01	6.3319144247E+02	7.2296716085E+02	3.2500000000E+02	0.000E+00	0.0
	-14	1	6	6	0	0	-1.8398208148E+01	1.1362091307E+01	-3.5292476537E+01	3.2762501443E+02	3.2500000000E+02	0.000E+00	0.0
	25	2	5	5	0	0	-1.0804013457E+02	4.0474117607E-01	2.3345261230E+02	2.8608172710E+02	1.2517906334E+02	0.000E+00	0.0
	-5	1	9	9	0	501	-1.0600360281E+02	-4.7298028702E+01	1.4836482586E+02	1.8842362187E+02	4.1800000000E+00	0.000E+00	0.0
	5	1	9	9	501	0	-2.0365317567E+00	4.7702769878E+01	8.5087786444E+01	9.7658105232E+01	4.1800000000E+00	0.000E+00	0.0
</event>
<event>
    11  -1  1.0000000E+00  1.0000000E+00  -1.0000000E+00  -1.0000000E+00
	2212	-1	0	0	0	0	0.0000000000E+00	0.0000000000E+00	6.5000000000E+03	6.5000000000E+03	9.3827000000E-01	0.000E+00	0.0
	2212	-1	0	0	0	0	0.0000000000E+00	0.0000000000E+00	-6.5000000000E+03	6.5000000000E+03	9.3827000000E-01	0.000E+00	0.0
	2212	1	0	0	0	0	0.0000000000E+00	0.0000000000E+00	6.0576839026E+03	6.0576839026E+03	9.3827000000E-01	0.000E+00	0.0
	2212	1	0	0	0	0	0.0000000000E+00	0.0000000000E+00	-5.8740359124E+03	5.8740359124E+03	9.3827000000E-01	0.000E+00	0.0
	51	2	1	2	0	0	-6.7692602757E+01	9.6350619395E+01	-1.0788998551E+02	1.0644256426E+03	1.0523763439E+03	0.000E+00	0.0
	1000022	2	5	5	0	0	6.7692602757E+01	-9.6350619395E+01	-2.2822116068E+02	8.9073257596E+02	8.5290907685E+02	0.000E+00	0.0
	14	1	6	6	0	0	1.4699149405E+02	1.9719143704E+02	-1.7105820872E+02	4.4201456191E+02	3.2500000000E+02	0.000E+00	0.0
	-14	1	6	6	0	0	-7.9298891297E+01	-2.9354205644E+02	-5.7162951951E+01	4.4871801405E+02	3.2500000000E+02	0.000E+00	0.0
	25	2	5	5	0	0	-6.7692602757E+01	9.6350619395E+01	4.4573170449E+01	1.7754760898E+02	1.2518248921E+02	0.000E+00	0.0
	-5	1	9	9	0	501	-5.9722440579E+01	-3.3968186936E+00	4.8790118734E+01	7.7306250536E+01	4.1800000000E+00	0.000E+00	0.0
	5	1	9	9	501	0	-7.9701621785E+00	9.9747438088E+01	-4.2169482847E+00	1.0024135845E+02	4.1800000000E+00	0.000E+00	0.0
</event>
<event>
    11  -1  1.0000000E+00  1.0000000E+00  -1.0000000E+00  -1.0000000E+00
	2212	-1	0	0	0	0	0.0000000000E+00	0.0000000000E+00	6.5000000000E+03	6.5000000000E+03	9.3827000000E-01	0.000E+00	0.0
	2212	-1	0	0	0	0	0.0000000000E+00	0.0000000000E+00	-6.5000000000E+03	6.5000000000E+03	9.3827000000E-01	0.000E+00	0.0
	2212	1	0	0	0	0	0.0000000000E+00	0.0000000000E+00	6.1608991318E+03	6.1608991318E+03	9.3827000000E-01	0.000E+00	0.0
	2212	1	0	0	0	0	0.0000000000E+00	0.0000000000E+00	-5.6614644819E+03	5.6614644819E+03	9.3827000000E-01	0.000E+00	0.0
	51	2	1	2	0	0	-6.3497641963E+01	-1.7910877587E+01	-5.0255649971E+02	1.1808083139E+03	1.0664860471E+03	0.000E+00	0.0
	1000022	2	5	5	0	0	6.3497641963E+01	1.7910877587E+01	-4.3100251347E+02	1.0204667934E+03	9.2262482070E+02	0.000E+00	0.0
	14	1	6	6	0	0	1.0374740964E+02	3.2596023890E+02	-2.6522030123E+02	5.4127664880E+02	3.2500000000E+02	0.000E+00	0.0
	-14	1	6	6	0	0	-4.0249767676E+01	-3.0804936131E+02	-1.6578221223E+02	4.7919014461E+02	3.2500000000E+02	0.000E+00	0.0
	25	2	5	5	0	0	-6.3497641963E+01	-1.7910877587E+01	-6.8432136478E+01	1.5716959288E+02	1.2516618374E+02	0.000E+00	0.0
	-5	1	9	9	0	501	-5.9193338566E+01	-1.5629232900E+01	2.2984595448E+01	6.5527767241E+01	4.1800000000E+00	0.000E+00	0.0
	5	1	9	9	501	0	-4.3043033968E+00	-2.2816446876E+00	-9.1416731926E+01	9.1641825638E+01	4.1800000000E+00	0.000E+00	0.0
</event>
<event>
    11  -1  1.0000000E+00  1.0000000E+00  -1.0000000E+00  -1.0000000E+00
	2212	-1	0	0	0	0	0.0000000000E+00	0.0000000000E+00	6.5000000000E+03	6.5000000000E+03	9.3827000000E-01	0.000E+00	0.0
	2212	-1	0	0	0	0	0.0000000000E+00	0.0000000000E+00	-6.5000000000E+03	6.5000000000E+03	9.3827000000E-01	0.000E+00	0.0
	2212	1	0	0	0	0	0.0000000000E+00	0.0000000000E+00	6.2782642462E+03	6.2782642462E+03	9.3827000000E-01	0.000E+00	0.0
	2212	1	0	0	0	0	0.0000000000E+00	0.0000000000E+00	-5.2580383041E+03	5.2580383041E+03	9.3827000000E-01	0.000E+00	0.0
	51	2	1	2	0	0	-7.8474376627E+01	-9.9797570885E+01	-1.1564831342E+03	1.5668823421E+03	1.0495471649E+03	0.000E+00	0.0
	1000022	2	5	5	0	0	7.8474376627E+01	9.9797570885E+01	-7.0106349128E+02	1.0981020954E+03	8.3559584138E+02	0.000E+00	0.0
	14	1	6	6	0	0	-2.0367389509E+02	8.7361324233E+01	-4.5771565736E+02	6.0352603880E+02	3.2500000000E+02	0.000E+00	0.0
	-14	1	6	6	0	0	2.8214827172E+02	1.2436246652E+01	-2.4334783391E+02	4.9457605657E+02	3.2500000000E+02	0.000E+00	0.0
	25	2	5	5	0	0	-7.8474376627E+01	-9.9797570885E+01	-3.1916245086E+02	3.6559535436E+02	1.2520986443E+02	0.000E+00	0.0
	-5	1	9	9	0	501	-7.9937494571E+01	-1.2414731755E+02	-2.3240047163E+02	2.7537249519E+02	4.1800000000E+00	0.000E+00	0.0
	5	1	9	9	501	0	1.4631179441E+00	2.4349746670E+01	-8.6761979231E+01	9.0222859171E+01	4.1800000000E+00	0.000E+00	0.0
</event>
<event>
    11  -1  1.0000000E+00  1.0000000E+00  -1.0000000E+00  -1.0000000E+00
	2212	-1	0	0	0	0	0.0000000000E+00	0.0000000000E+00	6.5000000000E+03	6.5000000000E+03	9.3827000000E-01	0.000E+00	0.0
	2212	-1	0	0	0	0	0.0000000000E+00	0.0000000000E+00	-6.5000000000E+03	6.5000000000E+03	9.3827000000E-01	0.000E+00	0.0
	2212	1	0	0	0	0	0.0000000000E+00	0.0000000000E+00	6.1608151264E+03	6.1608151264E+03	9.3827000000E-01	0.000E+00	0.0
	2212	1	0	0	0	0	0.0000000000E+00	0.0000000000E+00	-5.6935129828E+03	5.6935129828E+03	9.3827000000E-01	0.000E+00	0.0
	51	2	1	2	0	0	-7.9874836552E+01	5.2493379650E+01	-5.7455600397E+02	1.1972647720E+03	1.0460367049E+03	0.000E+00	0.0
	1000022	2	5	5	0	0	7.9874836552E+01	-5.2493379650E+01	-2.8185304825E+02	9.0236988984E+02	8.5187718179E+02	0.000E+00	0.0
	14	1	6	6	0	0	-3.0419337699E+01	-2.5467474513E+02	-2.8741452337E+02	5.0400066484E+02	3.2500000000E+02	0.000E+00	0.0
	-14	1	6	6	0	0	1.1029417425E+02	2.0218136548E+02	5.5614751215E+00	3.9836922500E+02	3.2500000000E+02	0.000E+00	0.0
	25	2	5	5	0	0	-7.9874836552E+01	5.2493379650E+01	-1.8544909532E+02	2.4330200100E+02	1.2517568578E+02	0.000E+00	0.0
	-5	1	9	9	0	501	-8.0387058128E+01	-2.0881724744E+01	-8.5871293954E+01	1.1953860075E+02	4.1800000000E+00	0.000E+00	0.0
	5	1	9	9	501	0	5.1222157680E-01	7.3375104394E+01	-9.9577801370E+01	1.2376340025E+02	4.1800000000E+00	0.000E+00	0.0
</event>
<event>
    11  -1  1.0000000E+00  1.0000000E+00  -1.0000000E+00  -1.0000000E+00
	2212	-1	0	0	0	0	0.0000000000E+00	0.0000000000E+00	6.5000000000E+03	6.5000000000E+03	9.3827000000E-01	0.000E+00	0.0
	2212	-1	0	0	0	0	0.0000000000E+00	0.0000000000E+00	-6.5000000000E+03	6.5000000000E+03	9.3827000000E-01	0.000E+00	0.0
	2212	1	0	0	0	0	0.0000000000E+00	0.0000000000E+00	6.3343473745E+03	6.3343473745E+03	9.3827000000E-01	0.000E+00	0.0
	2212	1	0	0	0	0	0.0000000000E+00	0.0000000000E+00	-4.8556185437E+03	4.8556185437E+03	9.3827000000E-01	0.000E+00	0.0
	51	2	1	2	0	0	6.9532883181E+01	-3.3431589306E+00	-1.2924160095E+03	1.6627596226E+03	1.0438316064E+03	0.000E+00	0.0
	1000022	2	5	5	0	0	-6.9532883181E+01	3.3431589306E+00	-1.4174457705E+03	1.6542394625E+03	8.5000569906E+02	0.000E+00	0.0
	14	1	6	6	0	0	2.8971942179E+01	6.4570681737E+01	-1.9839797942E+02	3.8729253106E+02	3.2500000000E+02	0.000E+00	0.0
	-14	1	6	6	0	0	-9.8504825360E+01	-6.1227522807E+01	-1.2190477911E+03	1.2669469314E+03	3.2500000000E+02	0.000E+00	0.0
	25	2	5	5	0	0	6.9532883181E+01	-3.3431589306E+00	-6.1283060322E+01	1.5579461937E+02	1.2518127411E+02	0.000E+00	0.0
	-5	1	9	9	0	501	8.6931850257E+01	-4.4889131291E+01	-3.9597485823E+01	1.0562960750E+02	4.1800000000E+00	0.000E+00	0.0
	5	1	9	9	501	0	-1.7398967076E+01	4.1545972361E+01	-2.1685574499E+01	5.0165011871E+01	4.1800000000E+00	0.000E+00	0.0
</event>
<event>
    11  -1  1.0000000E+00  1.0000000E+00  -1.0000000E+00  -1.0000000E+00
	2212	-1	0	0	0	0	0.0000000000E+00	0.0000000000E+00	6.5000000000E+03	6.5000000000E+03	9.3827000000E-01	0.000E+00	0.0
	2212	-1	0	0	0	0	0.0000000000E+00	0.0000000000E+00	-6.5000000000E+03	6.5000000000E+03	9.3827000000E-01	0.000E+00	0.0
	2212	1	0	0	0	0	0.0000000000E+00	0.0000000000E+00	5.7478728730E+03	5.7478728730E+03	9.3827000000E-01	0.000E+00	0.0
	2212	1	0	0	0	0	0.0000000000E+00	0.0000000000E+00	-6.1323612768E+03	6.1323612768E+03	9.3827000000E-01	0.000E+00	0.0
	51	2	1	2	0	0	-6.3635220837E+00	-1.3633916381E+02	3.0982425711E+02	1.1048367114E+03	1.0516863727E+03	0.000E+00	0.0
	1000022	2	5	5	0	0	6.3635220837E+00	1.3633916381E+02	3.9040309811E+02	9.3447233401E+02	8.3797082409E+02	0.000E+00	0.0
	14	1	6	6	0	0	2.5622136418E+02	-7.2878804857E+00	2.0973552554E+02	4.6402208066E+02	3.2500000000E+02	0.000E+00	0.0
	-14	1	6	6	0	0	-2.4985784209E+02	1.4362704429E+02	1.8066757257E+02	4.7045025336E+02	3.2500000000E+02	0.000E+00	0.0
	25	2	5	5	0	0	-6.3635220837E+00	-1.3633916381E+02	-5.9146943132E+00	1.8529351613E+02	1.2517923754E+02	0.000E+00	0.0
	-5	1	9	9	0	501	-4.6593963857E+00	-1.9699357382E+01	-5.4931945799E+01	5.8692126603E+01	4.1800000000E+00	0.000E+00	0.0
	5	1	9	9	501	0	-1.7041256980E+00	-1.1663980642E+02	4.9017251486E+01	1.2660138953E+02	4.1800000000E+00	0.000E+00	0.0
</event>
<event>
    11  -1  1.0000000E+00  1.0000000E+00  -1.0000000E+00  -1.0000000E+00
	2212	-1	0	0	0	0	0.0000000000E+00	0.0000000000E+00	6.5000000000E+03	6.5000000000E+03	9.3827000000E-01	0.000E+00	0.0
	2212	-1	0	0	0	0	0.0000000000E+00	0.0000000000E+00	-6.5000000000E+03	6.5000000000E+03	9.3827000000E-01	0.000E+00	0.0
	2212	1	0	0	0	0	0.0000000000E+00	0.0000000000E+00	6.3308466141E+03	6.3308466141E+03	9.3827000000E-01	0.000E+00	0.0
	2212	1	0	0	0	0	0.0000000000E+00	0.0000000000E+00	-4.8930413191E+03	4.8930413191E+03	9.3827000000E-01	0.000E+00	0.0
	51	2	1	2	0	0	9.3949586919E+01	-7.3861664964E+01	-1.3889241793E+03	1.7408855372E+03	1.0427319921E+03	0.000E+00	0.0
	1000022	2	5	5	0	0	-9.3949586919E+01	7.3861664964E+01	-1.2535054295E+03	1.5232915597E+03	8.5723931530E+02	0.000E+00	0.0
	14	1	6	6	0	0	-2.2828623017E+02	1.0215544668E+02	-3.0435860888E+02	5.1069511547E+02	3.2500000000E+02	0.000E+00	0.0
	-14	1	6	6	0	0	1.3433664325E+02	-2.8293781718E+01	-9.4914682064E+02	1.0125964443E+03	3.2500000000E+02	0.000E+00	0.0
	25	2	5	5	0	0	9.3949586919E+01	-7.3861664964E+01	-1.8429986547E+02	2.5282050702E+02	1.2517866402E+02	0.000E+00	0.0
	-5	1	9	9	0	501	-1.5601402295E-01	-7.6039744327E+01	-6.0608844096E+01	9.7329191100E+01	4.1800000000E+00	0.000E+00	0.0
	5	1	9	9	501	0	9.4105600942E+01	2.1780793626E+00	-1.2369102138E+02	1.5549131592E+02	4.1800000000E+00	0.000E+00	0.0
</event>
<event>
    11  -1  1.0000000E+00  1.0000000E+00  -1.0000000E+00  -1.0000000E+00
	2212	-1	0	0	0	0	0.0000000000E+00	0.0000000000E+00	6.5000000000E+03	6.5000000000E+03	9.3827000000E-01	0.000E+00	0.0
	2212	-1	0	0	0	0	0.0000000000E+00	0.0000000000E+00	-6.5000000000E+03	6.5000000000E+03	9.3827000000E-01	0.000E+00	0.0
	2212	1	0	0	0	0	0.0000000000E+00	0.0000000000E+00	5.8168797473E+03	5.8168797473E+03	9.3827000000E-01	0.000E+00	0.0
	2212	1	0	0	0	0	0.0000000000E+00	0.0000000000E+00	-6.0845586638E+03	6.0845586638E+03	9.3827000000E-01	0.000E+00	0.0
	51	2	1	2	0	0	1.2097744467E+02	1.0248008675E+02	2.8282350463E+02	1.1136931388E+03	1.0654508728E+03	0.000E+00	0.0
	1000022	2	5	5	0	0	-1.2097744467E+02	-1.0248008675E+02	2.0466014369E+02	8.8695307706E+02	8.4832910841E+02	0.000E+00	0.0
	14	1	6	6	0	0	-1.2921926483E+02	-1.1051925732E+02	3.7097446590E+02	5.2168877599E+02	3.2500000000E+02	0.000E+00	0.0
	-14	1	6	6	0	0	8.2418201528E+00	8.0391705747E+00	-1.6631432221E+02	3.6526430107E+02	3.2500000000E+02	0.000E+00	0.0
	25	2	5	5	0	0	1.2097744467E+02	1.0248008675E+02	6.3018772763E+01	2.1160851187E+02	1.2517622088E+02	0.000E+00	0.0
	-5	1	9	9	0	501	7.7393642009E+01	6.7074339536E+01	-2.6484593991E+01	1.0586618424E+02	4.1800000000E+00	0.000E+00	0.0
	5	1	9	9	501	0	4.3583802666E+01	3.5405747211E+01	8.9503366754E+01	1.0574232762E+02	4.1800000000E+00	0.000E+00	0.0
</event>
<event>
    11  -1  1.0000000E+00  1.0000000E+00  -1.0000000E+00  -1.0000000E+00
	2212	-1	0	0	0	0	0.0000000000E+00	0.0000000000E+00	6.5000000000E+03	6.5000000000E+03	9.3827000000E-01	0.000E+00	0.0
	2212	-1	0	0	0	0	0.0000000000E+00	0.0000000000E+00	-6.5000000000E+03	6.5000000000E+03	9.3827000000E-01	0.000E+00	0.0
	2212	1	0	0	0	0	0.0000000000E+00	0.0000000000E+00	5.4280070543E+03	5.4280070543E+03	9.3827000000E-01	0.000E+00	0.0
	2212	1	0	0	0	0	0.0000000000E+00	0.0000000000E+00	-6.2433435202E+03	6.2433435202E+03	9.3827000000E-01	0.000E+00	0.0
	51	2	1	2	0	0	1.2974500376E+01	-1.3745655604E+02	7.5486966506E+02	1.2997794417E+03	1.0490642227E+03	0.000E+00	0.0
	1000022	2	5	5	0	0	-1.2974500376E+01	1.3745655604E+02	7.3307656385E+02	1.1249359796E+03	8.4203151200E+02	0.000E+00	0.0
	14	1	6	6	0	0	9.6243229703E+01	5.7592139807E+01	6.8917029908E+02	7.7016901714E+02	3.2500000000E+02	0.000E+00	0.0
	-14	1	6	6	0	0	-1.0921773008E+02	7.9864416235E+01	4.3906264776E+01	3.5476696243E+02	3.2500000000E+02	0.000E+00	0.0
	25	2	5	5	0	0	1.2974500376E+01	-1.3745655604E+02	8.2259901983E+01	2.0371344595E+02	1.2517920805E+02	0.000E+00	0.0
	-5	1	9	9	0	501	-4.1568825113E+01	-4.5019320346E+01	7.3736666251E+01	9.5964966397E+01	4.1800000000E+00	0.000E+00	0.0
	5	1	9	9	501	0	5.4543325489E+01	-9.2437235696E+01	8.5232357316E+00	1.0774847955E+02	4.1800000000E+00	0.000E+00	0.0
</event>
<event>
    11  -1  1.0000000E+00  1.0000000E+00  -1.0000000E+00  -1.0000000E+00
	2212	-1	0	0	0	0	0.0000000000E+00	0.0000000000E+00	6.5000000000E+03	6.5000000000E+03	9.3827000000E-01	0.000E+00	0.0
	2212	-1	0	0	0	0	0.0000000000E+00	0.0000000000E+00	-6.5000000000E+03	6.5000000000E+03	9.3827000000E-01	0.000E+00	0.0
	2212	1	0	0	0	0	0.0000000000E+00	0.0000000000E+00	6.0277314799E+03	6.0277314799E+03	9.3827000000E-01	0.000E+00	0.0
	2212	1	0	0	0	0	0.0000000000E+00	0.0000000000E+00	-5.9231914895E+03	5.9231914895E+03	9.3827000000E-01	0.000E+00	0.0
	51	2	1	2	0	0	7.5940139305E+01	8.5956467483E+01	-2.6622650565E+01	1.0504752215E+03	1.0438553570E+03	0.000E+00	0.0
	1000022	2	5	5	0	0	-7.5940139305E+01	-8.5956467483E+01	-1.6464795001E+02	8.6895860339E+02	8.4547305569E+02	0.000E+00	0.0
	14	1	6	6	0	0	1.1787444021E+01	-2.3352646024E+01	-3.5104645738E+02	4.7910636100E+02	3.2500000000E+02	0.000E+00	0.0
	-14	1	6	6	0	0	-8.7727583326E+01	-6.2603821459E+01	1.8639850738E+02	3.8985224238E+02	3.2500000000E+02	0.000E+00	0.0
	25	2	5	5	0	0	7.5940139305E+01	8.5956467483E+01	6.0107959581E+01	1.8011842714E+02	1.2519689266E+02	0.000E+00	0.0
	-5	1	9	9	0	501	-3.3673285703E+01	1.1010490673E+01	2.1991264617E+01	4.1907149681E+01	4.1800000000E+00	0.000E+00	0.0
	5	1	9	9	501	0	1.0961342501E+02	7.4945976810E+01	3.8116694963E+01	1.3821127746E+02	4.1800000000E+00	0.000E+00	0.0
</event>
<event>
    11  -1  1.0000000E+00  1.0000000E+00  -1.0000000E+00  -1.0000000E+00
	2212	-1	0	0	0	0	0.0000000000E+00	0.0000000000E+00	6.5000000000E+03	6.5000000000E+03	9.3827000000E-01	0.000E+00	0.0
	2212	-1	0	0	0	0	0.0000000000E+00	0.0000000000E+00	-6.5000000000E+03	6.5000000000E+03	9.3827000000E-01	0.000E+00	0.0
	2212	1	0	0	0	0	0.0000000000E+00	0.0000000000E+00	6.1164364966E+03	6.1164364966E+03	9.3827000000E-01	0.000E+00	0.0
	2212	1	0	0	0	0	0.0000000000E+00	0.0000000000E+00	-5.7895513924E+03	5.7895513924E+03	9.3827000000E-01	0.000E+00	0.0
	51	2	1	2	0	0	-2.7950073736E+01	1.2116255505E+02	-2.6668753150E+02	1.0847084579E+03	1.0440347829E+03	0.000E+00	0.0
	1000022	2	5	5	0	0	2.7950073736E+01	-1.2116255505E+02	-3.3156547831E+02	9.1751198544E+02	8.4642247468E+02	0.000E+00	0.0
	14	1	6	6	0	0	2.0883199175E+02	-5.9280463540E+00	-3.5867826741E+02	5.2718217157E+02	3.2500000000E+02	0.000E+00	0.0
	-14	1	6	6	0	0	-1.8088191801E+02	-1.1523450869E+02	2.7112789104E+01	3.9032981386E+02	3.2500000000E+02	0.000E+00	0.0
	25	2	5	5	0	0	-2.7950073736E+01	1.2116255505E+02	4.6803741262E+00	1.7650012563E+02	1.2517514561E+02	0.000E+00	0.0
	-5	1	9	9	0	501	-2.6406262573E+01	1.1584322296E+02	-4.4417248561E+01	1.2691456725E+02	4.1800000000E+00	0.000E+00	0.0
	5	1	9	9	501	0	-1.5438111627E+00	5.3193320844E+00	4.9097622687E+01	4.9585558384E+01	4.1800000000E+00	0.000E+00	0.0
</event>
<event>
    11  -1  1.0000000E+00  1.0000000E+00  -1.0000000E+00  -1.0000000E+00
	2212	-1	0	0	0	0	0.0000000000E+00	0.0000000000E+00	6.5000000000E+03	6.5000000000E+03	9.3827000000E-01	0.000E+00	0.0
	2212	-1	0	0	0	0	0.0000000000E+00	0.0000000000E+00	-6.5000000000E+03	6.5000000000E+03	9.3827000000E-01	0.000E+00	0.0
	2212	1	0	0	0	0	0.0000000000E+00	0.0000000000E+00	5.0509472992E+03	5.0509472992E+03	9.3827000000E-01	0.000E+00	0.0
	2212	1	0	0	0	0	0.0000000000E+00	0.0000000000E+00	-6.3086824920E+03	6.3086824920E+03	9.3827000000E-01	0.000E+00	0.0
	51	2	1	2	0	0	-2.0591759683E+01	1.3352755793E+02	1.3415234482E+03	1.7108054823E+03	1.0530510941E+03	0.000E+00	0.0
	1000022	2	5	5	0	0	2.0591759683E+01	-1.3352755793E+02	9.5860435781E+02	1.2890796693E+03	8.5120529238E+02	0.000E+00	0.0
	14	1	6	6	0	0	1.0534190949E+02	1.2882193029E+02	7.0287961019E+02	7.9205855468E+02	3.2500000000E+02	0.000E+00	0.0
	-14	1	6	6	0	0	-8.4750149807E+01	-2.6234948822E+02	2.5572474762E+02	4.9702111465E+02	3.2500000000E+02	0.000E+00	0.0
	25	2	5	5	0	0	-2.0591759683E+01	1.3352755793E+02	2.9913083496E+02	3.5129053947E+02	1.2518848750E+02	0.000E+00	0.0
	-5	1	9	9	0	501	5.0295224066E+01	6.8485749285E+01	1.7115800460E+02	1.9113461842E+02	4.1800000000E+00	0.000E+00	0.0
	5	1	9	9	501	0	-7.0886983749E+01	6.5041808648E+01	1.2797283036E+02	1.6015592105E+02	4.1800000000E+00	0.000E+00	0.0
</event>
<event>
    11  -1  1.0000000E+00  1.0000000E+00  -1.0000000E+00  -1.0000000E+00
	2212	-1	0	0	0	0	0.0000000000E+00	0.0000000000E+00	6.5000000000E+03	6.5000000000E+03	9.3827000000E-01	0.000E+00	0.0
	2212	-1	0	0	0	0	0.0000000000E+00	0.0000000000E+00	-6.5000000000E+03	6.5000000000E+03	9.3827000000E-01	0.000E+00	0.0
	2212	1	0	0	0	0	0.0000000000E+00	0.0000000000E+00	5.1539337073E+03	5.1539337073E+03	9.3827000000E-01	0.000E+00	0.0
	2212	1	0	0	0	0	0.0000000000E+00	0.0000000000E+00	-6.2929738197E+03	6.2929738197E+03	9.3827000000E-01	0.000E+00	0.0
	51	2	1	2	0	0	2.5971835405E+01	1.1818891548E+02	1.1884422188E+03	1.5942778664E+03	1.0557858930E+03	0.000E+00	0.0
	1000022	2	5	5	0	0	-2.5971835405E+01	-1.1818891548E+02	9.0721703647E+02	1.2631742809E+03	8.7058793740E+02	0.000E+00	0.0
	14	1	6	6	0	0	-2.0004037771E+02	-1.7076229297E+02	1.9905241436E+02	4.6305807096E+02	3.2500000000E+02	0.000E+00	0.0
	-14	1	6	6	0	0	1.7406854231E+02	5.2573377495E+01	7.0816462211E+02	8.0011620997E+02	3.2500000000E+02	0.000E+00	0.0
	25	2	5	5	0	0	2.5971835405E+01	1.1818891548E+02	2.3182307603E+02	2.8991819208E+02	1.2516973892E+02	0.000E+00	0.0
	-5	1	9	9	0	501	7.6479609455E+01	7.4692889040E+01	1.5128911940E+02	1.8529443700E+02	4.1800000000E+00	0.000E+00	0.0
	5	1	9	9	501	0	-5.0507774050E+01	4.3496026439E+01	8.0533956629E+01	1.0462375507E+02	4.1800000000E+00	0.000E+00	0.0
</event>
<event>
    11  -1  1.0000000E+00  1.0000000E+00  -1.0000000E+00  -1.0000000E+00
	2212	-1	0	0	0	0	0.0000000000E+00	0.0000000000E+00	6.5000000000E+03	6.5000000000E+03	9.3827000000E-01	0.000E+00	0.0
	2212	-1	0	0	0	0	0.0000000000E+00	0.0000000000E+00	-6.5000000000E+03	6.5000000000E+03	9.3827000000E-01	0.000E+00	0.0
	2212	1	0	0	0	0	0.0000000000E+00	0.0000000000E+00	5.3221721416E+03	5.3221721416E+03	9.3827000000E-01	0.000E+00	0.0
	2212	1	0	0	0	0	0.0000000000E+00	0.0000000000E+00	-6.2647635108E+03	6.2647635108E+03	9.3827000000E-01	0.000E+00	0.0
	51	2	1	2	0	0	8.8698598736E+01	-7.4552936842E+01	1.0916348708E+03	1.5209748960E+03	1.0527451550E+03	0.000E+00	0.0
	1000022	2	5	5	0	0	-8.8698598736E+01	7.4552936842E+01	6.2513919876E+02	1.0526877854E+03	8.3900356013E+02	0.000E+00	0.0
	14	1	6	6	0	0	-1.8099925142E+02	2.6002975900E+02	4.0807693306E+02	6.1035070892E+02	3.2500000000E+02	0.000E+00	0.0
	-14	1	6	6	0	0	9.2300652685E+01	-1.8547682216E+02	2.1706226570E+02	4.4233707649E+02	3.2500000000E+02	0.000E+00	0.0
	25	2	5	5	0	0	8.8698598736E+01	-7.4552936842E+01	3.1745217039E+02	3.6037656223E+02	1.2517908895E+02	0.000E+00	0.0
	-5	1	9	9	0	501	5.6681790181E+01	-2.8229777834E+01	2.9132914016E+02	2.9816083914E+02	4.1800000000E+00	0.000E+00	0.0
	5	1	9	9	501	0	3.2016808555E+01	-4.6323159008E+01	2.6123030234E+01	6.2215723086E+01	4.1800000000E+00	0.000E+00	0.0
</event>
<event>
    11  -1  1.0000000E+00  1.0000000E+00  -1.0000000E+00  -1.0000000E+00
	2212	-1	0	0	0	0	0.0000000000E+00	0.0000000000E+00	6.5000000000E+03	6.5000000000E+03	9.3827000000E-01	0.000E+00	0.0
	2212	-1	0	0	0	0	0.0000000000E+00	0.0000000000E+00	-6.5000000000E+03	6.5000000000E+03	9.3827000000E-01	0.000E+00	0.0
	2212	1	0	0	0	0	0.0000000000E+00	0.0000000000E+00	6.3262893424E+03	6.3262893424E+03	9.3827000000E-01	0.000E+00	0.0
	2212	1	0	0	0	0	0.0000000000E+00	0.0000000000E+00	-4.8868790135E+03	4.8868790135E+03	9.3827000000E-01	0.000E+00	0.0
	51	2	1	2	0	0	1.0447035458E+02	8.4745531792E+01	-1.5636117981E+03	1.8931040502E+03	1.0587092280E+03	0.000E+00	0.0
	1000022	2	5	5	0	0	-1.0447035458E+02	-8.4745531792E+01	-1.0644221507E+03	1.3692417363E+03	8.5072472485E+02	0.000E+00	0.0
	14	1	6	6	0	0	-4.1304899995E+01	-1.3572521379E+02	-1.3185603972E+02	3.7833641595E+02	3.2500000000E+02	0.000E+00	0.0
	-14	1	6	6	0	0	-6.3165454589E+01	5.0979682001E+01	-9.3256611095E+02	9.9090532036E+02	3.2500000000E+02	0.000E+00	0.0
	25	2	5	5	0	0	1.0447035458E+02	8.4745531792E+01	-3.7498817820E+02	4.1758990779E+02	1.2517722298E+02	0.000E+00	0.0
	-5	1	9	9	0	501	4.8866837026E+01	-7.3897847434E+00	-3.4347895442E+01	6.0330978782E+01	4.1800000000E+00	0.000E+00	0.0
	5	1	9	9	501	0	5.5603517558E+01	9.2135316535E+01	-3.4064028276E+02	3.5725892901E+02	4.1800000000E+00	0.000E+00	0.0
</event>
<event>
    11  -1  1.0000000E+00  1.0000000E+00  -1.0000000E+00  -1.0000000E+00
	2212	-1	0	0	0	0	0.0000000000E+00	0.0000000000E+00	6.5000000000E+03	6.5000000000E+03	9.3827000000E-01	0.000E+00	0.0
	2212	-1	0	0	0	0	0.0000000000E+00	0.0000000000E+00	-6.5000000000E+03	6.5000000000E+03	9.3827000000E-01	0.000E+00	0.0
	2212	1	0	0	0	0	0.0000000000E+00	0.0000000000E+00	6.1991968845E+03	6.1991968845E+03	9.3827000000E-01	0.000E+00	0.0
	2212	1	0	0	0	0	0.0000000000E+00	0.0000000000E+00	-5.5812302326E+03	5.5812302326E+03	9.3827000000E-01	0.000E+00	0.0
	51	2	1	2	0	0	2.0930140834E+01	-1.0847398862E+01	-7.9946975357E+02	1.3210536921E+03	1.0514158234E+03	0.000E+00	0.0
	1000022	2	5	5	0	0	-2.0930140834E+01	1.0847398862E+01	-3.2689245687E+02	9.0185073788E+02	8.4019065586E+02	0.000E+00	0.0
	14	1	6	6	0	0	1.2117735965E+01	1.8525726099E+02	4.5051671726E+01	3.7699037839E+02	3.2500000000E+02	0.000E+00	0.0
	-14	1	6	6	0	0	-3.3047876799E+01	-1.7440986213E+02	-3.7194412860E+02	5.2486035949E+02	3.2500000000E+02	0.000E+00	0.0
	25	2	5	5	0	0	2.0930140834E+01	-1.0847398862E+01	-2.9107419505E+02	3.1772214499E+02	1.2516963506E+02	0.000E+00	0.0
	-5	1	9	9	0	501	7.8484282500E+00	-4.7140383661E+01	-2.6866026069E+02	2.7290954852E+02	4.1800000000E+00	0.000E+00	0.0
	5	1	9	9	501	0	1.3081712584E+01	3.6292984799E+01	-2.2413934358E+01	4.4812596479E+01	4.1800000000E+00	0.000E+00	0.0
</event>
<event>
    11  -1  1.0000000E+00  1.0000000E+00  -1.0000000E+00  -1.0000000E+00
	2212	-1	0	0	0	0	0.0000000000E+00	0.0000000000E+00	6.5000000000E+03	6.5000000000E+03	9.3827000000E-01	0.000E+00	0.0
	2212	-1	0	0	0	0	0.0000000000E+00	0.0000000000E+00	-6.5000000000E+03	6.5000000000E+03	9.3827000000E-01	0.000E+00	0.0
	2212	1	0	0	0	0	0.0000000000E+00	0.0000000000E+00	5.6018345726E+03	5.6018345726E+03	9.3827000000E-01	0.000E+00	0.0
	2212	1	0	0	0	0	0.0000000000E+00	0.0000000000E+00	-6.1899142635E+03	6.1899142635E+03	9.3827000000E-01	0.000E+00	0.0
	51	2	1	2	0	0	5.0543048820E+01	-8.5618141019E+01	6.9992749260E+02	1.2703608594E+03	1.0554776891E+03	0.000E+00	0.0
	1000022	2	5	5	0	0	-5.0543048820E+01	8.5618141019E+01	3.7794610045E+02	9.4420638970E+02	8.5953323708E+02	0.000E+00	0.0
	14	1	6	6	0	0	1.8263661473E+02	-8.9054451733E+01	3.2876175860E+02	5.0497140744E+02	3.2500000000E+02	0.000E+00	0.0
	-14	1	6	6	0	0	-2.3317966355E+02	1.7467259275E+02	4.9184341850E+01	4.3923498226E+02	3.2500000000E+02	0.000E+00	0.0
	25	2	5	5	0	0	5.0543048820E+01	-8.5618141019E+01	2.1013359048E+02	2.6404477424E+02	1.2521362186E+02	0.000E+00	0.0
	-5	1	9	9	0	501	-2.4464060480E+01	-1.9012716407E+01	1.3519438220E+02	1.3876226799E+02	4.1800000000E+00	0.000E+00	0.0
	5	1	9	9	501	0	7.5007109300E+01	-6.6605424612E+01	7.4939208281E+01	1.2528250625E+02	4.1800000000E+00	0.000E+00	0.0
</event>
<event>
    11  -1  1.0000000E+00  1.0000000E+00  -1.0000000E+00  -1.0000000E+00
	2212	-1	0	0	0	0	0.0000000000E+00	0.0000000000E+00	6.5000000000E+03	6.5000000000E+03	9.3827000000E-01	0.000E+00	0.0
	2212	-1	0	0	0	0	0.0000000000E+00	0.0000000000E+00	-6.5000000000E+03	6.5000000000E+03	9.3827000000E-01	0.000E+00	0.0
	2212	1	0	0	0	0	0.0000000000E+00	0.0000000000E+00	5.0714390937E+03	5.0714390937E+03	9.3827000000E-01	0.000E+00	0.0
	2212	1	0	0	0	0	0.0000000000E+00	0.0000000000E+00	-6.3134980265E+03	6.3134980265E+03	9.3827000000E-01	0.000E+00	0.0
	51	2	1	2	0	0	-8.3198866907E+01	7.4482439466E+01	1.1667817550E+03	1.5619113490E+03	1.0323360466E+03	0.000E+00	0.0
	1000022	2	5	5	0	0	8.3198866907E+01	-7.4482439466E+01	1.1143058397E+03	1.4042119182E+03	8.4715047159E+02	0.000E+00	0.0
	14	1	6	6	0	0	1.0538953773E+02	-3.2467143578E+01	9.9866970207E+02	1.0559958541E+03	3.2500000000E+02	0.000E+00	0.0
	-14	1	6	6	0	0	-2.2190670827E+01	-4.2015295889E+01	1.1563613768E+02	3.4821606410E+02	3.2500000000E+02	0.000E+00	0.0
	25	2	5	5	0	0	-8.3198866907E+01	7.4482439466E+01	1.2775309304E+02	2.1085096158E+02	1.2517024397E+02	0.000E+00	0.0
	-5	1	9	9	0	501	-1.1377058245E+02	7.5604489000E+01	1.0011495142E+02	1.6941151107E+02	4.1800000000E+00	0.000E+00	0.0
	5	1	9	9	501	0	3.0571715538E+01	-1.1220495333E+00	2.7638141623E+01	4.1439450509E+01	4.1800000000E+00	0.000E+00	0.0
</event>
<event>
    11  -1  1.0000000E+00  1.0000000E+00  -1.0000000E+00  -1.0000000E+00
	2212	-1	0	0	0	0	0.0000000000E+00	0.0000000000E+00	6.5000000000E+03	6.5000000000E+03	9.3827000000E-01	0.000E+00	0.0
	2212	-1	0	0	0	0	0.0000000000E+00	0.0000000000E+00	-6.5000000000E+03	6.5000000000E+03	9.3827000000E-01	0.000E+00	0.0
	2212	1	0	0	0	0	0.0000000000E+00	0.0000000000E+00	6.2641863992E+03	6.2641863992E+03	9.3827000000E-01	0.000E+00	0.0
	2212	1	0	0	0	0	0.0000000000E+00	0.0000000000E+00	-5.2929762175E+03	5.2929762175E+03	9.3827000000E-01	0.000E+00	0.0
	51	2	1	2	0	0	1.7822537142E+01	9.6787126509E+00	-1.0024872030E+03	1.4642139222E+03	1.0670194458E+03	0.000E+00	0.0
	1000022	2	5	5	0	0	-1.7822537142E+01	-9.6787126509E+00	-8.2305930399E+02	1.2478321362E+03	9.3768177008E+02	0.000E+00	0.0
	14	1	6	6	0	0	9.7452086916E-01	-2.4006052249E+02	-7.3601650730E+02	8.3962807431E+02	3.2500000000E+02	0.000E+00	0.0
	-14	1	6	6	0	0	-1.8797058011E+01	2.3038180984E+02	-8.7042796694E+01	4.0820406190E+02	3.2500000000E+02	0.000E+00	0.0
	25	2	5	5	0	0	1.7822537142E+01	9.6787126509E+00	-1.4815087772E+02	1.9500524711E+02	1.2516806112E+02	0.000E+00	0.0
	-5	1	9	9	0	501	2.9184671104E+01	4.3397934847E+01	-1.5022044924E+02	1.5911876554E+02	4.1800000000E+00	0.000E+00	0.0
	5	1	9	9	501	0	-1.1362133962E+01	-3.3719222196E+01	2.0695715199E+00	3.5886481577E+01	4.1800000000E+00	0.000E+00	0.0
</event>
<event>
    11  -1  1.0000000E+00  1.0000000E+00  -1.0000000E+00  -1.0000000E+00
	2212	-1	0	0	0	0	0.0000000000E+00	0.0000000000E+00	6.5000000000E+03	6.5000000000E+03	9.3827000000E-01	0.000E+00	0.0
	2212	-1	0	0	0	0	0.0000000000E+00	0.0000000000E+00	-6.5000000000E+03	6.5000000000E+03	9.3827000000E-01	0.000E+00	0.0
	2212	1	0	0	0	0	0.0000000000E+00	0.0000000000E+00	6.1749354552E+03	6.1749354552E+03	9.3827000000E-01	0.000E+00	0.0
	2212	1	0	0	0	0	0.0000000000E+00	0.0000000000E+00	-5.6411456416E+03	5.6411456416E+03	9.3827000000E-01	0.000E+00	0.0
	51	2	1	2	0	0	-6.6660430097E+01	-1.5090845269E+02	-4.8754767108E+02	1.1754369868E+03	1.0567556029E+03	0.000E+00	0.0
	1000022	2	5	5	0	0	6.6660430097E+01	1.5090845269E+02	-4.7970496566E+02	9.6988061164E+02	8.2664053416E+02	0.000E+00	0.0
	14	1	6	6	0	0	-1.5608653201E+02	-9.3325371167E+00	-3.9737756169E+02	5.3664143360E+02	3.2500000000E+02	0.000E+00	0.0
	-14	1	6	6	0	0	2.2274696210E+02	1.6024098981E+02	-8.2327403975E+01	4.3323917804E+02	3.2500000000E+02	0.000E+00	0.0
	25	2	5	5	0	0	-6.6660430097E+01	-1.5090845269E+02	-5.4084847858E+01	2.1403829158E+02	1.2518085101E+02	0.000E+00	0.0
	-5	1	9	9	0	501	1.1539054665E+01	-1.0155804263E+02	7.9562272563E+00	1.0260584661E+02	4.1800000000E+00	0.000E+00	0.0
	5	1	9	9	501	0	-7.8199484762E+01	-4.9350410056E+01	-6.2041075115E+01	1.1143244497E+02	4.1800000000E+00	0.000E+00	0.0
</event>
<event>
    11  -1  1.0000000E+00  1.0000000E+00  -1.0000000E+00  -1.0000000E+00
	2212	-1	0	0	0	0	0.0000000000E+00	0.0000000000E+00	6.5000000000E+03	6.5000000000E+03	9.3827000000E-01	0.000E+00	0.0
	2212	-1	0	0	0	0	0.0000000000E+00	0.0000000000E+00	-6.5000000000E+03	6.5000000000E+03	9.3827000000E-01	0.000E+00	0.0
	2212	1	0	0	0	0	0.0000000000E+00	0.0000000000E+00	5.2281297654E+03	5.2281297654E+03	9.3827000000E-01	0.000E+00	0.0
	2212	1	0	0	0	0	0.0000000000E+00	0.0000000000E+00	-6.2798793525E+03	6.2798793525E+03	9.3827000000E-01	0.000E+00	0.0
	51	2	1	2	0	0	-1.1318568811E+02	1.2559074230E+02	1.0247040744E+03	1.4827211717E+03	1.0582341888E+03	0.000E+00	0.0
	1000022	2	5	5	0	0	1.1318568811E+02	-1.2559074230E+02	8.8147737797E+02	1.2213496276E+03	8.2831667282E+02	0.000E+00	0.0
	14	1	6	6	0	0	2.7019166686E+02	2.2704440273E+01	6.2342404944E+02	7.5352609369E+02	3.2500000000E+02	0.000E+00	0.0
	-14	1	6	6	0	0	-1.5700597875E+02	-1.4829518257E+02	2.5805332853E+02	4.6782353393E+02	3.2500000000E+02	0.000E+00	0.0
	25	2	5	5	0	0	-1.1318568811E+02	1.2559074230E+02	1.7027220909E+02	2.7064125446E+02	1.2517998596E+02	0.000E+00	0.0
	-5	1	9	9	0	501	-1.1190513503E+02	6.8067873608E+01	5.5757028136E+01	1.4241598664E+02	4.1800000000E+00	0.000E+00	0.0
	5	1	9	9	501	0	-1.2805530759E+00	5.7522868687E+01	1.1451518095E+02	1.2822526782E+02	4.1800000000E+00	0.000E+00	0.0
</event>
<event>
    11  -1  1.0000000E+00  1.0000000E+00  -1.0000000E+00  -1.0000000E+00
	2212	-1	0	0	0	0	0.0000000000E+00	0.0000000000E+00	6.5000000000E+03	6.5000000000E+03	9.3827000000E-01	0.000E+00	0.0
	2212	-1	0	0	0	0	0.0000000000E+00	0.0000000000E+00	-6.5000000000E+03	6.5000000000E+03	9.3827000000E-01	0.000E+00	0.0
	2212	1	0	0	0	0	0.0000000000E+00	0.0000000000E+00	5.7216081668E+03	5.7216081668E+03	9.3827000000E-01	0.000E+00	0.0
	2212	1	0	0	0	0	0.0000000000E+00	0.0000000000E+00	-6.1452536036E+03	6.1452536036E+03	9.3827000000E-01	0.000E+00	0.0
	51	2	1	2	0	0	5.7010886208E+00	-1.3929050098E+02	4.3949347268E+02	1.1476565906E+03	1.0509646955E+03	0.000E+00	0.0
	1000022	2	5	5	0	0	-5.7010886208E+00	1.3929050098E+02	3.3587140554E+02	9.2623706943E+02	8.5186334682E+02	0.000E+00	0.0
	14	1	6	6	0	0	1.5507748126E+02	-1.2320667803E+02	2.5348722437E+01	3.8143999323E+02	3.2500000000E+02	0.000E+00	0.0
	-14	1	6	6	0	0	-1.6077856988E+02	2.6249717901E+02	3.1052268311E+02	5.4479707621E+02	3.2500000000E+02	0.000E+00	0.0
	25	2	5	5	0	0	5.7010886208E+00	-1.3929050098E+02	8.7774031221E+01	2.0690116015E+02	1.2517772741E+02	0.000E+00	0.0
	-5	1	9	9	0	501	6.8588549716E-01	1.5253055191E+01	-1.4498621752E+01	2.1466452065E+01	4.1800000000E+00	0.000E+00	0.0
	5	1	9	9	501	0	5.0152031236E+00	-1.5454355617E+02	1.0227265297E+02	1.8543470809E+02	4.1800000000E+00	0.000E+00	0.0
</event>
<event>
    11  -1  1.0000000E+00  1.0000000E+00  -1.0000000E+00  -1.0000000E+00
	2212	-1	0	0	0	0	0.0000000000E+00	0.0000000000E+00	6.5000000000E+03	6.5000000000E+03	9.3827000000E-01	0.000E+00	0.0
	2212	-1	0	0	0	0	0.0000000000E+00	0.0000000000E+00	-6.5000000000E+03	6.5000000000E+03	9.3827000000E-01	0.000E+00	0.0
	2212	1	0	0	0	0	0.0000000000E+00	0.0000000000E+00	6.3145505624E+03	6.3145505624E+03	9.3827000000E-01	0.000E+00	0.0
	2212	1	0	0	0	0	0.0000000000E+00	0.0000000000E+00	-5.0066063838E+03	5.0066063838E+03	9.3827000000E-01	0.000E+00	0.0
	51	2	1	2	0	0	7.7859416040E+00	1.4511434518E+02	-1.3403902060E+03	1.7104270588E+03	1.0525188953E+03	0.000E+00	0.0
	1000022	2	5	5	0	0	-7.7859416040E+00	-1.4511434518E+02	-1.0491448963E+03	1.3567179112E+03	8.4785593295E+02	0.000E+00	0.0
	14	1	6	6	0	0	6.5827513177E+00	-1.1831228704E+01	-9.3492563415E+01	3.3845113385E+02	3.2500000000E+02	0.000E+00	0.0
	-14	1	6	6	0	0	-1.4368692922E+01	-1.3328311647E+02	-9.5565233293E+02	1.0182667774E+03	3.2500000000E+02	0.000E+00	0.0
	25	2	5	5	0	0	7.7859416040E+00	1.4511434518E+02	-2.5879928223E+02	3.2212514254E+02	1.2517485734E+02	0.000E+00	0.0
	-5	1	9	9	0	501	3.1639181615E+01	9.8644129871E+01	-2.4775335664E+02	2.6857196484E+02	4.1800000000E+00	0.000E+00	0.0
	5	1	9	9	501	0	-2.3853240011E+01	4.6470215307E+01	-1.1045925592E+01	5.3553177701E+01	4.1800000000E+00	0.000E+00	0.0
</event>
<event>
    11  -1  1.0000000E+00  1.0000000E+00  -1.0000000E+00  -1.0000000E+00
	2212	-1	0	0	0	0	0.0000000000E+00	0.0000000000E+00	6.5000000000E+03	6.5000000000E+03	9.3827000000E-01	0.000E+00	0.0
	2212	-1	0	0	0	0	0.0000000000E+00	0.0000000000E+00	-6.5000000000E+03	6.5000000000E+03	9.3827000000E-01	0.000E+00	0.0
	2212	1	0	0	0	0	0.0000000000E+00	0.0000000000E+00	6.3308813904E+03	6.3308813904E+03	9.3827000000E-01	0.000E+00	0.0
	2212	1	0	0	0	0	0.0000000000E+00	0.0000000000E+00	-4.8790333007E+03	4.8790333007E+03	9.3827000000E-01	0.000E+00	0.0
	51	2	1	2	0	0	6.0245532753E+01	7.2854041575E+01	-1.5980143237E+03	1.9128851381E+03	1.0471592702E+03	0.000E+00	0.0
	1000022	2	5	5	0	0	-6.0245532753E+01	-7.2854041575E+01	-1.0718831600E+03	1.3790186744E+03	8.6245101889E+02	0.000E+00	0.0
	14	1	6	6	0	0	-3.0188968369E+02	1.5711697653E+01	-6.5392752070E+02	7.9033565078E+02	3.2500000000E+02	0.000E+00	0.0
	-14	1	6	6	0	0	2.4164415094E+02	-8.8565739228E+01	-4.1795563932E+02	5.8868302361E+02	3.2500000000E+02	0.000E+00	0.0
	25	2	5	5	0	0	6.0245532753E+01	7.2854041575E+01	-3.7996492967E+02	4.1106663442E+02	1.2516067498E+02	0.000E+00	0.0
	-5	1	9	9	0	501	1.5512680415E+01	7.8416166643E+01	-3.4416621796E+02	3.5335194414E+02	4.1800000000E+00	0.000E+00	0.0
	5	1	9	9	501	0	4.4732852337E+01	-5.5621250677E+00	-3.5798711714E+01	5.7714690278E+01	4.1800000000E+00	0.000E+00	0.0
</event>
<event>
    11  -1  1.0000000E+00  1.0000000E+00  -1.0000000E+00  -1.0000000E+00
	2212	-1	0	0	0	0	0.0000000000E+00	0.0000000000E+00	6.5000000000E+03	6.5000000000E+03	9.3827000000E-01	0.000E+00	0.0
	2212	-1	0	0	0	0	0.0000000000E+00	0.0000000000E+00	-6.5000000000E+03	6.5000000000E+03	9.3827000000E-01	0.000E+00	0.0
	2212	1	0	0	0	0	0.0000000000E+00	0.0000000000E+00	6.3028261110E+03	6.3028261110E+03	9.3827000000E-01	0.000E+00	0.0
	2212	1	0	0	0	0	0.0000000000E+00	0.0000000000E+00	-4.8423423812E+03	4.8423423812E+03	9.3827000000E-01	0.000E+00	0.0
	51	2	1	2	0	0	8.3485636976E+01	8.0133225576E+01	-1.1399041512E+03	1.6186907847E+03	1.1434103362E+03	0.000E+00	0.0
	1000022	2	5	5	0	0	-8.3485636976E+01	-8.0133225576E+01	-1.4608670231E+03	1.6843191838E+03	8.3030564764E+02	0.000E+00	0.0
	14	1	6	6	0	0	1.8222862983E+02	-1.0229613377E+02	-9.3064373871E+02	1.0076678723E+03	3.2500000000E+02	0.000E+00	0.0
	-14	1	6	6	0	0	-2.6571426680E+02	2.2162908196E+01	-5.3022328435E+02	6.7665131150E+02	3.2500000000E+02	0.000E+00	0.0
	25	2	5	5	0	0	8.3485636976E+01	8.0133225576E+01	3.8329322242E-01	1.7051232392E+02	1.2523226530E+02	0.000E+00	0.0
	-5	1	9	9	0	501	6.7390135104E+01	4.9478130905E+01	-5.8466836317E+01	1.0210464777E+02	4.1800000000E+00	0.000E+00	0.0
	5	1	9	9	501	0	1.6095501872E+01	3.0655094671E+01	5.8850129540E+01	6.8407676153E+01	4.1800000000E+00	0.000E+00	0.0
</event>
<event>
    11  -1  1.0000000E+00  1.0000000E+00  -1.0000000E+00  -1.0000000E+00
	2212	-1	0	0	0	0	0.0000000000E+00	0.0000000000E+00	6.5000000000E+03	6.5000000000E+03	9.3827000000E-01	0.000E+00	0.0
	2212	-1	0	0	0	0	0.0000000000E+00	0.0000000000E+00	-6.5000000000E+03	6.5000000000E+03	9.3827000000E-01	0.000E+00	0.0
	2212	1	0	0	0	0	0.0000000000E+00	0.0000000000E+00	6.0508530007E+03	6.0508530007E+03	9.3827000000E-01	0.000E+00	0.0
	2212	1	0	0	0	0	0.0000000000E+00	0.0000000000E+00	-5.8742787109E+03	5.8742787109E+03	9.3827000000E-01	0.000E+00	0.0
	51	2	1	2	0	0	2.6473926014E+01	3.0390013695E+01	-3.3738020825E+01	1.0615677243E+03	1.0602657014E+03	0.000E+00	0.0
	1000022	2	5	5	0	0	-2.6473926014E+01	-3.0390013695E+01	-2.8882264200E+02	9.0196970768E+02	8.5352587151E+02	0.000E+00	0.0
	14	1	6	6	0	0	4.1778464731E+01	1.6159123842E+02	-3.5877344365E+02	5.1205522390E+02	3.2500000000E+02	0.000E+00	0.0
	-14	1	6	6	0	0	-6.8252390745E+01	-1.9198125212E+02	6.9950801654E+01	3.8991448378E+02	3.2500000000E+02	0.000E+00	0.0
	25	2	5	5	0	0	2.6473926014E+01	3.0390013695E+01	1.1224835220E+02	1.7289858068E+02	1.2517909146E+02	0.000E+00	0.0
	-5	1	9	9	0	501	-4.1491186382E+01	-1.2673196669E+01	1.3867428688E+01	4.5737363715E+01	4.1800000000E+00	0.000E+00	0.0
	5	1	9	9	501	0	6.7965112397E+01	4.3063210363E+01	9.8380923513E+01	1.2716121697E+02	4.1800000000E+00	0.000E+00	0.0
</event>
<event>
    11  -1  1.0000000E+00  1.0000000E+00  -1.0000000E+00  -1.0000000E+00
	2212	-1	0	0	0	0	0.0000000000E+00	0.0000000000E+00	6.5000000000E+03	6.5000000000E+03	9.3827000000E-01	0.000E+00	0.0
	2212	-1	0	0	0	0	0.0000000000E+00	0.0000000000E+00	-6.5000000000E+03	6.5000000000E+03	9.3827000000E-01	0.000E+00	0.0
	2212	1	0	0	0	0	0.0000000000E+00	0.0000000000E+00	5.2958409279E+03	5.2958409279E+03	9.3827000000E-01	0.000E+00	0.0
	2212	1	0	0	0	0	0.0000000000E+00	0.0000000000E+00	-6.2690892308E+03	6.2690892308E+03	9.3827000000E-01	0.000E+00	0.0
	51	2	1	2	0	0	3.4754919598E+01	-1.4049609023E+02	9.5359889625E+02	1.4291644765E+03	1.0546151858E+03	0.000E+00	0.0
	1000022	2	5	5	0	0	-3.4754919598E+01	1.4049609023E+02	8.2453819695E+02	1.1927264720E+03	8.4957998027E+02	0.000E+00	0.0
	14	1	6	6	0	0	-4.4047263809E+01	-1.9794044762E+02	2.8389747658E+02	4.7680536853E+02	3.2500000000E+02	0.000E+00	0.0
	-14	1	6	6	0	0	9.2923442110E+00	3.3843653785E+02	5.4064072037E+02	7.1592110343E+02	3.2500000000E+02	0.000E+00	0.0
	25	2	5	5	0	0	3.4754919598E+01	-1.4049609023E+02	1.4871010599E+02	2.4234336928E+02	1.2517410758E+02	0.000E+00	0.0
	-5	1	9	9	0	501	1.2531051500E+01	2.1432386169E+01	7.4040704791E+00	2.6242467267E+01	4.1800000000E+00	0.000E+00	0.0
	5	1	9	9	501	0	2.2223868099E+01	-1.6192847640E+02	1.4130603551E+02	2.1610090202E+02	4.1800000000E+00	0.000E+00	0.0
</event>
<event>
    11  -1  1.0000000E+00  1.0000000E+00  -1.0000000E+00  -1.0000000E+00
	2212	-1	0	0	0	0	0.0000000000E+00	0.0000000000E+00	6.5000000000E+03	6.5000000000E+03	9.3827000000E-01	0.000E+00	0.0
	2212	-1	0	0	0	0	0.0000000000E+00	0.0000000000E+00	-6.5000000000E+03	6.5000000000E+03	9.3827000000E-01	0.000E+00	0.0
	2212	1	0	0	0	0	0.0000000000E+00	0.0000000000E+00	5.1903069443E+03	5.1903069443E+03	9.3827000000E-01	0.000E+00	0.0
	2212	1	0	0	0	0	0.0000000000E+00	0.0000000000E+00	-6.2866806215E+03	6.2866806215E+03	9.3827000000E-01	0.000E+00	0.0
	51	2	1	2	0	0	1.5163826961E+02	3.2482716728E+01	1.0496847660E+03	1.4978047384E+03	1.0571336882E+03	0.000E+00	0.0
	1000022	2	5	5	0	0	-1.5163826961E+02	-3.2482716728E+01	9.4457044503E+02	1.2724874954E+03	8.3842817736E+02	0.000E+00	0.0
	14	1	6	6	0	0	4.7234615796E+01	7.1579219234E+00	7.9687428386E+02	8.6192573291E+02	3.2500000000E+02	0.000E+00	0.0
	-14	1	6	6	0	0	-1.9887288541E+02	-3.9640638651E+01	1.4769616117E+02	4.1056176248E+02	3.2500000000E+02	0.000E+00	0.0
	25	2	5	5	0	0	1.5163826961E+02	3.2482716728E+01	1.5180323222E+02	2.5052493885E+02	1.2517680287E+02	0.000E+00	0.0
	-5	1	9	9	0	501	-6.5556751735E-01	2.8751169425E+00	7.8879164842E+01	7.9044867717E+01	4.1800000000E+00	0.000E+00	0.0
	5	1	9	9	501	0	1.5229383713E+02	2.9607599785E+01	7.2924067378E+01	1.7148007113E+02	4.1800000000E+00	0.000E+00	0.0
</event>
<event>
    11  -1  1.0000000E+00  1.0000000E+00  -1.0000000E+00  -1.0000000E+00
	2212	-1	0	0	0	0	0.0000000000E+00	0.0000000000E+00	6.5000000000E+03	6.5000000000E+03	9.3827000000E-01	0.000E+00	0.0
	2212	-1	0	0	0	0	0.0000000000E+00	0.0000000000E+00	-6.5000000000E+03	6.5000000000E+03	9.3827000000E-01	0.000E+00	0.0
	2212	1	0	0	0	0	0.0000000000E+00	0.0000000000E+00	5.7062046987E+03	5.7062046987E+03	9.3827000000E-01	0.000E+00	0.0
	2212	1	0	0	0	0	0.0000000000E+00	0.0000000000E+00	-6.1517208677E+03	6.1517208677E+03	9.3827000000E-01	0.000E+00	0.0
	51	2	1	2	0	0	-4.3288607560E+01	-7.5326410835E-01	5.9043770451E+02	1.2067893390E+03	1.0515937214E+03	0.000E+00	0.0
	1000022	2	5	5	0	0	4.3288607560E+01	7.5326410835E-01	2.2574266279E+02	8.8547755363E+02	8.5512354501E+02	0.000E+00	0.0
	14	1	6	6	0	0	2.8490339064E+02	2.4753999643E+01	2.0572200208E+02	4.7930078723E+02	3.2500000000E+02	0.000E+00	0.0
	-14	1	6	6	0	0	-2.4161478308E+02	-2.4000735535E+01	2.0020660715E+01	4.0617676640E+02	3.2500000000E+02	0.000E+00	0.0
	25	2	5	5	0	0	-4.3288607560E+01	-7.5326410835E-01	2.1977350628E+02	2.5659687995E+02	1.2516826191E+02	0.000E+00	0.0
	-5	1	9	9	0	501	-3.3874910425E+01	3.2579540871E+01	1.5947962288E+01	4.9807087254E+01	4.1800000000E+00	0.000E+00	0.0
	5	1	9	9	501	0	-9.4136971356E+00	-3.3332804979E+01	2.0382554399E+02	2.0678979270E+02	4.1800000000E+00	0.000E+00	0.0
</event>
<event>
    11  -1  1.0000000E+00  1.0000000E+00  -1.0000000E+00  -1.0000000E+00
	2212	-1	0	0	0	0	0.0000000000E+00	0.0000000000E+00	6.5000000000E+03	6.5000000000E+03	9.3827000000E-01	0.000E+00	0.0
	2212	-1	0	0	0	0	0.0000000000E+00	0.0000000000E+00	-6.5000000000E+03	6.5000000000E+03	9.3827000000E-01	0.000E+00	0.0
	2212	1	0	0	0	0	0.0000000000E+00	0.0000000000E+00	5.3156810478E+03	5.3156810478E+03	9.3827000000E-01	0.000E+00	0.0
	2212	1	0	0	0	0	0.0000000000E+00	0.0000000000E+00	-6.2680353002E+03	6.2680353002E+03	9.3827000000E-01	0.000E+00	0.0
	51	2	1	2	0	0	1.3197375236E+02	-4.9141993821E+01	9.5410605853E+02	1.4244406406E+03	1.0482751361E+03	0.000E+00	0.0
	1000022	2	5	5	0	0	-1.3197375236E+02	4.9141993821E+01	7.8793084549E+02	1.1662112961E+03	8.4816375958E+02	0.000E+00	0.0
	14	1	6	6	0	0	1.9712095113E+02	-9.0250777990E+00	2.5318403775E+02	4.5679894743E+02	3.2500000000E+02	0.000E+00	0.0
	-14	1	6	6	0	0	-3.2909470349E+02	5.8167071620E+01	5.3474680774E+02	7.0941234869E+02	3.2500000000E+02	0.000E+00	0.0
	25	2	5	5	0	0	1.3197375236E+02	-4.9141993821E+01	1.6442340685E+02	2.5007235585E+02	1.2517635388E+02	0.000E+00	0.0
	-5	1	9	9	0	501	2.8846150124E+01	-3.9312765977E+01	-7.2965920006E+00	4.9480365808E+01	4.1800000000E+00	0.000E+00	0.0
	5	1	9	9	501	0	1.0312760224E+02	-9.8292278439E+00	1.7171999885E+02	2.0059199004E+02	4.1800000000E+00	0.000E+00	0.0
</event>
<event>
    11  -1  1.0000000E+00  1.0000000E+00  -1.0000000E+00  -1.0000000E+00
	2212	-1	0	0	0	0	0.0000000000E+00	0.0000000000E+00	6.5000000000E+03	6.5000000000E+03	9.3827000000E-01	0.000E+00	0.0
	2212	-1	0	0	0	0	0.0000000000E+00	0.0000000000E+00	-6.5000000000E+03	6.5000000000E+03	9.3827000000E-01	0.000E+00	0.0
	2212	1	0	0	0	0	0.0000000000E+00	0.0000000000E+00	5.2950412340E+03	5.2950412340E+03	9.3827000000E-01	0.000E+00	0.0
	2212	1	0	0	0	0	0.0000000000E+00	0.0000000000E+00	-6.2744047946E+03	6.2744047946E+03	9.3827000000E-01	0.000E+00	0.0
	51	2	1	2	0	0	-2.9295899764E+01	6.7856556970E+01	9.7957333320E+02	1.4326054440E+03	1.0427519749E+03	0.000E+00	0.0
	1000022	2	5	5	0	0	2.9295899764E+01	-6.7856556970E+01	8.4505965158E+02	1.2326315196E+03	8.9431084431E+02	0.000E+00	0.0
	14	1	6	6	0	0	-2.1138468032E+02	1.7435526834E+02	4.2770613378E+02	6.0302635062E+02	3.2500000000E+02	0.000E+00	0.0
	-14	1	6	6	0	0	2.4068058009E+02	-2.4221182531E+02	4.1735351780E+02	6.2960516895E+02	3.2500000000E+02	0.000E+00	0.0
	25	2	5	5	0	0	-2.9295899764E+01	6.7856556970E+01	1.3430390909E+02	1.9792245183E+02	1.2519183230E+02	0.000E+00	0.0
	-5	1	9	9	0	501	-4.5693066899E+00	6.3389933840E+01	2.5647416115E+00	6.3743333576E+01	4.1800000000E+00	0.000E+00	0.0
	5	1	9	9	501	0	-2.4726593074E+01	4.4666231298E+00	1.3173916748E+02	1.3417911826E+02	4.1800000000E+00	0.000E+00	0.0
</event>
<event>
    11  -1  1.0000000E+00  1.0000000E+00  -1.0000000E+00  -1.0000000E+00
	2212	-1	0	0	0	0	0.0000000000E+00	0.0000000000E+00	6.5000000000E+03	6.5000000000E+03	9.3827000000E-01	0.000E+00	0.0
	2212	-1	0	0	0	0	0.0000000000E+00	0.0000000000E+00	-6.5000000000E+03	6.5000000000E+03	9.3827000000E-01	0.000E+00	0.0
	2212	1	0	0	0	0	0.0000000000E+00	0.0000000000E+00	5.9182571488E+03	5.9182571488E+03	9.3827000000E-01	0.000E+00	0.0
	2212	1	0	0	0	0	0.0000000000E+00	0.0000000000E+00	-6.0313701945E+03	6.0313701945E+03	9.3827000000E-01	0.000E+00	0.0
	51	2	1	2	0	0	1.3449154530E+01	6.7787522703E+01	2.2719276546E+02	1.0709251783E+03	1.0442644094E+03	0.000E+00	0.0
	1000022	2	5	5	0	0	-1.3449154530E+01	-6.7787522703E+01	-1.9774484075E+01	8.5516999431E+02	8.5214356827E+02	0.000E+00	0.0
	14	1	6	6	0	0	-2.5516225465E+02	6.3869505001E+01	5.8396136556E+01	4.2216371070E+02	3.2500000000E+02	0.000E+00	0.0
	-14	1	6	6	0	0	2.4171310012E+02	-1.3165702770E+02	-7.8170620632E+01	4.3300628361E+02	3.2500000000E+02	0.000E+00	0.0
	25	2	5	5	0	0	1.3449154530E+01	6.7787522703E+01	1.3288752977E+02	1.9520266236E+02	1.2517569984E+02	0.000E+00	0.0
	-5	1	9	9	0	501	2.3105825444E+01	-3.0822556690E+01	1.6018333682E+01	4.1928135951E+01	4.1800000000E+00	0.000E+00	0.0
	5	1	9	9	501	0	-9.6566709148E+00	9.8610079393E+01	1.1686919609E+02	1.5327452641E+02	4.1800000000E+00	0.000E+00	0.0
</event>
<event>
    11  -1  1.0000000E+00  1.0000000E+00  -1.0000000E+00  -1.0000000E+00
	2212	-1	0	0	0	0	0.0000000000E+00	0.0000000000E+00	6.5000000000E+03	6.5000000000E+03	9.3827000000E-01	0.000E+00	0.0
	2212	-1	0	0	0	0	0.0000000000E+00	0.0000000000E+00	-6.5000000000E+03	6.5000000000E+03	9.3827000000E-01	0.000E+00	0.0
	2212	1	0	0	0	0	0.0000000000E+00	0.0000000000E+00	6.0748629873E+03	6.0748629873E+03	9.3827000000E-01	0.000E+00	0.0
	2212	1	0	0	0	0	0.0000000000E+00	0.0000000000E+00	-5.8529109065E+03	5.8529109065E+03	9.3827000000E-01	0.000E+00	0.0
	51	2	1	2	0	0	1.0026665270E+02	-5.3861680785E+00	-1.4280838540E+02	1.0634297081E+03	1.0490024293E+03	0.000E+00	0.0
	1000022	2	5	5	0	0	-1.0026665270E+02	5.3861680785E+00	-2.6488792411E+02	9.0610635131E+02	8.6068617689E+02	0.000E+00	0.0
	14	1	6	6	0	0	-1.1238334398E+02	1.1243093813E+02	-3.9880290978E+02	5.3846029817E+02	3.2500000000E+02	0.000E+00	0.0
	-14	1	6	6	0	0	1.2116691282E+01	-1.0704477005E+02	1.3391498567E+02	3.6764605314E+02	3.2500000000E+02	0.000E+00	0.0
	25	2	5	5	0	0	1.0026665270E+02	-5.3861680785E+00	4.2935843379E+01	1.6611975490E+02	1.2517936679E+02	0.000E+00	0.0
	-5	1	9	9	0	501	5.7647291772E+01	3.1493413339E+01	-3.1246566349E+01	7.2861962923E+01	4.1800000000E+00	0.000E+00	0.0
	5	1	9	9	501	0	4.2619360928E+01	-3.6879581417E+01	7.4182409727E+01	9.3257791977E+01	4.1800000000E+00	0.000E+00	0.0
</event>
<event>
    11  -1  1.0000000E+00  1.0000000E+00  -1.0000000E+00  -1.0000000E+00
	2212	-1	0	0	0	0	0.0000000000E+00	0.0000000000E+00	6.5000000000E+03	6.5000000000E+03	9.3827000000E-01	0.000E+00	0.0
	2212	-1	0	0	0	0	0.0000000000E+00	0.0000000000E+00	-6.5000000000E+03	6.5000000000E+03	9.3827000000E-01	0.000E+00	0.0
	2212	1	0	0	0	0	0.0000000000E+00	0.0000000000E+00	4.8780300959E+03	4.8780300959E+03	9.3827000000E-01	0.000E+00	0.0
	2212	1	0	0	0	0	0.0000000000E+00	0.0000000000E+00	-6.3309558972E+03	6.3309558972E+03	9.3827000000E-01	0.000E+00	0.0
	51	2	1	2	0	0	1.8870627904E+01	3.7478931340E+00	1.4766529792E+03	1.8104176195E+03	1.0472524953E+03	0.000E+00	0.0
	1000022	2	5	5	0	0	-1.8870627904E+01	-3.7478931340E+00	1.2528623282E+03	1.5542415690E+03	9.1958289140E+02	0.000E+00	0.0
	14	1	6	6	0	0	-2.9479706462E+00	-1.7431684192E+02	1.6134927005E+02	4.0255886384E+02	3.2500000000E+02	0.000E+00	0.0
	-14	1	6	6	0	0	-1.5922657258E+01	1.7056894879E+02	1.0915130582E+03	1.1516827052E+03	3.2500000000E+02	0.000E+00	0.0
	25	2	5	5	0	0	1.8870627904E+01	3.7478931340E+00	2.0006347307E+02	2.3677243787E+02	1.2516248152E+02	0.000E+00	0.0
	-5	1	9	9	0	501	1.9609248895E+01	-2.8979019071E+01	2.0069514169E+02	2.0376535153E+02	4.1800000000E+00	0.000E+00	0.0
	5	1	9	9	501	0	-7.3862099120E-01	3.2726912205E+01	-6.3166861729E-01	3.3007086340E+01	4.1800000000E+00	0.000E+00	0.0
</event>
<event>
    11  -1  1.0000000E+00  1.0000000E+00  -1.0000000E+00  -1.0000000E+00
	2212	-1	0	0	0	0	0.0000000000E+00	0.0000000000E+00	6.5000000000E+03	6.5000000000E+03	9.3827000000E-01	0.000E+00	0.0
	2212	-1	0	0	0	0	0.0000000000E+00	0.0000000000E+00	-6.5000000000E+03	6.5000000000E+03	9.3827000000E-01	0.000E+00	0.0
	2212	1	0	0	0	0	0.0000000000E+00	0.0000000000E+00	6.3316867415E+03	6.3316867415E+03	9.3827000000E-01	0.000E+00	0.0
	2212	1	0	0	0	0	0.0000000000E+00	0.0000000000E+00	-4.8800156776E+03	4.8800156776E+03	9.3827000000E-01	0.000E+00	0.0
	51	2	1	2	0	0	1.1472279332E+02	-3.0014425000E+01	-1.3456655653E+03	1.7074944683E+03	1.0443463795E+03	0.000E+00	0.0
	1000022	2	5	5	0	0	-1.1472279332E+02	3.0014425000E+01	-1.3119781397E+03	1.5664275152E+03	8.4755314657E+02	0.000E+00	0.0
	14	1	6	6	0	0	-1.6158906530E+02	1.6624690148E+02	-3.1675181678E+02	5.0961335511E+02	3.2500000000E+02	0.000E+00	0.0
	-14	1	6	6	0	0	4.6866271986E+01	-1.3623247648E+02	-9.9522632290E+02	1.0568141601E+03	3.2500000000E+02	0.000E+00	0.0
	25	2	5	5	0	0	1.1472279332E+02	-3.0014425000E+01	-1.3969292422E+02	2.2187006582E+02	1.2510007200E+02	0.000E+00	0.0
	-5	1	9	9	0	501	1.4109885516E+02	-2.8959229554E+01	-1.0612582162E+02	1.7896280708E+02	4.1800000000E+00	0.000E+00	0.0
	5	1	9	9	501	0	-2.6376061840E+01	-1.0551954464E+00	-3.3567102598E+01	4.2907258739E+01	4.1800000000E+00	0.000E+00	0.0
</event>
<event>
    11  -1  1.0000000E+00  1.0000000E+00  -1.0000000E+00  -1.0000000E+00
	2212	-1	0	0	0	0	0.0000000000E+00	0.0000000000E+00	6.5000000000E+03	6.5000000000E+03	9.3827000000E-01	0.000E+00	0.0
	2212	-1	0	0	0	0	0.0000000000E+00	0.0000000000E+00	-6.5000000000E+03	6.5000000000E+03	9.3827000000E-01	0.000E+00	0.0
	2212	1	0	0	0	0	0.0000000000E+00	0.0000000000E+00	6.3227864025E+03	6.3227864025E+03	9.3827000000E-01	0.000E+00	0.0
	2212	1	0	0	0	0	0.0000000000E+00	0.0000000000E+00	-4.9205858229E+03	4.9205858229E+03	9.3827000000E-01	0.000E+00	0.0
	51	2	1	2	0	0	-8.2211809325E+01	-8.8114601254E+01	-1.4125927258E+03	1.7690437661E+03	1.0580995573E+03	0.000E+00	0.0
	1000022	2	5	5	0	0	8.2211809325E+01	8.8114601254E+01	-1.1706076487E+03	1.4670991873E+03	8.7609063108E+02	0.000E+00	0.0
	14	1	6	6	0	0	-1.1918409140E+02	-1.6303640808E+02	-3.0994734937E+02	4.9242063054E+02	3.2500000000E+02	0.000E+00	0.0
	-14	1	6	6	0	0	2.0139590072E+02	2.5115100933E+02	-8.6066029929E+02	9.7467855681E+02	3.2500000000E+02	0.000E+00	0.0
	25	2	5	5	0	0	-8.2211809325E+01	-8.8114601254E+01	-2.3159293098E+02	2.8952858729E+02	1.2517408931E+02	0.000E+00	0.0
	-5	1	9	9	0	501	-1.9089138856E+01	-9.0574525393E+01	-7.0461673931E+01	1.1640644211E+02	4.1800000000E+00	0.000E+00	0.0
	5	1	9	9	501	0	-6.3122670469E+01	2.4599241392E+00	-1.6113125705E+02	1.7312214518E+02	4.1800000000E+00	0.000E+00	0.0
</event>
<event>
    11  -1  1.0000000E+00  1.0000000E+00  -1.0000000E+00  -1.0000000E+00
	2212	-1	0	0	0	0	0.0000000000E+00	0.0000000000E+00	6.5000000000E+03	6.5000000000E+03	9.3827000000E-01	0.000E+00	0.0
	2212	-1	0	0	0	0	0.0000000000E+00	0.0000000000E+00	-6.5000000000E+03	6.5000000000E+03	9.3827000000E-01	0.000E+00	0.0
	2212	1	0	0	0	0	0.0000000000E+00	0.0000000000E+00	6.3252505819E+03	6.3252505819E+03	9.3827000000E-01	0.000E+00	0.0
	2212	1	0	0	0	0	0.0000000000E+00	0.0000000000E+00	-4.9559077779E+03	4.9559077779E+03	9.3827000000E-01	0.000E+00	0.0
	51	2	1	2	0	0	1.0771677647E+02	1.0684454390E+01	-1.4773484271E+03	1.8093071342E+03	1.0389017611E+03	0.000E+00	0.0
	1000022	2	5	5	0	0	-1.0771677647E+02	-1.0684454390E+01	-1.0391950361E+03	1.3495364230E+03	8.5416928795E+02	0.000E+00	0.0
	14	1	6	6	0	0	-1.3255520375E+02	5.7696147232E+01	-9.3531367956E+02	1.0006679802E+03	3.2500000000E+02	0.000E+00	0.0
	-14	1	6	6	0	0	2.4838427278E+01	-6.8380601623E+01	-1.0388135655E+02	3.4886844281E+02	3.2500000000E+02	0.000E+00	0.0
	25	2	5	5	0	0	1.0771677647E+02	1.0684454390E+01	-3.3014776784E+02	3.6930521717E+02	1.2518679371E+02	0.000E+00	0.0
	-5	1	9	9	0	501	5.7937140123E+01	4.4519256607E+01	-2.8418558938E+02	2.9345800044E+02	4.1800000000E+00	0.000E+00	0.0
	5	1	9	9	501	0	4.9779636346E+01	-3.3834802216E+01	-4.5962178463E+01	7.5847216724E+01	4.1800000000E+00	0.000E+00	0.0
</event>
<event>
    11  -1  1.0000000E+00  1.0000000E+00  -1.0000000E+00  -1.0000000E+00
	2212	-1	0	0	0	0	0.0000000000E+00	0.0000000000E+00	6.5000000000E+03	6.5000000000E+03	9.3827000000E-01	0.000E+00	0.0
	2212	-1	0	0	0	0	0.0000000000E+00	0.0000000000E+00	-6.5000000000E+03	6.5000000000E+03	9.3827000000E-01	0.000E+00	0.0
	2212	1	0	0	0	0	0.0000000000E+00	0.0000000000E+00	5.4455270548E+03	5.4455270548E+03	9.3827000000E-01	0.000E+00	0.0
	2212	1	0	0	0	0	0.0000000000E+00	0.0000000000E+00	-6.2387417336E+03	6.2387417336E+03	9.3827000000E-01	0.000E+00	0.0
	51	2	1	2	0	0	-4.3062848639E+01	1.5681110067E+01	9.7433111888E+02	1.4329621523E+03	1.0497423943E+03	0.000E+00	0.0
	1000022	2	5	5	0	0	4.3062848639E+01	-1.5681110067E+01	4.7449879415E+02	9.7025955788E+02	8.4507644499E+02	0.000E+00	0.0
	14	1	6	6	0	0	-2.5870695755E+01	-4.4069191774E+01	5.3819891652E+02	6.3078876044E+02	3.2500000000E+02	0.000E+00	0.0
	-14	1	6	6	0	0	6.8933544393E+01	2.8388081707E+01	-6.3700122370E+01	3.3947079744E+02	3.2500000000E+02	0.000E+00	0.0
	25	2	5	5	0	0	-4.3062848639E+01	1.5681110067E+01	3.1871588462E+02	3.4547165368E+02	1.2518203643E+02	0.000E+00	0.0
	-5	1	9	9	0	501	-4.7647067619E+01	5.7561255195E+01	1.1363218417E+02	1.3606353969E+02	4.1800000000E+00	0.000E+00	0.0
	5	1	9	9	501	0	4.5842189800E+00	-4.1880145128E+01	2.0508370044E+02	2.0940811400E+02	4.1800000000E+00	0.000E+00	0.0
</event>
<event>
    11  -1  1.0000000E+00  1.0000000E+00  -1.0000000E+00  -1.0000000E+00
	2212	-1	0	0	0	0	0.0000000000E+00	0.0000000000E+00	6.5000000000E+03	6.5000000000E+03	9.3827000000E-01	0.000E+00	0.0
	2212	-1	0	0	0	0	0.0000000000E+00	0.0000000000E+00	-6.5000000000E+03	6.5000000000E+03	9.3827000000E-01	0.000E+00	0.0
	2212	1	0	0	0	0	0.0000000000E+00	0.0000000000E+00	5.8910395629E+03	5.8910395629E+03	9.3827000000E-01	0.000E+00	0.0
	2212	1	0	0	0	0	0.0000000000E+00	0.0000000000E+00	-6.0455365903E+03	6.0455365903E+03	9.3827000000E-01	0.000E+00	0.0
	51	2	1	2	0	0	7.0002363553E+01	-1.3164692166E+02	2.9450554478E+02	1.1027083501E+03	1.0521411248E+03	0.000E+00	0.0
	1000022	2	5	5	0	0	-7.0002363553E+01	1.3164692166E+02	-1.7550545288E+01	8.0361021101E+02	7.8946190961E+02	0.000E+00	0.0
	14	1	6	6	0	0	-1.5070312705E+02	3.7582560135E+01	-1.9876271776E+02	4.1140673220E+02	3.2500000000E+02	0.000E+00	0.0
	-14	1	6	6	0	0	8.0700763495E+01	9.4064361528E+01	1.8121217248E+02	3.9220347881E+02	3.2500000000E+02	0.000E+00	0.0
	25	2	5	5	0	0	7.0002363553E+01	-1.3164692166E+02	1.7204757269E+02	2.5981363579E+02	1.2518592250E+02	0.000E+00	0.0
	-5	1	9	9	0	501	1.0359561387E+02	-7.2540673268E+01	1.0948457822E+02	1.6732765988E+02	4.1800000000E+00	0.000E+00	0.0
	5	1	9	9	501	0	-3.3593250312E+01	-5.9106248395E+01	6.2562994460E+01	9.2485975919E+01	4.1800000000E+00	0.000E+00	0.0
</event>
<event>
    11  -1  1.0000000E+00  1.0000000E+00  -1.0000000E+00  -1.0000000E+00
	2212	-1	0	0	0	0	0.0000000000E+00	0.0000000000E+00	6.5000000000E+03	6.5000000000E+03	9.3827000000E-01	0.000E+00	0.0
	2212	-1	0	0	0	0	0.0000000000E+00	0.0000000000E+00	-6.5000000000E+03	6.5000000000E+03	9.3827000000E-01	0.000E+00	0.0
	2212	1	0	0	0	0	0.0000000000E+00	0.0000000000E+00	6.2571808525E+03	6.2571808525E+03	9.3827000000E-01	0.000E+00	0.0
	2212	1	0	0	0	0	0.0000000000E+00	0.0000000000E+00	-5.3647818395E+03	5.3647818395E+03	9.3827000000E-01	0.000E+00	0.0
	51	2	1	2	0	0	1.4796835540E+01	-5.3988068893E+01	-7.8739039124E+02	1.3136697111E+03	1.0500527719E+03	0.000E+00	0.0
	1000022	2	5	5	0	0	-1.4796835540E+01	5.3988068893E+01	-8.6519159546E+02	1.2382376744E+03	8.8404885808E+02	0.000E+00	0.0
	14	1	6	6	0	0	7.6987033878E+01	2.3860748447E+02	-1.7135670617E+02	4.4480181630E+02	3.2500000000E+02	0.000E+00	0.0
	-14	1	6	6	0	0	-9.1783869418E+01	-1.8461941558E+02	-6.9383488928E+02	7.9343585808E+02	3.2500000000E+02	0.000E+00	0.0
	25	2	5	5	0	0	1.4796835540E+01	-5.3988068893E+01	-2.7207417586E+01	1.3979963361E+02	1.2518001462E+02	0.000E+00	0.0
	-5	1	9	9	0	501	-3.8628366987E+01	1.0349816528E+01	1.8659989567E+01	4.4327610458E+01	4.1800000000E+00	0.000E+00	0.0
	5	1	9	9	501	0	5.3425202527E+01	-6.4337885422E+01	-4.5867407153E+01	9.5472023151E+01	4.1800000000E+00	0.000E+00	0.0
</event>
<event>
    11  -1  1.0000000E+00  1.0000000E+00  -1.0000000E+00  -1.0000000E+00
	2212	-1	0	0	0	0	0.0000000000E+00	0.0000000000E+00	6.5000000000E+03	6.5000000000E+03	9.3827000000E-01	0.000E+00	0.0
	2212	-1	0	0	0	0	0.0000000000E+00	0.0000000000E+00	-6.5000000000E+03	6.5000000000E+03	9.3827000000E-01	0.000E+00	0.0
	2212	1	0	0	0	0	0.0000000000E+00	0.0000000000E+00	5.3213053977E+03	5.3213053977E+03	9.3827000000E-01	0.000E+00	0.0
	2212	1	0	0	0	0	0.0000000000E+00	0.0000000000E+00	-6.2666869794E+03	6.2666869794E+03	9.3827000000E-01	0.000E+00	0.0
	51	2	1	2	0	0	-1.0264318231E+02	8.8726630066E+01	9.2103662298E+02	1.4024035406E+03	1.0488179975E+03	0.000E+00	0.0
	1000022	2	5	5	0	0	1.0264318231E+02	-8.8726630066E+01	8.1003923542E+02	1.1831051630E+03	8.5156692399E+02	0.000E+00	0.0
	14	1	6	6	0	0	5.3236656525E+00	-4.9935927151E+01	2.8336868416E+01	3.3007562217E+02	3.2500000000E+02	0.000E+00	0.0
	-14	1	6	6	0	0	9.7319516661E+01	-3.8790702915E+01	7.8170236701E+02	8.5302954084E+02	3.2500000000E+02	0.000E+00	0.0
	25	2	5	5	0	0	-1.0264318231E+02	8.8726630066E+01	1.3534234636E+02	2.2890245990E+02	1.2518285694E+02	0.000E+00	0.0
	-5	1	9	9	0	501	-5.8328348244E+01	9.0709015848E+01	1.4745339926E+02	1.8273012647E+02	4.1800000000E+00	0.000E+00	0.0
	5	1	9	9	501	0	-4.4314834069E+01	-1.9823857819E+00	-1.2111052905E+01	4.6172333431E+01	4.1800000000E+00	0.000E+00	0.0
</event>
<event>
    11  -1  1.0000000E+00  1.0000000E+00  -1.0000000E+00  -1.0000000E+00
	2212	-1	0	0	0	0	0.0000000000E+00	0.0000000000E+00	6.5000000000E+03	6.5000000000E+03	9.3827000000E-01	0.000E+00	0.0
	2212	-1	0	0	0	0	0.0000000000E+00	0.0000000000E+00	-6.5000000000E+03	6.5000000000E+03	9.3827000000E-01	0.000E+00	0.0
	2212	1	0	0	0	0	0.0000000000E+00	0.0000000000E+00	6.2689916874E+03	6.2689916874E+03	9.3827000000E-01	0.000E+00	0.0
	2212	1	0	0	0	0	0.0000000000E+00	0.0000000000E+00	-5.2477577711E+03	5.2477577711E+03	9.3827000000E-01	0.000E+00	0.0
	51	2	1	2	0	0	-2.8380644126E+01	1.0526390494E+02	-8.5404787789E+02	1.3778233506E+03	1.0756920829E+03	0.000E+00	0.0
	1000022	2	5	5	0	0	2.8380644126E+01	-1.0526390494E+02	-1.0006648073E+03	1.3159802440E+03	8.4769569744E+02	0.000E+00	0.0
	14	1	6	6	0	0	-1.4510844964E+02	1.6527758072E+01	-8.0734090254E+02	8.8247037449E+02	3.2500000000E+02	0.000E+00	0.0
	-14	1	6	6	0	0	1.7348909376E+02	-1.2179166301E+02	-1.9332390476E+02	4.3350986953E+02	3.2500000000E+02	0.000E+00	0.0
	25	2	5	5	0	0	-2.8380644126E+01	1.0526390494E+02	-2.0569108984E+01	1.6727029748E+02	1.2518112290E+02	0.000E+00	0.0
	-5	1	9	9	0	501	-2.2001914586E+01	5.2048691215E+01	5.2034802107E+01	7.6930121103E+01	4.1800000000E+00	0.000E+00	0.0
	5	1	9	9	501	0	-6.3787295393E+00	5.3215213721E+01	-7.2603911091E+01	9.0340176376E+01	4.1800000000E+00	0.000E+00	0.0
</event>
<event>
    11  -1  1.0000000E+00  1.0000000E+00  -1.0000000E+00  -1.0000000E+00
	2212	-1	0	0	0	0	0.0000000000E+00	0.0000000000E+00	6.5000000000E+03	6.5000000000E+03	9.3827000000E-01	0.000E+00	0.0
	2212	-1	0	0	0	0	0.0000000000E+00	0.0000000000E+00	-6.5000000000E+03	6.5000000000E+03	9.3827000000E-01	0.000E+00	0.0
	2212	1	0	0	0	0	0.0000000000E+00	0.0000000000E+00	6.2238035554E+03	6.2238035554E+03	9.3827000000E-01	0.000E+00	0.0
	2212	1	0	0	0	0	0.0000000000E+00	0.0000000000E+00	-5.4626732821E+03	5.4626732821E+03	9.3827000000E-01	0.000E+00	0.0
	51	2	1	2	0	0	1.4031472983E+02	-4.8832189193E+01	-6.6334046746E+02	1.2681156048E+03	1.0705250139E+03	0.000E+00	0.0
	1000022	2	5	5	0	0	-1.4031472983E+02	4.8832189193E+01	-7.1719027299E+02	1.1143400241E+03	8.3983271879E+02	0.000E+00	0.0
	14	1	6	6	0	0	1.4269096095E+02	1.6818658734E+02	-4.3250820140E+02	5.8423949094E+02	3.2500000000E+02	0.000E+00	0.0
	-14	1	6	6	0	0	-2.8300569079E+02	-1.1935439815E+02	-2.8468207160E+02	5.3010053317E+02	3.2500000000E+02	0.000E+00	0.0
	25	2	5	5	0	0	1.4031472983E+02	-4.8832189193E+01	-4.3940000349E+01	1.9918313836E+02	1.2518143978E+02	0.000E+00	0.0
	-5	1	9	9	0	501	9.5168540630E+01	-1.6765977882E+01	-8.6072564461E+01	1.2947628313E+02	4.1800000000E+00	0.000E+00	0.0
	5	1	9	9	501	0	4.5146189202E+01	-3.2066211311E+01	4.2132564112E+01	6.9706855230E+01	4.1800000000E+00	0.000E+00	0.0
</event>
<event>
    11  -1  1.0000000E+00  1.0000000E+00  -1.0000000E+00  -1.0000000E+00
	2212	-1	0	0	0	0	0.0000000000E+00	0.0000000000E+00	6.5000000000E+03	6.5000000000E+03	9.3827000000E-01	0.000E+00	0.0
	2212	-1	0	0	0	0	0.0000000000E+00	0.0000000000E+00	-6.5000000000E+03	6.5000000000E+03	9.3827000000E-01	0.000E+00	0.0
	2212	1	0	0	0	0	0.0000000000E+00	0.0000000000E+00	5.3435419459E+03	5.3435419459E+03	9.3827000000E-01	0.000E+00	0.0
	2212	1	0	0	0	0	0.0000000000E+00	0.0000000000E+00	-6.2618965168E+03	6.2618965168E+03	9.3827000000E-01	0.000E+00	0.0
	51	2	1	2	0	0	7.5444656208E+01	-6.5771400704E+01	7.5744650886E+02	1.2981408824E+03	1.0494888106E+03	0.000E+00	0.0
	1000022	2	5	5	0	0	-7.5444656208E+01	6.5771400704E+01	9.1010084303E+02	1.2341026239E+03	8.2747082642E+02	0.000E+00	0.0
	14	1	6	6	0	0	1.9567951903E+02	1.2300742504E+02	3.5664688563E+02	5.3501710422E+02	3.2500000000E+02	0.000E+00	0.0
	-14	1	6	6	0	0	-2.7112417524E+02	-5.7236024338E+01	5.5345395740E+02	6.9908551969E+02	3.2500000000E+02	0.000E+00	0.0
	25	2	5	5	0	0	7.5444656208E+01	-6.5771400704E+01	8.2537278355E+00	1.6045891339E+02	1.2514457863E+02	0.000E+00	0.0
	-5	1	9	9	0	501	1.0686370718E+02	-2.7487897609E+01	2.7771068223E+00	1.1045642194E+02	4.1800000000E+00	0.000E+00	0.0
	5	1	9	9	501	0	-3.1419050968E+01	-3.8283503095E+01	5.4766210132E+00	5.0002491445E+01	4.1800000000E+00	0.000E+00	0.0
</event>
<event>
    11  -1  1.0000000E+00  1.0000000E+00  -1.0000000E+00  -1.0000000E+00
	2212	-1	0	0	0	0	0.0000000000E+00	0.0000000000E+00	6.5000000000E+03	6.5000000000E+03	9.3827000000E-01	0.000E+00	0.0
	2212	-1	0	0	0	0	0.0000000000E+00	0.0000000000E+00	-6.5000000000E+03	6.5000000000E+03	9.3827000000E-01	0.000E+00	0.0
	2212	1	0	0	0	0	0.0000000000E+00	0.0000000000E+00	6.2653043507E+03	6.2653043507E+03	9.3827000000E-01	0.000E+00	0.0
	2212	1	0	0	0	0	0.0000000000E+00	0.0000000000E+00	-5.2854245542E+03	5.2854245542E+03	9.3827000000E-01	0.000E+00	0.0
	51	2	1	2	0	0	-2.0922561702E+01	1.2789513407E+02	-8.4869205785E+02	1.3701443061E+03	1.0678119177E+03	0.000E+00	0.0
	1000022	2	5	5	0	0	2.0922561702E+01	-1.2789513407E+02	-9.3141753040E+02	1.2626902330E+03	8.4264647965E+02	0.000E+00	0.0
	14	1	6	6	0	0	1.6739013090E+02	3.4716289367E+01	-1.6637710417E+02	4.0315135801E+02	3.2500000000E+02	0.000E+00	0.0
	-14	1	6	6	0	0	-1.4646756920E+02	-1.6261142344E+02	-7.6504042623E+02	8.5953887499E+02	3.2500000000E+02	0.000E+00	0.0
	25	2	5	5	0	0	-2.0922561702E+01	1.2789513407E+02	-4.8462266102E+01	1.8658086212E+02	1.2517550865E+02	0.000E+00	0.0
	-5	1	9	9	0	501	2.4283972324E+01	1.3130038183E+02	-4.4811034516E+01	1.4090778117E+02	4.1800000000E+00	0.000E+00	0.0
	5	1	9	9	501	0	-4.5206534026E+01	-3.4052477598E+00	-3.6512315853E+00	4.5673080946E+01	4.1800000000E+00	0.000E+00	0.0
</event>
<event>
    11  -1  1.0000000E+00  1.0000000E+00  -1.0000000E+00  -1.0000000E+00
	2212	-1	0	0	0	0	0.0000000000E+00	0.0000000000E+00	6.5000000000E+03	6.5000000000E+03	9.3827000000E-01	0.000E+00	0.0
	2212	-1	0	0	0	0	0.0000000000E+00	0.0000000000E+00	-6.5000000000E+03	6.5000000000E+03	9.3827000000E-01	0.000E+00	0.0
	2212	1	0	0	0	0	0.0000000000E+00	0.0000000000E+00	5.3397789572E+03	5.3397789572E+03	9.3827000000E-01	0.000E+00	0.0
	2212	1	0	0	0	0	0.0000000000E+00	0.0000000000E+00	-6.2607633446E+03	6.2607633446E+03	9.3827000000E-01	0.000E+00	0.0
	51	2	1	2	0	0	2.1734894525E+00	8.1909731864E+01	7.8080468728E+02	1.3140165505E+03	1.0536933174E+03	0.000E+00	0.0
	1000022	2	5	5	0	0	-2.1734894525E+00	-8.1909731864E+01	9.0596347268E+02	1.2490678175E+03	8.5597118560E+02	0.000E+00	0.0
	14	1	6	6	0	0	-3.8455476146E+01	6.2339808329E+01	8.1469195875E+02	8.8017785873E+02	3.2500000000E+02	0.000E+00	0.0
	-14	1	6	6	0	0	3.6281986694E+01	-1.4424954019E+02	9.1271513932E+01	3.6888995874E+02	3.2500000000E+02	0.000E+00	0.0
	25	2	5	5	0	0	2.1734894525E+00	8.1909731864E+01	1.5020914716E+01	1.5038988072E+02	1.2521006395E+02	0.000E+00	0.0
	-5	1	9	9	0	501	3.1181133618E+01	5.3010814532E+01	6.2342895653E+01	8.7672792755E+01	4.1800000000E+00	0.000E+00	0.0
	5	1	9	9	501	0	-2.9007644166E+01	2.8898917332E+01	-4.7321980937E+01	6.2717087965E+01	4.1800000000E+00	0.000E+00	0.0
</event>
<event>
    11  -1  1.0000000E+00  1.0000000E+00  -1.0000000E+00  -1.0000000E+00
	2212	-1	0	0	0	0	0.0000000000E+00	0.0000000000E+00	6.5000000000E+03	6.5000000000E+03	9.3827000000E-01	0.000E+00	0.0
	2212	-1	0	0	0	0	0.0000000000E+00	0.0000000000E+00	-6.5000000000E+03	6.5000000000E+03	9.3827000000E-01	0.000E+00	0.0
	2212	1	0	0	0	0	0.0000000000E+00	0.0000000000E+00	5.9703545806E+03	5.9703545806E+03	9.3827000000E-01	0.000E+00	0.0
	2212	1	0	0	0	0	0.0000000000E+00	0.0000000000E+00	-5.9824146864E+03	5.9824146864E+03	9.3827000000E-01	0.000E+00	0.0
	51	2	1	2	0	0	8.7328052437E+01	-1.3622070339E+00	-9.5251978913E+01	1.0551055614E+03	1.0471612874E+03	0.000E+00	0.0
	1000022	2	5	5	0	0	-8.7328052437E+01	1.3622070339E+00	1.1732835304E+02	8.6188072706E+02	8.4937883238E+02	0.000E+00	0.0
	14	1	6	6	0	0	4.5853346777E+01	3.0588240124E+01	-2.0173157392E+02	3.8646965956E+02	3.2500000000E+02	0.000E+00	0.0
	-14	1	6	6	0	0	-1.3318139921E+02	-2.9226033090E+01	3.1905992696E+02	4.7541106750E+02	3.2500000000E+02	0.000E+00	0.0
	25	2	5	5	0	0	8.7328052437E+01	-1.3622070339E+00	-1.0526824724E+02	1.8535000586E+02	1.2508067975E+02	0.000E+00	0.0
	-5	1	9	9	0	501	5.9886267269E+01	2.7254629159E+01	6.9172773748E+00	6.6291032156E+01	4.1800000000E+00	0.000E+00	0.0
	5	1	9	9	501	0	2.7441785168E+01	-2.8616836193E+01	-1.1218552461E+02	1.1905897371E+02	4.1800000000E+00	0.000E+00	0.0
</event>
<event>
    11  -1  1.0000000E+00  1.0000000E+00  -1.0000000E+00  -1.0000000E+00
	2212	-1	0	0	0	0	0.0000000000E+00	0.0000000000E+00	6.5000000000E+03	6.5000000000E+03	9.3827000000E-01	0.000E+00	0.0
	2212	-1	0	0	0	0	0.0000000000E+00	0.0000000000E+00	-6.5000000000E+03	6.5000000000E+03	9.3827000000E-01	0.000E+00	0.0
	2212	1	0	0	0	0	0.0000000000E+00	0.0000000000E+00	6.2392137844E+03	6.2392137844E+03	9.3827000000E-01	0.000E+00	0.0
	2212	1	0	0	0	0	0.0000000000E+00	0.0000000000E+00	-5.4347779949E+03	5.4347779949E+03	9.3827000000E-01	0.000E+00	0.0
	51	2	1	2	0	0	-7.4921413061E+01	-9.5395528519E+01	-7.1310524253E+02	1.2784418148E+03	1.0541256385E+03	0.000E+00	0.0
	1000022	2	5	5	0	0	7.4921413061E+01	9.5395528519E+01	-7.5736830873E+02	1.1454434009E+03	8.5071752333E+02	0.000E+00	0.0
	14	1	6	6	0	0	-7.0398013856E+01	5.8955848284E+01	-3.5307340624E+01	3.3956336773E+02	3.2500000000E+02	0.000E+00	0.0
	-14	1	6	6	0	0	1.4531942692E+02	3.6439680235E+01	-7.2206096810E+02	8.0588003313E+02	3.2500000000E+02	0.000E+00	0.0
	25	2	5	5	0	0	-7.4921413061E+01	-9.5395528519E+01	-4.7067480859E+01	1.8056481984E+02	1.2519896730E+02	0.000E+00	0.0
	-5	1	9	9	0	501	1.7567295512E+01	-4.9124561351E+01	-5.6033888978E+01	7.6675299240E+01	4.1800000000E+00	0.000E+00	0.0
	5	1	9	9	501	0	-9.2488708573E+01	-4.6270967168E+01	8.9664081191E+00	1.0388952060E+02	4.1800000000E+00	0.000E+00	0.0
</event>
<event>
    11  -1  1.0000000E+00  1.0000000E+00  -1.0000000E+00  -1.0000000E+00
	2212	-1	0	0	0	0	0.0000000000E+00	0.0000000000E+00	6.5000000000E+03	6.5000000000E+03	9.3827000000E-01	0.000E+00	0.0
	2212	-1	0	0	0	0	0.0000000000E+00	0.0000000000E+00	-6.5000000000E+03	6.5000000000E+03	9.3827000000E-01	0.000E+00	0.0
	2212	1	0	0	0	0	0.0000000000E+00	0.0000000000E+00	6.2559690603E+03	6.2559690603E+03	9.3827000000E-01	0.000E+00	0.0
	2212	1	0	0	0	0	0.0000000000E+00	0.0000000000E+00	-5.3702725299E+03	5.3702725299E+03	9.3827000000E-01	0.000E+00	0.0
	51	2	1	2	0	0	3.5032073653E+01	-5.5541968130E+01	-1.0601962756E+03	1.4936807303E+03	1.0501208620E+03	0.000E+00	0.0
	1000022	2	5	5	0	0	-3.5032073653E+01	5.5541968130E+01	-5.5902892009E+02	1.0178163275E+03	8.4801213825E+02	0.000E+00	0.0
	14	1	6	6	0	0	1.6213506750E+02	1.1300304760E+02	-5.5652630542E+01	3.8442123272E+02	3.2500000000E+02	0.000E+00	0.0
	-14	1	6	6	0	0	-1.9716714115E+02	-5.7461079473E+01	-5.0337628955E+02	6.3339509477E+02	3.2500000000E+02	0.000E+00	0.0
	25	2	5	5	0	0	3.5032073653E+01	-5.5541968130E+01	-3.2666761025E+02	3.5594208234E+02	1.2518339341E+02	0.000E+00	0.0
	-5	1	9	9	0	501	-3.3675126883E+01	1.9429461363E+01	-7.8019525741E+01	8.7269908538E+01	4.1800000000E+00	0.000E+00	0.0
	5	1	9	9	501	0	6.8707200536E+01	-7.4971429493E+01	-2.4864808451E+02	2.6867217381E+02	4.1800000000E+00	0.000E+00	0.0
</event>
<event>
    11  -1  1.0000000E+00  1.0000000E+00  -1.0000000E+00  -1.0000000E+00
	2212	-1	0	0	0	0	0.0000000000E+00	0.0000000000E+00	6.5000000000E+03	6.5000000000E+03	9.3827000000E-01	0.000E+00	0.0
	2212	-1	0	0	0	0	0.0000000000E+00	0.0000000000E+00	-6.5000000000E+03	6.5000000000E+03	9.3827000000E-01	0.000E+00	0.0
	2212	1	0	0	0	0	0.0000000000E+00	0.0000000000E+00	4.8624081637E+03	4.8624081637E+03	9.3827000000E-01	0.000E+00	0.0
	2212	1	0	0	0	0	0.0000000000E+00	0.0000000000E+00	-6.3319273616E+03	6.3319273616E+03	9.3827000000E-01	0.000E+00	0.0
	51	2	1	2	0	0	2.6973204634E+02	-1.8910724084E+02	1.5112558939E+03	1.8690502466E+03	1.0492556990E+03	0.000E+00	0.0
	1000022	2	5	5	0	0	-2.6973204634E+02	1.8910724084E+02	1.0045675881E+03	1.2222554624E+03	6.1338034766E+02	0.000E+00	0.0
	14	1	6	6	0	0	0.0000000000E+00	0.0000000000E+00	0.0000000000E+00	0.0000000000E+00	0.0000000000E+00	0.000E+00	0.0
	-14	1	6	6	0	0	0.0000000000E+00	0.0000000000E+00	0.0000000000E+00	0.0000000000E+00	0.0000000000E+00	0.000E+00	0.0
	25	2	5	5	0	0	2.6973204634E+02	-1.8910724084E+02	4.6495160981E+02	5.8340901224E+02	1.2517647837E+02	0.000E+00	0.0
	-5	1	9	9	0	501	1.3820379103E+01	-5.9757043854E+01	1.1991663911E+02	1.3475674345E+02	4.1800000000E+00	0.000E+00	0.0
	5	1	9	9	501	0	2.5591166724E+02	-1.2935019698E+02	3.4503497070E+02	4.4865226880E+02	4.1800000000E+00	0.000E+00	0.0
</event>
<event>
    11  -1  1.0000000E+00  1.0000000E+00  -1.0000000E+00  -1.0000000E+00
	2212	-1	0	0	0	0	0.0000000000E+00	0.0000000000E+00	6.5000000000E+03	6.5000000000E+03	9.3827000000E-01	0.000E+00	0.0
	2212	-1	0	0	0	0	0.0000000000E+00	0.0000000000E+00	-6.5000000000E+03	6.5000000000E+03	9.3827000000E-01	0.000E+00	0.0
	2212	1	0	0	0	0	0.0000000000E+00	0.0000000000E+00	6.2969969584E+03	6.2969969584E+03	9.3827000000E-01	0.000E+00	0.0
	2212	1	0	0	0	0	0.0000000000E+00	0.0000000000E+00	-5.1404010727E+03	5.1404010727E+03	9.3827000000E-01	0.000E+00	0.0
	51	2	1	2	0	0	-8.4228694089E+01	-4.1468991087E+01	-9.6859058208E+02	1.4321287428E+03	1.0507192157E+03	0.000E+00	0.0
	1000022	2	5	5	0	0	8.4228694089E+01	4.1468991087E+01	-1.1306255829E+03	1.4039865787E+03	8.2707312526E+02	0.000E+00	0.0
	14	1	6	6	0	0	2.6886370701E+02	-9.1868960621E+01	-5.2153454107E+02	6.7701615668E+02	3.2500000000E+02	0.000E+00	0.0
	-14	1	6	6	0	0	-1.8463501292E+02	1.3333795171E+02	-6.0909104178E+02	7.2697042205E+02	3.2500000000E+02	0.000E+00	0.0
	25	2	5	5	0	0	-8.4228694089E+01	-4.1468991087E+01	-2.5970302899E+01	1.5861539015E+02	1.2518081016E+02	0.000E+00	0.0
	-5	1	9	9	0	501	3.4776844571E+00	-4.0281105379E+01	3.3404954590E+01	5.2612024585E+01	4.1800000000E+00	0.000E+00	0.0
	5	1	9	9	501	0	-8.7706378546E+01	-1.1878857080E+00	-5.9375257490E+01	1.0600336557E+02	4.1800000000E+00	0.000E+00	0.0
</event>
<event>
    11  -1  1.0000000E+00  1.0000000E+00  -1.0000000E+00  -1.0000000E+00
	2212	-1	0	0	0	0	0.0000000000E+00	0.0000000000E+00	6.5000000000E+03	6.5000000000E+03	9.3827000000E-01	0.000E+00	0.0
	2212	-1	0	0	0	0	0.0000000000E+00	0.0000000000E+00	-6.5000000000E+03	6.5000000000E+03	9.3827000000E-01	0.000E+00	0.0
	2212	1	0	0	0	0	0.0000000000E+00	0.0000000000E+00	6.2657165899E+03	6.2657165899E+03	9.3827000000E-01	0.000E+00	0.0
	2212	1	0	0	0	0	0.0000000000E+00	0.0000000000E+00	-5.3306858315E+03	5.3306858315E+03	9.3827000000E-01	0.000E+00	0.0
	51	2	1	2	0	0	-8.0557434423E+01	8.9844343245E+01	-1.0191437183E+03	1.4659532968E+03	1.0468064022E+03	0.000E+00	0.0
	1000022	2	5	5	0	0	8.0557434423E+01	-8.9844343245E+01	-6.9502954496E+02	1.1072341840E+03	8.5342835882E+02	0.000E+00	0.0
	14	1	6	6	0	0	1.0785716703E+02	-3.0937096196E+02	-4.4645222176E+02	6.4209668034E+02	3.2500000000E+02	0.000E+00	0.0
	-14	1	6	6	0	0	-2.7299732610E+01	2.1952661871E+02	-2.4857732320E+02	4.6513750368E+02	3.2500000000E+02	0.000E+00	0.0
	25	2	5	5	0	0	-8.0557434423E+01	8.9844343245E+01	-2.4000121342E+02	2.9636339461E+02	1.2517656716E+02	0.000E+00	0.0
	-5	1	9	9	0	501	-9.9439996256E+01	1.0511329467E+02	-2.2491207713E+02	2.6746968503E+02	4.1800000000E+00	0.000E+00	0.0
	5	1	9	9	501	0	1.8882561833E+01	-1.5268951427E+01	-1.5089136290E+01	2.8893709576E+01	4.1800000000E+00	0.000E+00	0.0
</event>
<event>
    11  -1  1.0000000E+00  1.0000000E+00  -1.0000000E+00  -1.0000000E+00
	2212	-1	0	0	0	0	0.0000000000E+00	0.0000000000E+00	6.5000000000E+03	6.5000000000E+03	9.3827000000E-01	0.000E+00	0.0
	2212	-1	0	0	0	0	0.0000000000E+00	0.0000000000E+00	-6.5000000000E+03	6.5000000000E+03	9.3827000000E-01	0.000E+00	0.0
	2212	1	0	0	0	0	0.0000000000E+00	0.0000000000E+00	6.3158918236E+03	6.3158918236E+03	9.3827000000E-01	0.000E+00	0.0
	2212	1	0	0	0	0	0.0000000000E+00	0.0000000000E+00	-5.0009368871E+03	5.0009368871E+03	9.3827000000E-01	0.000E+00	0.0
	51	2	1	2	0	0	-6.6127849041E+00	1.2876930226E+01	-1.5524458838E+03	1.8746351301E+03	1.0506945819E+03	0.000E+00	0.0
	1000022	2	5	5	0	0	6.6127849041E+00	-1.2876930226E+01	-8.5284432502E+02	1.2041893299E+03	8.5001115003E+02	0.000E+00	0.0
	14	1	6	6	0	0	-9.1976864747E+00	2.5935593074E+02	-5.1428791835E+02	6.6141300200E+02	3.2500000000E+02	0.000E+00	0.0
	-14	1	6	6	0	0	1.5810471379E+01	-2.7223286096E+02	-3.3855640667E+02	5.4277632787E+02	3.2500000000E+02	0.000E+00	0.0
	25	2	5	5	0	0	-6.6127849041E+00	1.2876930226E+01	-4.6211061148E+02	4.7898195953E+02	1.2517170630E+02	0.000E+00	0.0
	-5	1	9	9	0	501	5.2622013423E+00	6.1949566635E+01	-3.5582112314E+02	3.6123618817E+02	4.1800000000E+00	0.000E+00	0.0
	5	1	9	9	501	0	-1.1874986246E+01	-4.9072636409E+01	-1.0628948834E+02	1.1774577137E+02	4.1800000000E+00	0.000E+00	0.0
</event>
<event>
    11  -1  1.0000000E+00  1.0000000E+00  -1.0000000E+00  -1.0000000E+00
	2212	-1	0	0	0	0	0.0000000000E+00	0.0000000000E+00	6.5000000000E+03	6.5000000000E+03	9.3827000000E-01	0.000E+00	0.0
	2212	-1	0	0	0	0	0.0000000000E+00	0.0000000000E+00	-6.5000000000E+03	6.5000000000E+03	9.3827000000E-01	0.000E+00	0.0
	2212	1	0	0	0	0	0.0000000000E+00	0.0000000000E+00	6.3285943911E+03	6.3285943911E+03	9.3827000000E-01	0.000E+00	0.0
	2212	1	0	0	0	0	0.0000000000E+00	0.0000000000E+00	-4.8951636002E+03	4.8951636002E+03	9.3827000000E-01	0.000E+00	0.0
	51	2	1	2	0	0	1.1447243188E+02	6.6875189043E+01	-1.4479036274E+03	1.7928505191E+03	1.0489575020E+03	0.000E+00	0.0
	1000022	2	5	5	0	0	-1.1447243188E+02	-6.6875189043E+01	-1.1811886675E+03	1.4650006506E+03	8.5641345710E+02	0.000E+00	0.0
	14	1	6	6	0	0	-2.4315849797E+02	-9.9326673590E+01	-2.9414410938E+02	5.1101624271E+02	3.2500000000E+02	0.000E+00	0.0
	-14	1	6	6	0	0	1.2868606609E+02	3.2451484547E+01	-8.8704455811E+02	9.5398440791E+02	3.2500000000E+02	0.000E+00	0.0
	25	2	5	5	0	0	1.1447243188E+02	6.6875189043E+01	-2.5224212341E+02	3.1124135803E+02	1.2517533927E+02	0.000E+00	0.0
	-5	1	9	9	0	501	-5.9515044119E+00	5.4874824526E+01	-1.1869850643E+02	1.3097127395E+02	4.1800000000E+00	0.000E+00	0.0
	5	1	9	9	501	0	1.2042393629E+02	1.2000364517E+01	-1.3354361698E+02	1.8027008409E+02	4.1800000000E+00	0.000E+00	0.0
</event>
<event>
    11  -1  1.0000000E+00  1.0000000E+00  -1.0000000E+00  -1.0000000E+00
	2212	-1	0	0	0	0	0.0000000000E+00	0.0000000000E+00	6.5000000000E+03	6.5000000000E+03	9.3827000000E-01	0.000E+00	0.0
	2212	-1	0	0	0	0	0.0000000000E+00	0.0000000000E+00	-6.5000000000E+03	6.5000000000E+03	9.3827000000E-01	0.000E+00	0.0
	2212	1	0	0	0	0	0.0000000000E+00	0.0000000000E+00	6.2159601953E+03	6.2159601953E+03	9.3827000000E-01	0.000E+00	0.0
	2212	1	0	0	0	0	0.0000000000E+00	0.0000000000E+00	-5.5394233968E+03	5.5394233968E+03	9.3827000000E-01	0.000E+00	0.0
	51	2	1	2	0	0	-4.1777464926E+01	-5.2201494882E+01	-5.4596950541E+02	1.1806443226E+03	1.0446855809E+03	0.000E+00	0.0
	1000022	2	5	5	0	0	4.1777464926E+01	5.2201494882E+01	-6.9456828688E+02	1.1015577606E+03	8.5236966286E+02	0.000E+00	0.0
	14	1	6	6	0	0	-1.2150370148E+02	-1.1294924185E+02	-5.8134183731E+02	6.8637017164E+02	3.2500000000E+02	0.000E+00	0.0
	-14	1	6	6	0	0	1.6328116641E+02	1.6515073674E+02	-1.1322644956E+02	4.1518758896E+02	3.2500000000E+02	0.000E+00	0.0
	25	2	5	5	0	0	-4.1777464926E+01	-5.2201494882E+01	1.8031488398E+01	1.4305864726E+02	1.2518102627E+02	0.000E+00	0.0
	-5	1	9	9	0	501	-8.4081690893E+01	-2.8986394855E+01	-5.5063998526E+00	8.9206135829E+01	4.1800000000E+00	0.000E+00	0.0
	5	1	9	9	501	0	4.2304225967E+01	-2.3215100028E+01	2.3537888251E+01	5.3852511429E+01	4.1800000000E+00	0.000E+00	0.0
</event>
<event>
    11  -1  1.0000000E+00  1.0000000E+00  -1.0000000E+00  -1.0000000E+00
	2212	-1	0	0	0	0	0.0000000000E+00	0.0000000000E+00	6.5000000000E+03	6.5000000000E+03	9.3827000000E-01	0.000E+00	0.0
	2212	-1	0	0	0	0	0.0000000000E+00	0.0000000000E+00	-6.5000000000E+03	6.5000000000E+03	9.3827000000E-01	0.000E+00	0.0
	2212	1	0	0	0	0	0.0000000000E+00	0.0000000000E+00	4.9975783086E+03	4.9975783086E+03	9.3827000000E-01	0.000E+00	0.0
	2212	1	0	0	0	0	0.0000000000E+00	0.0000000000E+00	-6.3141293383E+03	6.3141293383E+03	9.3827000000E-01	0.000E+00	0.0
	51	2	1	2	0	0	8.7860565153E+01	-8.3691372898E+01	1.3503889158E+03	1.7190981369E+03	1.0568937769E+03	0.000E+00	0.0
	1000022	2	5	5	0	0	-8.7860565153E+01	8.3691372898E+01	1.0734631637E+03	1.3891527690E+03	8.7332612866E+02	0.000E+00	0.0
	14	1	6	6	0	0	2.4350540734E+02	7.3402836650E+01	4.3344146526E+02	5.9848087992E+02	3.2500000000E+02	0.000E+00	0.0
	-14	1	6	6	0	0	-3.3136597249E+02	1.0288536249E+01	6.4002169839E+02	7.9067188904E+02	3.2500000000E+02	0.000E+00	0.0
	25	2	5	5	0	0	8.7860565153E+01	-8.3691372898E+01	2.4308786603E+02	2.9913958409E+02	1.2517609736E+02	0.000E+00	0.0
	-5	1	9	9	0	501	1.0988898291E+02	-7.3981246598E+01	2.4045663354E+02	2.7456452507E+02	4.1800000000E+00	0.000E+00	0.0
	5	1	9	9	501	0	-2.2028417753E+01	-9.7101262999E+00	2.6312324908E+00	2.4575059021E+01	4.1800000000E+00	0.000E+00	0.0
</event>
<event>
    11  -1  1.0000000E+00  1.0000000E+00  -1.0000000E+00  -1.0000000E+00
	2212	-1	0	0	0	0	0.0000000000E+00	0.0000000000E+00	6.5000000000E+03	6.5000000000E+03	9.3827000000E-01	0.000E+00	0.0
	2212	-1	0	0	0	0	0.0000000000E+00	0.0000000000E+00	-6.5000000000E+03	6.5000000000E+03	9.3827000000E-01	0.000E+00	0.0
	2212	1	0	0	0	0	0.0000000000E+00	0.0000000000E+00	5.7121345532E+03	5.7121345532E+03	9.3827000000E-01	0.000E+00	0.0
	2212	1	0	0	0	0	0.0000000000E+00	0.0000000000E+00	-6.1486424339E+03	6.1486424339E+03	9.3827000000E-01	0.000E+00	0.0
	51	2	1	2	0	0	1.0250272165E+02	-1.2164232812E+02	4.6406936089E+02	1.1610142026E+03	1.0522784532E+03	0.000E+00	0.0
	1000022	2	5	5	0	0	-1.0250272165E+02	1.2164232812E+02	3.2957889304E+02	9.1029400271E+02	8.3349220794E+02	0.000E+00	0.0
	14	1	6	6	0	0	-2.5626023979E+02	-9.8725741429E+01	1.3986653227E+02	4.4788807683E+02	3.2500000000E+02	0.000E+00	0.0
	-14	1	6	6	0	0	1.5375751813E+02	2.2036806955E+02	1.8971236076E+02	4.6240592588E+02	3.2500000000E+02	0.000E+00	0.0
	25	2	5	5	0	0	1.0250272165E+02	-1.2164232812E+02	1.0692898765E+02	2.2892901011E+02	1.2518394198E+02	0.000E+00	0.0
	-5	1	9	9	0	501	-1.2356024127E+01	-7.8472305707E+01	3.8570120250E+01	8.8406451526E+01	4.1800000000E+00	0.000E+00	0.0
	5	1	9	9	501	0	1.1485874578E+02	-4.3170022415E+01	6.8358867400E+01	1.4052255858E+02	4.1800000000E+00	0.000E+00	0.0
</event>
<event>
    11  -1  1.0000000E+00  1.0000000E+00  -1.0000000E+00  -1.0000000E+00
	2212	-1	0	0	0	0	0.0000000000E+00	0.0000000000E+00	6.5000000000E+03	6.5000000000E+03	9.3827000000E-01	0.000E+00	0.0
	2212	-1	0	0	0	0	0.0000000000E+00	0.0000000000E+00	-6.5000000000E+03	6.5000000000E+03	9.3827000000E-01	0.000E+00	0.0
	2212	1	0	0	0	0	0.0000000000E+00	0.0000000000E+00	5.9988725185E+03	5.9988725185E+03	9.3827000000E-01	0.000E+00	0.0
	2212	1	0	0	0	0	0.0000000000E+00	0.0000000000E+00	-5.9577896595E+03	5.9577896595E+03	9.3827000000E-01	0.000E+00	0.0
	51	2	1	2	0	0	-3.7295225490E+01	4.4957731573E+01	-1.6215072319E+02	1.0566792313E+03	1.0425286612E+03	0.000E+00	0.0
	1000022	2	5	5	0	0	3.7295225490E+01	-4.4957731573E+01	8.6873617662E+01	8.5505362188E+02	8.4862096331E+02	0.000E+00	0.0
	14	1	6	6	0	0	-9.3718295234E+01	-1.4495551354E+02	-1.7384071255E+02	4.0698994227E+02	3.2500000000E+02	0.000E+00	0.0
	-14	1	6	6	0	0	1.3101352072E+02	9.9997781970E+01	2.6071433021E+02	4.4806367961E+02	3.2500000000E+02	0.000E+00	0.0
	25	2	5	5	0	0	-3.7295225490E+01	4.4957731573E+01	-1.2795647670E+02	1.8828420008E+02	1.2516368721E+02	0.000E+00	0.0
	-5	1	9	9	0	501	2.4135739868E+01	2.5123953313E+01	-1.1766075526E+02	1.2278140209E+02	4.1800000000E+00	0.000E+00	0.0
	5	1	9	9	501	0	-6.1430965358E+01	1.9833778260E+01	-1.0295721439E+01	6.5502797993E+01	4.1800000000E+00	0.000E+00	0.0
</event>
<event>
    11  -1  1.0000000E+00  1.0000000E+00  -1.0000000E+00  -1.0000000E+00
	2212	-1	0	0	0	0	0.0000000000E+00	0.0000000000E+00	6.5000000000E+03	6.5000000000E+03	9.3827000000E-01	0.000E+00	0.0
	2212	-1	0	0	0	0	0.0000000000E+00	0.0000000000E+00	-6.5000000000E+03	6.5000000000E+03	9.3827000000E-01	0.000E+00	0.0
	2212	1	0	0	0	0	0.0000000000E+00	0.0000000000E+00	6.2000798981E+03	6.2000798981E+03	9.3827000000E-01	0.000E+00	0.0
	2212	1	0	0	0	0	0.0000000000E+00	0.0000000000E+00	-5.5829440157E+03	5.5829440157E+03	9.3827000000E-01	0.000E+00	0.0
	51	2	1	2	0	0	-1.2082678065E+02	-6.2433899033E+01	-6.6919789279E+02	1.2515977866E+03	1.0488918424E+03	0.000E+00	0.0
	1000022	2	5	5	0	0	1.2082678065E+02	6.2433899033E+01	-4.5940794537E+02	9.7398389649E+02	8.4799284648E+02	0.000E+00	0.0
	14	1	6	6	0	0	1.5853482653E+02	5.6112207179E+01	4.9169233890E+01	3.6922145736E+02	3.2500000000E+02	0.000E+00	0.0
	-14	1	6	6	0	0	-3.7708045884E+01	6.3216918541E+00	-5.0857717926E+02	6.0476243913E+02	3.2500000000E+02	0.000E+00	0.0
	25	2	5	5	0	0	-1.2082678065E+02	-6.2433899033E+01	-1.5772793700E+02	2.4299218973E+02	1.2517986854E+02	0.000E+00	0.0
	-5	1	9	9	0	501	-1.1026312956E+02	-2.3052661063E+01	-1.6650671595E+02	2.0107546290E+02	4.1800000000E+00	0.000E+00	0.0
	5	1	9	9	501	0	-1.0563651085E+01	-3.9381237969E+01	8.7787789510E+00	4.1916726830E+01	4.1800000000E+00	0.000E+00	0.0
</event>
<event>
    11  -1  1.0000000E+00  1.0000000E+00  -1.0000000E+00  -1.0000000E+00
	2212	-1	0	0	0	0	0.0000000000E+00	0.0000000000E+00	6.5000000000E+03	6.5000000000E+03	9.3827000000E-01	0.000E+00	0.0
	2212	-1	0	0	0	0	0.0000000000E+00	0.0000000000E+00	-6.5000000000E+03	6.5000000000E+03	9.3827000000E-01	0.000E+00	0.0
	2212	1	0	0	0	0	0.0000000000E+00	0.0000000000E+00	4.9730804950E+03	4.9730804950E+03	9.3827000000E-01	0.000E+00	0.0
	2212	1	0	0	0	0	0.0000000000E+00	0.0000000000E+00	-6.3218986780E+03	6.3218986780E+03	9.3827000000E-01	0.000E+00	0.0
	51	2	1	2	0	0	1.2603199596E+02	5.9230700429E+01	1.3310530475E+03	1.6967262847E+03	1.0429695728E+03	0.000E+00	0.0
	1000022	2	5	5	0	0	-1.2603199596E+02	-5.9230700429E+01	1.1354475855E+03	1.4211401574E+03	8.4321159135E+02	0.000E+00	0.0
	14	1	6	6	0	0	-2.9789564478E+02	2.6456743375E+00	3.9417074328E+02	5.9139190866E+02	3.2500000000E+02	0.000E+00	0.0
	-14	1	6	6	0	0	1.7186364882E+02	-6.1876374767E+01	7.4127684220E+02	8.2974824876E+02	3.2500000000E+02	0.000E+00	0.0
	25	2	5	5	0	0	1.2603199596E+02	5.9230700429E+01	2.1337059746E+02	2.8388066959E+02	1.2517540822E+02	0.000E+00	0.0
	-5	1	9	9	0	501	-2.0780074146E+01	-6.5773389837E+00	9.5027469704E+00	2.4142234147E+01	4.1800000000E+00	0.000E+00	0.0
	5	1	9	9	501	0	1.4681207011E+02	6.5808039413E+01	2.0386785049E+02	2.5973843544E+02	4.1800000000E+00	0.000E+00	0.0
</event>
<event>
    11  -1  1.0000000E+00  1.0000000E+00  -1.0000000E+00  -1.0000000E+00
	2212	-1	0	0	0	0	0.0000000000E+00	0.0000000000E+00	6.5000000000E+03	6.5000000000E+03	9.3827000000E-01	0.000E+00	0.0
	2212	-1	0	0	0	0	0.0000000000E+00	0.0000000000E+00	-6.5000000000E+03	6.5000000000E+03	9.3827000000E-01	0.000E+00	0.0
	2212	1	0	0	0	0	0.0000000000E+00	0.0000000000E+00	6.0569835948E+03	6.0569835948E+03	9.3827000000E-01	0.000E+00	0.0
	2212	1	0	0	0	0	0.0000000000E+00	0.0000000000E+00	-5.8811250972E+03	5.8811250972E+03	9.3827000000E-01	0.000E+00	0.0
	51	2	1	2	0	0	1.1377340354E+02	6.7409724457E+01	-1.4470269676E+02	1.0654174147E+03	1.0472282172E+03	0.000E+00	0.0
	1000022	2	5	5	0	0	-1.1377340354E+02	-6.7409724457E+01	-1.7744099414E+02	8.7979188668E+02	8.5150455029E+02	0.000E+00	0.0
	14	1	6	6	0	0	-3.0505213911E+02	3.6393399919E+01	-1.9584488553E+02	4.8822280398E+02	3.2500000000E+02	0.000E+00	0.0
	-14	1	6	6	0	0	1.9127873557E+02	-1.0380312438E+02	1.8403891387E+01	3.9156908270E+02	3.2500000000E+02	0.000E+00	0.0
	25	2	5	5	0	0	1.1377340354E+02	6.7409724457E+01	1.5824965242E+00	1.8209942134E+02	1.2517682155E+02	0.000E+00	0.0
	-5	1	9	9	0	501	5.8874478957E+01	7.4137579377E+01	5.1171893988E+01	1.0769688985E+02	4.1800000000E+00	0.000E+00	0.0
	5	1	9	9	501	0	5.4898924582E+01	-6.7278549202E+00	-4.9589397463E+01	7.4402531495E+01	4.1800000000E+00	0.000E+00	0.0
</event>
<event>
    11  -1  1.0000000E+00  1.0000000E+00  -1.0000000E+00  -1.0000000E+00
	2212	-1	0	0	0	0	0.0000000000E+00	0.0000000000E+00	6.5000000000E+03	6.5000000000E+03	9.3827000000E-01	0.000E+00	0.0
	2212	-1	0	0	0	0	0.0000000000E+00	0.0000000000E+00	-6.5000000000E+03	6.5000000000E+03	9.3827000000E-01	0.000E+00	0.0
	2212	1	0	0	0	0	0.0000000000E+00	0.0000000000E+00	5.4105097698E+03	5.4105097698E+03	9.3827000000E-01	0.000E+00	0.0
	2212	1	0	0	0	0	0.0000000000E+00	0.0000000000E+00	-6.2646924900E+03	6.2646924900E+03	9.3827000000E-01	0.000E+00	0.0
	51	2	1	2	0	0	9.9051824255E+01	-6.4464885982E+01	8.3901824501E+02	1.3203709834E+03	1.0126504495E+03	0.000E+00	0.0
	1000022	2	5	5	0	0	-9.9051824255E+01	6.4464885982E+01	7.2940083691E+02	1.1121741925E+03	8.3122732646E+02	0.000E+00	0.0
	14	1	6	6	0	0	-2.9869014239E+02	1.0976384185E+02	3.7383329105E+02	5.8876160849E+02	3.2500000000E+02	0.000E+00	0.0
	-14	1	6	6	0	0	1.9963831813E+02	-4.5298955865E+01	3.5556754585E+02	5.2341258404E+02	3.2500000000E+02	0.000E+00	0.0
	25	2	5	5	0	0	9.9051824255E+01	-6.4464885982E+01	1.2478188328E+02	2.1262354761E+02	1.2518493995E+02	0.000E+00	0.0
	-5	1	9	9	0	501	1.2501030311E+02	-6.8598905713E+01	8.9422298696E+01	1.6836628419E+02	4.1800000000E+00	0.000E+00	0.0
	5	1	9	9	501	0	-2.5958478853E+01	4.1340197316E+00	3.5359584583E+01	4.4257263419E+01	4.1800000000E+00	0.000E+00	0.0
</event>
<event>
    11  -1  1.0000000E+00  1.0000000E+00  -1.0000000E+00  -1.0000000E+00
	2212	-1	0	0	0	0	0.0000000000E+00	0.0000000000E+00	6.5000000000E+03	6.5000000000E+03	9.3827000000E-01	0.000E+00	0.0
	2212	-1	0	0	0	0	0.0000000000E+00	0.0000000000E+00	-6.5000000000E+03	6.5000000000E+03	9.3827000000E-01	0.000E+00	0.0
	2212	1	0	0	0	0	0.0000000000E+00	0.0000000000E+00	6.2663793612E+03	6.2663793612E+03	9.3827000000E-01	0.000E+00	0.0
	2212	1	0	0	0	0	0.0000000000E+00	0.0000000000E+00	-5.3396137405E+03	5.3396137405E+03	9.3827000000E-01	0.000E+00	0.0
	51	2	1	2	0	0	9.0318723831E+01	9.1040107624E+01	-9.9161333531E+02	1.4436424407E+03	1.0413264219E+03	0.000E+00	0.0
	1000022	2	5	5	0	0	-9.0318723831E+01	-9.1040107624E+01	-7.0573621368E+02	1.1094485753E+03	8.4638452538E+02	0.000E+00	0.0
	14	1	6	6	0	0	-1.9941820575E+02	-1.1922966904E+01	-6.4935639648E+02	7.5312582453E+02	3.2500000000E+02	0.000E+00	0.0
	-14	1	6	6	0	0	1.0909948192E+02	-7.9117140720E+01	-5.6379817205E+01	3.5632275074E+02	3.2500000000E+02	0.000E+00	0.0
	25	2	5	5	0	0	9.0318723831E+01	9.1040107624E+01	-2.2102940703E+02	2.8455832307E+02	1.2519451819E+02	0.000E+00	0.0
	-5	1	9	9	0	501	8.9330387163E+01	9.1206675056E+01	-2.3634331195E+02	2.6865258076E+02	4.1800000000E+00	0.000E+00	0.0
	5	1	9	9	501	0	9.8833666815E-01	-1.6656743260E-01	1.5313904928E+01	1.5905742304E+01	4.1800000000E+00	0.000E+00	0.0
</event>
<event>
    11  -1  1.0000000E+00  1.0000000E+00  -1.0000000E+00  -1.0000000E+00
	2212	-1	0	0	0	0	0.0000000000E+00	0.0000000000E+00	6.5000000000E+03	6.5000000000E+03	9.3827000000E-01	0.000E+00	0.0
	2212	-1	0	0	0	0	0.0000000000E+00	0.0000000000E+00	-6.5000000000E+03	6.5000000000E+03	9.3827000000E-01	0.000E+00	0.0
	2212	1	0	0	0	0	0.0000000000E+00	0.0000000000E+00	6.3102975626E+03	6.3102975626E+03	9.3827000000E-01	0.000E+00	0.0
	2212	1	0	0	0	0	0.0000000000E+00	0.0000000000E+00	-5.0226299901E+03	5.0226299901E+03	9.3827000000E-01	0.000E+00	0.0
	51	2	1	2	0	0	-2.7582094875E+01	-1.4317282609E+02	-1.0594899452E+03	1.5049322048E+03	1.0587930709E+03	0.000E+00	0.0
	1000022	2	5	5	0	0	2.7582094875E+01	1.4317282609E+02	-1.2371221591E+03	1.4683652850E+03	7.7740989414E+02	0.000E+00	0.0
	14	1	6	6	0	0	-1.7314050805E+02	1.2620954150E+02	-4.6251565543E+02	6.0452643897E+02	3.2500000000E+02	0.000E+00	0.0
	-14	1	6	6	0	0	2.0072260293E+02	1.6963284591E+01	-7.7460650364E+02	8.6383884599E+02	3.2500000000E+02	0.000E+00	0.0
	25	2	5	5	0	0	-2.7582094875E+01	-1.4317282609E+02	-5.0545413422E+01	1.9870716226E+02	1.2518173760E+02	0.000E+00	0.0
	-5	1	9	9	0	501	-7.6623784965E+01	-9.0805247233E+01	-4.3083662776E+01	1.2645343706E+02	4.1800000000E+00	0.000E+00	0.0
	5	1	9	9	501	0	4.9041690090E+01	-5.2367578854E+01	-7.4617506462E+00	7.2253725195E+01	4.1800000000E+00	0.000E+00	0.0
</event>
<event>
    11  -1  1.0000000E+00  1.0000000E+00  -1.0000000E+00  -1.0000000E+00
	2212	-1	0	0	0	0	0.0000000000E+00	0.0000000000E+00	6.5000000000E+03	6.5000000000E+03	9.3827000000E-01	0.000E+00	0.0
	2212	-1	0	0	0	0	0.0000000000E+00	0.0000000000E+00	-6.5000000000E+03	6.5000000000E+03	9.3827000000E-01	0.000E+00	0.0
	2212	1	0	0	0	0	0.0000000000E+00	0.0000000000E+00	5.9356536238E+03	5.9356536238E+03	9.3827000000E-01	0.000E+00	0.0
	2212	1	0	0	0	0	0.0000000000E+00	0.0000000000E+00	-6.0156776874E+03	6.0156776874E+03	9.3827000000E-01	0.000E+00	0.0
	51	2	1	2	0	0	-1.1261861796E+01	-6.1299399448E+01	2.0314169186E+02	1.0669832055E+03	1.0456109066E+03	0.000E+00	0.0
	1000022	2	5	5	0	0	1.1261861796E+01	6.1299399448E+01	-5.6616812473E+01	8.5313989559E+02	8.4897454148E+02	0.000E+00	0.0
	14	1	6	6	0	0	-1.9992245487E+02	-1.2442756026E+02	6.4775553618E+01	4.0653668723E+02	3.2500000000E+02	0.000E+00	0.0
	-14	1	6	6	0	0	2.1118431667E+02	1.8572695971E+02	-1.2139236609E+02	4.4660320836E+02	3.2500000000E+02	0.000E+00	0.0
	25	2	5	5	0	0	-1.1261861796E+01	-6.1299399448E+01	1.3664087606E+02	1.9552879318E+02	1.2520516781E+02	0.000E+00	0.0
	-5	1	9	9	0	501	1.4530808975E+01	2.3946402915E+01	9.1121177077E+01	9.5420731154E+01	4.1800000000E+00	0.000E+00	0.0
	5	1	9	9	501	0	-2.5792670771E+01	-8.5245802364E+01	4.5519698983E+01	1.0010806202E+02	4.1800000000E+00	0.000E+00	0.0
</event>
<event>
    11  -1  1.0000000E+00  1.0000000E+00  -1.0000000E+00  -1.0000000E+00
	2212	-1	0	0	0	0	0.0000000000E+00	0.0000000000E+00	6.5000000000E+03	6.5000000000E+03	9.3827000000E-01	0.000E+00	0.0
	2212	-1	0	0	0	0	0.0000000000E+00	0.0000000000E+00	-6.5000000000E+03	6.5000000000E+03	9.3827000000E-01	0.000E+00	0.0
	2212	1	0	0	0	0	0.0000000000E+00	0.0000000000E+00	5.1407684495E+03	5.1407684495E+03	9.3827000000E-01	0.000E+00	0.0
	2212	1	0	0	0	0	0.0000000000E+00	0.0000000000E+00	-6.2967871239E+03	6.2967871239E+03	9.3827000000E-01	0.000E+00	0.0
	51	2	1	2	0	0	-8.0085437897E+01	-3.7733893292E+01	1.0034373525E+03	1.4558768682E+03	1.0511200744E+03	0.000E+00	0.0
	1000022	2	5	5	0	0	8.0085437897E+01	3.7733893292E+01	1.1116541010E+03	1.4028250945E+03	8.5106162026E+02	0.000E+00	0.0
	14	1	6	6	0	0	-1.2105840412E+02	9.6522730360E+01	1.9834076479E+02	4.1101804542E+02	3.2500000000E+02	0.000E+00	0.0
	-14	1	6	6	0	0	2.0114384202E+02	-5.8788837067E+01	9.1331333620E+02	9.9180704909E+02	3.2500000000E+02	0.000E+00	0.0
	25	2	5	5	0	0	-8.0085437897E+01	-3.7733893292E+01	4.4364573391E+01	1.5961933215E+02	1.2519022229E+02	0.000E+00	0.0
	-5	1	9	9	0	501	-6.4049848913E+01	1.6046150003E+01	7.1267582068E+01	9.7244036987E+01	4.1800000000E+00	0.000E+00	0.0
	5	1	9	9	501	0	-1.6035588984E+01	-5.3780043295E+01	-2.6903008678E+01	6.2375295164E+01	4.1800000000E+00	0.000E+00	0.0
</event>
<event>
    11  -1  1.0000000E+00  1.0000000E+00  -1.0000000E+00  -1.0000000E+00
	2212	-1	0	0	0	0	0.0000000000E+00	0.0000000000E+00	6.5000000000E+03	6.5000000000E+03	9.3827000000E-01	0.000E+00	0.0
	2212	-1	0	0	0	0	0.0000000000E+00	0.0000000000E+00	-6.5000000000E+03	6.5000000000E+03	9.3827000000E-01	0.000E+00	0.0
	2212	1	0	0	0	0	0.0000000000E+00	0.0000000000E+00	4.8710188455E+03	4.8710188455E+03	9.3827000000E-01	0.000E+00	0.0
	2212	1	0	0	0	0	0.0000000000E+00	0.0000000000E+00	-6.3301237411E+03	6.3301237411E+03	9.3827000000E-01	0.000E+00	0.0
	51	2	1	2	0	0	1.1661655005E+02	-1.7536360158E+01	1.5243076682E+03	1.8558883879E+03	1.0520935782E+03	0.000E+00	0.0
	1000022	2	5	5	0	0	-1.1661655005E+02	1.7536360158E+01	1.1610182551E+03	1.4547155714E+03	8.6852004092E+02	0.000E+00	0.0
	14	1	6	6	0	0	1.5657321731E+02	-4.5806415494E+01	2.3208821640E+02	4.3139696368E+02	3.2500000000E+02	0.000E+00	0.0
	-14	1	6	6	0	0	-2.7318976736E+02	6.3342775652E+01	9.2893003869E+02	1.0233186078E+03	3.2500000000E+02	0.000E+00	0.0
	25	2	5	5	0	0	1.1661655005E+02	-1.7536360158E+01	2.9808664051E+02	3.4414184192E+02	1.2518393843E+02	0.000E+00	0.0
	-5	1	9	9	0	501	-1.0567027262E+01	-4.0316486314E+01	8.8126383794E+01	9.7574653750E+01	4.1800000000E+00	0.000E+00	0.0
	5	1	9	9	501	0	1.2718357731E+02	2.2780126156E+01	2.0996025671E+02	2.4656718817E+02	4.1800000000E+00	0.000E+00	0.0
</event>
<event>
    11  -1  1.0000000E+00  1.0000000E+00  -1.0000000E+00  -1.0000000E+00
	2212	-1	0	0	0	0	0.0000000000E+00	0.0000000000E+00	6.5000000000E+03	6.5000000000E+03	9.3827000000E-01	0.000E+00	0.0
	2212	-1	0	0	0	0	0.0000000000E+00	0.0000000000E+00	-6.5000000000E+03	6.5000000000E+03	9.3827000000E-01	0.000E+00	0.0
	2212	1	0	0	0	0	0.0000000000E+00	0.0000000000E+00	6.2991872191E+03	6.2991872191E+03	9.3827000000E-01	0.000E+00	0.0
	2212	1	0	0	0	0	0.0000000000E+00	0.0000000000E+00	-5.1340772866E+03	5.1340772866E+03	9.3827000000E-01	0.000E+00	0.0
	51	2	1	2	0	0	7.6516158928E+01	-1.1279666879E+02	-1.1840607246E+03	1.5867440137E+03	1.0474631041E+03	0.000E+00	0.0
	1000022	2	5	5	0	0	-7.6516158928E+01	1.1279666879E+02	-9.5004431320E+02	1.2830093188E+03	8.5144048764E+02	0.000E+00	0.0
	14	1	6	6	0	0	2.2952613002E+02	-2.1171323923E+00	-3.8341214573E+02	5.5255461278E+02	3.2500000000E+02	0.000E+00	0.0
	-14	1	6	6	0	0	-3.0604228895E+02	1.1491380119E+02	-5.6663216747E+02	7.3045470601E+02	3.2500000000E+02	0.000E+00	0.0
	25	2	5	5	0	0	7.6516158928E+01	-1.1279666879E+02	-2.1506561922E+02	2.8372617553E+02	1.2517791754E+02	0.000E+00	0.0
	-5	1	9	9	0	501	7.5882091072E+01	-2.9138206095E+01	-1.7029800466E+02	1.8874853533E+02	4.1800000000E+00	0.000E+00	0.0
	5	1	9	9	501	0	6.3406785635E-01	-8.3658462699E+01	-4.4767614565E+01	9.4977640195E+01	4.1800000000E+00	0.000E+00	0.0
</event>
<event>
    11  -1  1.0000000E+00  1.0000000E+00  -1.0000000E+00  -1.0000000E+00
	2212	-1	0	0	0	0	0.0000000000E+00	0.0000000000E+00	6.5000000000E+03	6.5000000000E+03	9.3827000000E-01	0.000E+00	0.0
	2212	-1	0	0	0	0	0.0000000000E+00	0.0000000000E+00	-6.5000000000E+03	6.5000000000E+03	9.3827000000E-01	0.000E+00	0.0
	2212	1	0	0	0	0	0.0000000000E+00	0.0000000000E+00	5.8140745081E+03	5.8140745081E+03	9.3827000000E-01	0.000E+00	0.0
	2212	1	0	0	0	0	0.0000000000E+00	0.0000000000E+00	-6.1008593358E+03	6.1008593358E+03	9.3827000000E-01	0.000E+00	0.0
	51	2	1	2	0	0	4.3165048683E+01	9.7568394723E+01	3.7426355923E+02	1.1165030454E+03	1.0464812591E+03	0.000E+00	0.0
	1000022	2	5	5	0	0	-4.3165048683E+01	-9.7568394723E+01	1.5166435102E+02	8.7337410568E+02	8.5346203197E+02	0.000E+00	0.0
	14	1	6	6	0	0	-1.8642279626E+02	-5.8511426787E+01	3.0293632412E+02	4.8535807658E+02	3.2500000000E+02	0.000E+00	0.0
	-14	1	6	6	0	0	1.4325774758E+02	-3.9056967936E+01	-1.5127197310E+02	3.8801602909E+02	3.2500000000E+02	0.000E+00	0.0
	25	2	5	5	0	0	4.3165048683E+01	9.7568394723E+01	1.3512047669E+02	2.1169205039E+02	1.2317941346E+02	0.000E+00	0.0
	-5	1	9	9	0	501	7.7503613763E+01	1.0070667089E+02	1.1563869047E+02	1.7186745719E+02	4.1800000000E+00	0.000E+00	0.0
	5	1	9	9	501	0	-3.4338565080E+01	-3.1382761668E+00	1.9481786214E+01	3.9824593195E+01	4.1800000000E+00	0.000E+00	0.0
</event>
<event>
    11  -1  1.0000000E+00  1.0000000E+00  -1.0000000E+00  -1.0000000E+00
	2212	-1	0	0	0	0	0.0000000000E+00	0.0000000000E+00	6.5000000000E+03	6.5000000000E+03	9.3827000000E-01	0.000E+00	0.0
	2212	-1	0	0	0	0	0.0000000000E+00	0.0000000000E+00	-6.5000000000E+03	6.5000000000E+03	9.3827000000E-01	0.000E+00	0.0
	2212	1	0	0	0	0	0.0000000000E+00	0.0000000000E+00	5.8828391242E+03	5.8828391242E+03	9.3827000000E-01	0.000E+00	0.0
	2212	1	0	0	0	0	0.0000000000E+00	0.0000000000E+00	-6.0518594193E+03	6.0518594193E+03	9.3827000000E-01	0.000E+00	0.0
	51	2	1	2	0	0	-9.4666472831E+01	-2.3787445863E+01	2.7320650821E+02	1.0910860245E+03	1.0518076502E+03	0.000E+00	0.0
	1000022	2	5	5	0	0	9.4666472831E+01	2.3787445863E+01	3.6075907073E+01	8.5825980521E+02	8.5192771906E+02	0.000E+00	0.0
	14	1	6	6	0	0	-1.0483532298E+02	-1.7473232689E+02	1.5257937939E+02	4.1282841232E+02	3.2500000000E+02	0.000E+00	0.0
	-14	1	6	6	0	0	1.9950179581E+02	1.9851977275E+02	-1.1650347232E+02	4.4543139289E+02	3.2500000000E+02	0.000E+00	0.0
	25	2	5	5	0	0	-9.4666472831E+01	-2.3787445863E+01	1.3294438807E+02	2.0704165129E+02	1.2515770607E+02	0.000E+00	0.0
	-5	1	9	9	0	501	-4.0446734796E+01	-1.4318697176E+01	1.4437326362E+02	1.5067207802E+02	4.1800000000E+00	0.000E+00	0.0
	5	1	9	9	501	0	-5.4219738035E+01	-9.4687486865E+00	-1.1428875553E+01	5.6369573271E+01	4.1800000000E+00	0.000E+00	0.0
</event>
<event>
    11  -1  1.0000000E+00  1.0000000E+00  -1.0000000E+00  -1.0000000E+00
	2212	-1	0	0	0	0	0.0000000000E+00	0.0000000000E+00	6.5000000000E+03	6.5000000000E+03	9.3827000000E-01	0.000E+00	0.0
	2212	-1	0	0	0	0	0.0000000000E+00	0.0000000000E+00	-6.5000000000E+03	6.5000000000E+03	9.3827000000E-01	0.000E+00	0.0
	2212	1	0	0	0	0	0.0000000000E+00	0.0000000000E+00	5.6049160091E+03	5.6049160091E+03	9.3827000000E-01	0.000E+00	0.0
	2212	1	0	0	0	0	0.0000000000E+00	0.0000000000E+00	-6.1923503606E+03	6.1923503606E+03	9.3827000000E-01	0.000E+00	0.0
	51	2	1	2	0	0	3.7099930207E+01	3.3594806877E+01	4.7055468562E+02	1.1512670395E+03	1.0495184935E+03	0.000E+00	0.0
	1000022	2	5	5	0	0	-3.7099930207E+01	-3.3594806877E+01	6.1222591567E+02	1.0656558221E+03	8.7080235617E+02	0.000E+00	0.0
	14	1	6	6	0	0	-1.7877535188E+02	1.0300668549E+02	5.1589209748E+01	3.8840372071E+02	3.2500000000E+02	0.000E+00	0.0
	-14	1	6	6	0	0	1.4167542168E+02	-1.3660149236E+02	5.6063670593E+02	6.7725210140E+02	3.2500000000E+02	0.000E+00	0.0
	25	2	5	5	0	0	3.7099930207E+01	3.3594806877E+01	-2.4791564230E+01	1.3707780818E+02	1.2518261847E+02	0.000E+00	0.0
	-5	1	9	9	0	501	-2.9154627042E+01	-2.6297397748E+01	-2.6669946396E+01	4.7647705580E+01	4.1800000000E+00	0.000E+00	0.0
	5	1	9	9	501	0	6.6254557248E+01	5.9892204625E+01	1.8783821660E+00	8.9430102597E+01	4.1800000000E+00	0.000E+00	0.0
</event>
<event>
    11  -1  1.0000000E+00  1.0000000E+00  -1.0000000E+00  -1.0000000E+00
	2212	-1	0	0	0	0	0.0000000000E+00	0.0000000000E+00	6.5000000000E+03	6.5000000000E+03	9.3827000000E-01	0.000E+00	0.0
	2212	-1	0	0	0	0	0.0000000000E+00	0.0000000000E+00	-6.5000000000E+03	6.5000000000E+03	9.3827000000E-01	0.000E+00	0.0
	2212	1	0	0	0	0	0.0000000000E+00	0.0000000000E+00	5.8893394451E+03	5.8893394451E+03	9.3827000000E-01	0.000E+00	0.0
	2212	1	0	0	0	0	0.0000000000E+00	0.0000000000E+00	-6.0498383622E+03	6.0498383622E+03	9.3827000000E-01	0.000E+00	0.0
	51	2	1	2	0	0	3.6089665161E+01	1.2771878117E+02	1.4629940077E+02	1.0670528982E+03	1.0486104243E+03	0.000E+00	0.0
	1000022	2	5	5	0	0	-3.6089665161E+01	-1.2771878117E+02	1.4797230640E+02	8.7794438436E+02	8.5514676376E+02	0.000E+00	0.0
	14	1	6	6	0	0	-2.0537794199E+02	-4.8658748038E+00	2.7320740977E+02	4.7166838409E+02	3.2500000000E+02	0.000E+00	0.0
	-14	1	6	6	0	0	1.6928827683E+02	-1.2285290637E+02	-1.2523510338E+02	4.0627600027E+02	3.2500000000E+02	0.000E+00	0.0
	25	2	5	5	0	0	3.6089665161E+01	1.2771878117E+02	1.2526610705E+01	1.8287780827E+02	1.2519115698E+02	0.000E+00	0.0
	-5	1	9	9	0	501	7.1240844857E+01	1.1305912462E+02	3.5335246481E+01	1.3828837869E+02	4.1800000000E+00	0.000E+00	0.0
	5	1	9	9	501	0	-3.5151179696E+01	1.4659656550E+01	-2.2808635776E+01	4.4589429578E+01	4.1800000000E+00	0.000E+00	0.0
</event>
<event>
    11  -1  1.0000000E+00  1.0000000E+00  -1.0000000E+00  -1.0000000E+00
	2212	-1	0	0	0	0	0.0000000000E+00	0.0000000000E+00	6.5000000000E+03	6.5000000000E+03	9.3827000000E-01	0.000E+00	0.0
	2212	-1	0	0	0	0	0.0000000000E+00	0.0000000000E+00	-6.5000000000E+03	6.5000000000E+03	9.3827000000E-01	0.000E+00	0.0
	2212	1	0	0	0	0	0.0000000000E+00	0.0000000000E+00	5.9901612817E+03	5.9901612817E+03	9.3827000000E-01	0.000E+00	0.0
	2212	1	0	0	0	0	0.0000000000E+00	0.0000000000E+00	-5.9579481302E+03	5.9579481302E+03	9.3827000000E-01	0.000E+00	0.0
	51	2	1	2	0	0	-6.3934250332E+01	8.8408057968E+01	-1.2153336583E+02	1.0640066044E+03	1.0513972238E+03	0.000E+00	0.0
	1000022	2	5	5	0	0	6.3934250332E+01	-8.8408057968E+01	6.2591648719E+01	8.6068050869E+02	8.5143975152E+02	0.000E+00	0.0
	14	1	6	6	0	0	9.1252500464E+01	-3.1186538447E+02	7.2173830628E+01	4.6521081103E+02	3.2500000000E+02	0.000E+00	0.0
	-14	1	6	6	0	0	-2.7318250132E+01	2.2345732650E+02	-9.5821819091E+00	3.9546969766E+02	3.2500000000E+02	0.000E+00	0.0
	25	2	5	5	0	0	-6.3934250332E+01	8.8408057968E+01	-9.4804800174E+01	1.9121007937E+02	1.2517895685E+02	0.000E+00	0.0
	-5	1	9	9	0	501	-9.4992406108E+01	3.6448970252E+01	-3.9867986529E+01	1.0935727411E+02	4.1800000000E+00	0.000E+00	0.0
	5	1	9	9	501	0	3.1058155776E+01	5.1959087716E+01	-5.4936813645E+01	8.1852805266E+01	4.1800000000E+00	0.000E+00	0.0
</event>
<event>
    11  -1  1.0000000E+00  1.0000000E+00  -1.0000000E+00  -1.0000000E+00
	2212	-1	0	0	0	0	0.0000000000E+00	0.0000000000E+00	6.5000000000E+03	6.5000000000E+03	9.3827000000E-01	0.000E+00	0.0
	2212	-1	0	0	0	0	0.0000000000E+00	0.0000000000E+00	-6.5000000000E+03	6.5000000000E+03	9.3827000000E-01	0.000E+00	0.0
	2212	1	0	0	0	0	0.0000000000E+00	0.0000000000E+00	5.2458598184E+03	5.2458598184E+03	9.3827000000E-01	0.000E+00	0.0
	2212	1	0	0	0	0	0.0000000000E+00	0.0000000000E+00	-6.2815419006E+03	6.2815419006E+03	9.3827000000E-01	0.000E+00	0.0
	51	2	1	2	0	0	1.2229732715E+02	-3.3828006410E+01	1.0386361978E+03	1.4801264957E+03	1.0468563997E+03	0.000E+00	0.0
	1000022	2	5	5	0	0	-1.2229732715E+02	3.3828006410E+01	8.6341575450E+02	1.2243312558E+03	8.5871956336E+02	0.000E+00	0.0
	14	1	6	6	0	0	1.1875616555E+02	-1.7424010293E+02	5.4630656349E+02	6.6973017077E+02	3.2500000000E+02	0.000E+00	0.0
	-14	1	6	6	0	0	-2.4105349270E+02	2.0806810934E+02	3.1710919101E+02	5.5460108501E+02	3.2500000000E+02	0.000E+00	0.0
	25	2	5	5	0	0	1.2229732715E+02	-3.3828006410E+01	1.7226632768E+02	2.4826702516E+02	1.2593592769E+02	0.000E+00	0.0
	-5	1	9	9	0	501	4.7289862335E+01	-8.9795839005E-01	-9.8838268767E+00	4.8500513839E+01	4.1800000000E+00	0.000E+00	0.0
	5	1	9	9	501	0	7.5007464815E+01	-3.2930048020E+01	1.8215015455E+02	1.9976651132E+02	4.1800000000E+00	0.000E+00	0.0
</event>
<event>
    11  -1  1.0000000E+00  1.0000000E+00  -1.0000000E+00  -1.0000000E+00
	2212	-1	0	0	0	0	0.0000000000E+00	0.0000000000E+00	6.5000000000E+03	6.5000000000E+03	9.3827000000E-01	0.000E+00	0.0
	2212	-1	0	0	0	0	0.0000000000E+00	0.0000000000E+00	-6.5000000000E+03	6.5000000000E+03	9.3827000000E-01	0.000E+00	0.0
	2212	1	0	0	0	0	0.0000000000E+00	0.0000000000E+00	5.9412028154E+03	5.9412028154E+03	9.3827000000E-01	0.000E+00	0.0
	2212	1	0	0	0	0	0.0000000000E+00	0.0000000000E+00	-6.0080710014E+03	6.0080710014E+03	9.3827000000E-01	0.000E+00	0.0
	51	2	1	2	0	0	1.1915592601E+02	-8.2927999172E+00	1.2419060966E+02	1.0626591036E+03	1.0485962797E+03	0.000E+00	0.0
	1000022	2	5	5	0	0	-1.1915592601E+02	8.2927999172E+00	-1.5351265745E+00	8.6467488447E+02	8.5638390572E+02	0.000E+00	0.0
	14	1	6	6	0	0	-9.2866389036E+01	-2.3292908726E+02	1.4211240658E+02	4.3439735497E+02	3.2500000000E+02	0.000E+00	0.0
	-14	1	6	6	0	0	-2.6289536970E+01	2.4122188717E+02	-1.4364753315E+02	4.3027752949E+02	3.2500000000E+02	0.000E+00	0.0
	25	2	5	5	0	0	1.1915592601E+02	-8.2927999172E+00	6.8403312572E+01	1.8605129875E+02	1.2517654478E+02	0.000E+00	0.0
	-5	1	9	9	0	501	1.2512666990E+02	2.2040835005E+01	8.2782463799E+01	1.5170000212E+02	4.1800000000E+00	0.000E+00	0.0
	5	1	9	9	501	0	-5.9707438990E+00	-3.0333634922E+01	-1.4379151227E+01	3.4351296632E+01	4.1800000000E+00	0.000E+00	0.0
</event>
<event>
    11  -1  1.0000000E+00  1.0000000E+00  -1.0000000E+00  -1.0000000E+00
	2212	-1	0	0	0	0	0.0000000000E+00	0.0000000000E+00	6.5000000000E+03	6.5000000000E+03	9.3827000000E-01	0.000E+00	0.0
	2212	-1	0	0	0	0	0.0000000000E+00	0.0000000000E+00	-6.5000000000E+03	6.5000000000E+03	9.3827000000E-01	0.000E+00	0.0
	2212	1	0	0	0	0	0.0000000000E+00	0.0000000000E+00	6.2885612341E+03	6.2885612341E+03	9.3827000000E-01	0.000E+00	0.0
	2212	1	0	0	0	0	0.0000000000E+00	0.0000000000E+00	-5.1979233715E+03	5.1979233715E+03	9.3827000000E-01	0.000E+00	0.0
	51	2	1	2	0	0	1.0817516737E+02	-8.1381832214E+01	-1.0968275029E+03	1.5240056896E+03	1.0493988286E+03	0.000E+00	0.0
	1000022	2	5	5	0	0	-1.0817516737E+02	8.1381832214E+01	-9.0185327982E+02	1.2496318638E+03	8.5435097421E+02	0.000E+00	0.0
	14	1	6	6	0	0	1.4742002936E+02	-1.3665701739E+02	-5.2418148201E+02	6.4869024314E+02	3.2500000000E+02	0.000E+00	0.0
	-14	1	6	6	0	0	-2.5559519673E+02	2.1803884960E+02	-3.7767179781E+02	6.0094162061E+02	3.2500000000E+02	0.000E+00	0.0
	25	2	5	5	0	0	1.0817516737E+02	-8.1381832214E+01	-1.8878458286E+02	2.6388353065E+02	1.2517998870E+02	0.000E+00	0.0
	-5	1	9	9	0	501	4.2376969190E+01	1.2841145234E+01	-1.2434607481E+02	1.3206105122E+02	4.1800000000E+00	0.000E+00	0.0
	5	1	9	9	501	0	6.5798198178E+01	-9.4222977448E+01	-6.4438508049E+01	1.3182247943E+02	4.1800000000E+00	0.000E+00	0.0
</event>
<event>
    11  -1  1.0000000E+00  1.0000000E+00  -1.0000000E+00  -1.0000000E+00
	2212	-1	0	0	0	0	0.0000000000E+00	0.0000000000E+00	6.5000000000E+03	6.5000000000E+03	9.3827000000E-01	0.000E+00	0.0
	2212	-1	0	0	0	0	0.0000000000E+00	0.0000000000E+00	-6.5000000000E+03	6.5000000000E+03	9.3827000000E-01	0.000E+00	0.0
	2212	1	0	0	0	0	0.0000000000E+00	0.0000000000E+00	6.3092064031E+03	6.3092064031E+03	9.3827000000E-01	0.000E+00	0.0
	2212	1	0	0	0	0	0.0000000000E+00	0.0000000000E+00	-5.0495682725E+03	5.0495682725E+03	9.3827000000E-01	0.000E+00	0.0
	51	2	1	2	0	0	-1.0001432429E+01	-1.0259469022E+02	-1.4383333810E+03	1.7850380834E+03	1.0521085235E+03	0.000E+00	0.0
	1000022	2	5	5	0	0	1.0001432429E+01	1.0259469022E+02	-8.6106617696E+02	1.2109277369E+03	8.4515402367E+02	0.000E+00	0.0
	14	1	6	6	0	0	-2.5984111566E+02	8.5272250490E+01	-3.7372343186E+02	5.6575875213E+02	3.2500000000E+02	0.000E+00	0.0
	-14	1	6	6	0	0	2.6984254809E+02	1.7322439732E+01	-4.8734274510E+02	6.4516898475E+02	3.2500000000E+02	0.000E+00	0.0
	25	2	5	5	0	0	-1.0001432429E+01	-1.0259469022E+02	-3.9857195370E+02	4.3029758751E+02	1.2518271614E+02	0.000E+00	0.0
	-5	1	9	9	0	501	-2.8583474686E+01	-4.8732997971E+00	-1.2949286574E+01	3.2029993738E+01	4.1800000000E+00	0.000E+00	0.0
	5	1	9	9	501	0	1.8582042258E+01	-9.7721390425E+01	-3.8562266713E+02	3.9826759377E+02	4.1800000000E+00	0.000E+00	0.0
</event>
<event>
    11  -1  1.0000000E+00  1.0000000E+00  -1.0000000E+00  -1.0000000E+00
	2212	-1	0	0	0	0	0.0000000000E+00	0.0000000000E+00	6.5000000000E+03	6.5000000000E+03	9.3827000000E-01	0.000E+00	0.0
	2212	-1	0	0	0	0	0.0000000000E+00	0.0000000000E+00	-6.5000000000E+03	6.5000000000E+03	9.3827000000E-01	0.000E+00	0.0
	2212	1	0	0	0	0	0.0000000000E+00	0.0000000000E+00	6.0686464586E+03	6.0686464586E+03	9.3827000000E-01	0.000E+00	0.0
	2212	1	0	0	0	0	0.0000000000E+00	0.0000000000E+00	-5.8356207886E+03	5.8356207886E+03	9.3827000000E-01	0.000E+00	0.0
	51	2	1	2	0	0	1.0148308122E+02	1.3329458244E+02	-1.7786828947E+02	1.0981951978E+03	1.0706676901E+03	0.000E+00	0.0
	1000022	2	5	5	0	0	-1.0148308122E+02	-1.3329458244E+02	-2.4415741810E+02	8.8625308292E+02	8.3532354252E+02	0.000E+00	0.0
	14	1	6	6	0	0	1.1842266292E+02	-2.5578651685E+02	-1.9468570908E+02	4.7220566982E+02	3.2500000000E+02	0.000E+00	0.0
	-14	1	6	6	0	0	-2.1990574414E+02	1.2249193440E+02	-4.9471709023E+01	4.1404741310E+02	3.2500000000E+02	0.000E+00	0.0
	25	2	5	5	0	0	1.0148308122E+02	1.3329458244E+02	1.1131748051E+01	2.0947966987E+02	1.2526593628E+02	0.000E+00	0.0
	-5	1	9	9	0	501	1.2762176456E+02	8.7062247808E+01	-2.2023074728E+00	1.5456219570E+02	4.1800000000E+00	0.000E+00	0.0
	5	1	9	9	501	0	-2.6138683338E+01	4.6232334636E+01	1.3334055524E+01	5.4917474170E+01	4.1800000000E+00	0.000E+00	0.0
</event>
<event>
    11  -1  1.0000000E+00  1.0000000E+00  -1.0000000E+00  -1.0000000E+00
	2212	-1	0	0	0	0	0.0000000000E+00	0.0000000000E+00	6.5000000000E+03	6.5000000000E+03	9.3827000000E-01	0.000E+00	0.0
	2212	-1	0	0	0	0	0.0000000000E+00	0.0000000000E+00	-6.5000000000E+03	6.5000000000E+03	9.3827000000E-01	0.000E+00	0.0
	2212	1	0	0	0	0	0.0000000000E+00	0.0000000000E+00	5.5811217352E+03	5.5811217352E+03	9.3827000000E-01	0.000E+00	0.0
	2212	1	0	0	0	0	0.0000000000E+00	0.0000000000E+00	-6.2011018320E+03	6.2011018320E+03	9.3827000000E-01	0.000E+00	0.0
	51	2	1	2	0	0	1.3704485308E+00	1.9307120226E+02	6.8103307605E+02	1.2647879419E+03	1.0481431772E+03	0.000E+00	0.0
	1000022	2	5	5	0	0	-1.3704485308E+00	-1.9307120226E+02	4.3139904591E+02	9.2027191444E+02	7.8963085832E+02	0.000E+00	0.0
	14	1	6	6	0	0	-8.6325912766E+01	1.1652681531E+02	1.9842912200E+02	4.0746751816E+02	3.2500000000E+02	0.000E+00	0.0
	-14	1	6	6	0	0	8.4955464235E+01	-3.0959801757E+02	2.3296992392E+02	5.1280439627E+02	3.2500000000E+02	0.000E+00	0.0
	25	2	5	5	0	0	1.3704485308E+00	1.9307120226E+02	1.8858105091E+02	2.9750451840E+02	1.2517091690E+02	0.000E+00	0.0
	-5	1	9	9	0	501	3.8537370896E+01	6.2003859782E+00	3.7753087818E+01	5.4464132983E+01	4.1800000000E+00	0.000E+00	0.0
	5	1	9	9	501	0	-3.7166922365E+01	1.8687081628E+02	1.5082796309E+02	2.4304038542E+02	4.1800000000E+00	0.000E+00	0.0
</event>
<event>
    11  -1  1.0000000E+00  1.0000000E+00  -1.0000000E+00  -1.0000000E+00
	2212	-1	0	0	0	0	0.0000000000E+00	0.0000000000E+00	6.5000000000E+03	6.5000000000E+03	9.3827000000E-01	0.000E+00	0.0
	2212	-1	0	0	0	0	0.0000000000E+00	0.0000000000E+00	-6.5000000000E+03	6.5000000000E+03	9.3827000000E-01	0.000E+00	0.0
	2212	1	0	0	0	0	0.0000000000E+00	0.0000000000E+00	6.0716472908E+03	6.0716472908E+03	9.3827000000E-01	0.000E+00	0.0
	2212	1	0	0	0	0	0.0000000000E+00	0.0000000000E+00	-5.8581409498E+03	5.8581409498E+03	9.3827000000E-01	0.000E+00	0.0
	51	2	1	2	0	0	-6.2027441747E+01	-3.5343436794E+01	-3.3077284084E+02	1.1019416893E+03	1.0486983610E+03	0.000E+00	0.0
	1000022	2	5	5	0	0	6.2027441747E+01	3.5343436794E+01	-6.0661358580E+01	8.6014281523E+02	8.5502590611E+02	0.000E+00	0.0
	14	1	6	6	0	0	1.8611109684E+02	5.7112252507E+01	1.9669762617E+02	4.2686544237E+02	3.2500000000E+02	0.000E+00	0.0
	-14	1	6	6	0	0	-1.2408365509E+02	-2.1768815713E+01	-2.5735898475E+02	4.3327737286E+02	3.2500000000E+02	0.000E+00	0.0
	25	2	5	5	0	0	-6.2027441747E+01	-3.5343436794E+01	-1.5284498240E+02	2.1006894419E+02	1.2518310834E+02	0.000E+00	0.0
	-5	1	9	9	0	501	-4.1217326630E+01	-1.6875039280E+01	9.1405917128E+00	4.5658052763E+01	4.1800000000E+00	0.000E+00	0.0
	5	1	9	9	501	0	-2.0810115116E+01	-1.8468397513E+01	-1.6198557411E+02	1.6441089142E+02	4.1800000000E+00	0.000E+00	0.0
</event>
<event>
    11  -1  1.0000000E+00  1.0000000E+00  -1.0000000E+00  -1.0000000E+00
	2212	-1	0	0	0	0	0.0000000000E+00	0.0000000000E+00	6.5000000000E+03	6.5000000000E+03	9.3827000000E-01	0.000E+00	0.0
	2212	-1	0	0	0	0	0.0000000000E+00	0.0000000000E+00	-6.5000000000E+03	6.5000000000E+03	9.3827000000E-01	0.000E+00	0.0
	2212	1	0	0	0	0	0.0000000000E+00	0.0000000000E+00	5.3089395640E+03	5.3089395640E+03	9.3827000000E-01	0.000E+00	0.0
	2212	1	0	0	0	0	0.0000000000E+00	0.0000000000E+00	-6.2744586346E+03	6.2744586346E+03	9.3827000000E-01	0.000E+00	0.0
	51	2	1	2	0	0	-1.9011421849E+01	-5.0234300437E+01	8.2539444493E+02	1.3261577948E+03	1.0365971194E+03	0.000E+00	0.0
	1000022	2	5	5	0	0	1.9011421849E+01	5.0234300437E+01	9.5060313570E+02	1.2795715466E+03	8.5485209367E+02	0.000E+00	0.0
	14	1	6	6	0	0	-1.2684276456E+02	2.6239842104E+02	4.1584724794E+02	6.0290625466E+02	3.2500000000E+02	0.000E+00	0.0
	-14	1	6	6	0	0	1.4585418641E+02	-2.1216412060E+02	5.3475588777E+02	6.7666529190E+02	3.2500000000E+02	0.000E+00	0.0
	25	2	5	5	0	0	-1.9011421849E+01	-5.0234300437E+01	1.4915934922E+01	1.3703025484E+02	1.2517941734E+02	0.000E+00	0.0
	-5	1	9	9	0	501	1.1621708448E+01	1.5005195574E+00	-4.8188714825E+01	4.9768868810E+01	4.1800000000E+00	0.000E+00	0.0
	5	1	9	9	501	0	-3.0633130297E+01	-5.1734819994E+01	6.3104649747E+01	8.7261386027E+01	4.1800000000E+00	0.000E+00	0.0
</event>
<event>
    11  -1  1.0000000E+00  1.0000000E+00  -1.0000000E+00  -1.0000000E+00
	2212	-1	0	0	0	0	0.0000000000E+00	0.0000000000E+00	6.5000000000E+03	6.5000000000E+03	9.3827000000E-01	0.000E+00	0.0
	2212	-1	0	0	0	0	0.0000000000E+00	0.0000000000E+00	-6.5000000000E+03	6.5000000000E+03	9.3827000000E-01	0.000E+00	0.0
	2212	1	0	0	0	0	0.0000000000E+00	0.0000000000E+00	5.4357161459E+03	5.4357161459E+03	9.3827000000E-01	0.000E+00	0.0
	2212	1	0	0	0	0	0.0000000000E+00	0.0000000000E+00	-6.2376803693E+03	6.2376803693E+03	9.3827000000E-01	0.000E+00	0.0
	51	2	1	2	0	0	-3.4661755596E+01	-7.4320198479E+01	9.5036125010E+02	1.4236016386E+03	1.0567545555E+03	0.000E+00	0.0
	1000022	2	5	5	0	0	3.4661755596E+01	7.4320198479E+01	5.1834479893E+02	1.0059214076E+03	8.5817924607E+02	0.000E+00	0.0
	14	1	6	6	0	0	-2.1904170417E+02	1.0102608075E+02	4.1572502060E+02	5.8020498956E+02	3.2500000000E+02	0.000E+00	0.0
	-14	1	6	6	0	0	2.5370345976E+02	-2.6705882274E+01	1.0261977833E+02	4.2571641799E+02	3.2500000000E+02	0.000E+00	0.0
	25	2	5	5	0	0	-3.4661755596E+01	-7.4320198479E+01	2.8361942445E+02	3.2068207732E+02	1.2518820863E+02	0.000E+00	0.0
	-5	1	9	9	0	501	-7.0285660898E+01	-1.5641090232E+01	1.9882995972E+02	2.1150778500E+02	4.1800000000E+00	0.000E+00	0.0
	5	1	9	9	501	0	3.5623905302E+01	-5.8679108247E+01	8.4789464732E+01	1.0917429232E+02	4.1800000000E+00	0.000E+00	0.0
</event>
<event>
    11  -1  1.0000000E+00  1.0000000E+00  -1.0000000E+00  -1.0000000E+00
	2212	-1	0	0	0	0	0.0000000000E+00	0.0000000000E+00	6.5000000000E+03	6.5000000000E+03	9.3827000000E-01	0.000E+00	0.0
	2212	-1	0	0	0	0	0.0000000000E+00	0.0000000000E+00	-6.5000000000E+03	6.5000000000E+03	9.3827000000E-01	0.000E+00	0.0
	2212	1	0	0	0	0	0.0000000000E+00	0.0000000000E+00	5.0204923044E+03	5.0204923044E+03	9.3827000000E-01	0.000E+00	0.0
	2212	1	0	0	0	0	0.0000000000E+00	0.0000000000E+00	-6.3127380500E+03	6.3127380500E+03	9.3827000000E-01	0.000E+00	0.0
	51	2	1	2	0	0	-4.2955622584E+01	3.3673206313E+01	1.0988015691E+03	1.5226837961E+03	1.0527212282E+03	0.000E+00	0.0
	1000022	2	5	5	0	0	4.2955622584E+01	-3.3673206313E+01	1.2661406938E+03	1.5276756194E+03	8.5305420185E+02	0.000E+00	0.0
	14	1	6	6	0	0	2.8879013853E+02	4.9396237713E+01	6.0625332479E+02	7.4766825948E+02	3.2500000000E+02	0.000E+00	0.0
	-14	1	6	6	0	0	-2.4583451594E+02	-8.3069444025E+01	6.5988736903E+02	7.8000735994E+02	3.2500000000E+02	0.000E+00	0.0
	25	2	5	5	0	0	-4.2955622584E+01	3.3673206313E+01	2.6105051836E+01	1.3909402620E+02	1.2524617383E+02	0.000E+00	0.0
	-5	1	9	9	0	501	5.1389289227E-01	-4.1436809809E+01	3.1233315507E+01	5.2060212164E+01	4.1800000000E+00	0.000E+00	0.0
	5	1	9	9	501	0	-4.3469515477E+01	7.5110016121E+01	-5.1282636704E+00	8.7033814037E+01	4.1800000000E+00	0.000E+00	0.0
</event>
<event>
    11  -1  1.0000000E+00  1.0000000E+00  -1.0000000E+00  -1.0000000E+00
	2212	-1	0	0	0	0	0.0000000000E+00	0.0000000000E+00	6.5000000000E+03	6.5000000000E+03	9.3827000000E-01	0.000E+00	0.0
	2212	-1	0	0	0	0	0.0000000000E+00	0.0000000000E+00	-6.5000000000E+03	6.5000000000E+03	9.3827000000E-01	0.000E+00	0.0
	2212	1	0	0	0	0	0.0000000000E+00	0.0000000000E+00	6.3005787536E+03	6.3005787536E+03	9.3827000000E-01	0.000E+00	0.0
	2212	1	0	0	0	0	0.0000000000E+00	0.0000000000E+00	-5.1254414721E+03	5.1254414721E+03	9.3827000000E-01	0.000E+00	0.0
	51	2	1	2	0	0	-6.0367950182E+01	5.5435913430E+01	-1.3706009256E+03	1.7267683768E+03	1.0471221035E+03	0.000E+00	0.0
	1000022	2	5	5	0	0	6.0367950182E+01	-5.5435913430E+01	-7.7433417758E+02	1.1461593424E+03	8.4105314325E+02	0.000E+00	0.0
	14	1	6	6	0	0	6.6753249129E+01	-4.9671532674E+01	-7.4823170198E+02	8.1999935200E+02	3.2500000000E+02	0.000E+00	0.0
	-14	1	6	6	0	0	-6.3852989472E+00	-5.7643807556E+00	-2.6102475604E+01	3.2615999044E+02	3.2500000000E+02	0.000E+00	0.0
	25	2	5	5	0	0	-6.0367950182E+01	5.5435913430E+01	-4.0080310383E+02	4.2782043186E+02	1.2517892781E+02	0.000E+00	0.0
	-5	1	9	9	0	501	-2.2947773128E+01	-1.0593163844E+01	-3.0238033134E+02	3.0346359352E+02	4.1800000000E+00	0.000E+00	0.0
	5	1	9	9	501	0	-3.7420177054E+01	6.6029077274E+01	-9.8422772496E+01	1.2435683834E+02	4.1800000000E+00	0.000E+00	0.0
</event>
<event>
    11  -1  1.0000000E+00  1.0000000E+00  -1.0000000E+00  -1.0000000E+00
	2212	-1	0	0	0	0	0.0000000000E+00	0.0000000000E+00	6.5000000000E+03	6.5000000000E+03	9.3827000000E-01	0.000E+00	0.0
	2212	-1	0	0	0	0	0.0000000000E+00	0.0000000000E+00	-6.5000000000E+03	6.5000000000E+03	9.3827000000E-01	0.000E+00	0.0
	2212	1	0	0	0	0	0.0000000000E+00	0.0000000000E+00	5.4395051640E+03	5.4395051640E+03	9.3827000000E-01	0.000E+00	0.0
	2212	1	0	0	0	0	0.0000000000E+00	0.0000000000E+00	-6.2395108384E+03	6.2395108384E+03	9.3827000000E-01	0.000E+00	0.0
	51	2	1	2	0	0	-9.4526202392E+01	-1.0958885944E+02	7.5075254815E+02	1.2998322786E+03	1.0511848757E+03	0.000E+00	0.0
	1000022	2	5	5	0	0	9.4526202392E+01	1.0958885944E+02	7.0784146967E+02	1.1086248340E+03	8.4087130720E+02	0.000E+00	0.0
	14	1	6	6	0	0	-2.2069292099E+02	6.5471587900E+01	3.3735655757E+02	5.2194476828E+02	3.2500000000E+02	0.000E+00	0.0
	-14	1	6	6	0	0	3.1521912338E+02	4.4117271543E+01	3.7048491211E+02	5.8668006570E+02	3.2500000000E+02	0.000E+00	0.0
	25	2	5	5	0	0	-9.4526202392E+01	-1.0958885944E+02	9.2164204690E+01	2.1235916360E+02	1.2512894424E+02	0.000E+00	0.0
	-5	1	9	9	0	501	6.0153165953E-01	-5.7484372085E+01	8.6144368321E+01	1.0364911706E+02	4.1800000000E+00	0.000E+00	0.0
	5	1	9	9	501	0	-9.5127734051E+01	-5.2104487358E+01	6.0198363686E+00	1.0871004654E+02	4.1800000000E+00	0.000E+00	0.0
</event>
<event>
    11  -1  1.0000000E+00  1.0000000E+00  -1.0000000E+00  -1.0000000E+00
	2212	-1	0	0	0	0	0.0000000000E+00	0.0000000000E+00	6.5000000000E+03	6.5000000000E+03	9.3827000000E-01	0.000E+00	0.0
	2212	-1	0	0	0	0	0.0000000000E+00	0.0000000000E+00	-6.5000000000E+03	6.5000000000E+03	9.3827000000E-01	0.000E+00	0.0
	2212	1	0	0	0	0	0.0000000000E+00	0.0000000000E+00	5.4633189888E+03	5.4633189888E+03	9.3827000000E-01	0.000E+00	0.0
	2212	1	0	0	0	0	0.0000000000E+00	0.0000000000E+00	-6.2321529241E+03	6.2321529241E+03	9.3827000000E-01	0.000E+00	0.0
	51	2	1	2	0	0	6.6839282025E+01	-1.3162325483E+02	7.7304946087E+02	1.3153271645E+03	1.0538917923E+03	0.000E+00	0.0
	1000022	2	5	5	0	0	-6.6839282025E+01	1.3162325483E+02	6.3090721608E+02	1.0668529580E+03	8.4754890589E+02	0.000E+00	0.0
	14	1	6	6	0	0	-1.4223974966E+02	3.1104553421E+02	2.6984302975E+02	5.4352712116E+02	3.2500000000E+02	0.000E+00	0.0
	-14	1	6	6	0	0	7.5400467630E+01	-1.7942227938E+02	3.6106418633E+02	5.2332583684E+02	3.2500000000E+02	0.000E+00	0.0
	25	2	5	5	0	0	6.6839282025E+01	-1.3162325483E+02	1.3792671918E+02	2.3767512905E+02	1.2519391467E+02	0.000E+00	0.0
	-5	1	9	9	0	501	4.9776251328E+00	-2.6737730093E+01	1.0903725929E+02	1.1245567694E+02	4.1800000000E+00	0.000E+00	0.0
	5	1	9	9	501	0	6.1861656892E+01	-1.0488552474E+02	2.8889459890E+01	1.2521945211E+02	4.1800000000E+00	0.000E+00	0.0
</event>
<event>
    11  -1  1.0000000E+00  1.0000000E+00  -1.0000000E+00  -1.0000000E+00
	2212	-1	0	0	0	0	0.0000000000E+00	0.0000000000E+00	6.5000000000E+03	6.5000000000E+03	9.3827000000E-01	0.000E+00	0.0
	2212	-1	0	0	0	0	0.0000000000E+00	0.0000000000E+00	-6.5000000000E+03	6.5000000000E+03	9.3827000000E-01	0.000E+00	0.0
	2212	1	0	0	0	0	0.0000000000E+00	0.0000000000E+00	5.9954403366E+03	5.9954403366E+03	9.3827000000E-01	0.000E+00	0.0
	2212	1	0	0	0	0	0.0000000000E+00	0.0000000000E+00	-5.9505122627E+03	5.9505122627E+03	9.3827000000E-01	0.000E+00	0.0
	51	2	1	2	0	0	-2.6258590439E+01	-1.4156715916E+01	-1.8901166466E+02	1.0703329981E+03	1.0530894507E+03	0.000E+00	0.0
	1000022	2	5	5	0	0	2.6258590439E+01	1.4156715916E+01	1.0694681152E+02	8.5497199878E+02	8.4773201663E+02	0.000E+00	0.0
	14	1	6	6	0	0	-2.4434453891E+01	2.5251777850E+02	-5.8368490700E+01	4.1640623399E+02	3.2500000000E+02	0.000E+00	0.0
	-14	1	6	6	0	0	5.0693044331E+01	-2.3836106258E+02	1.6531530222E+02	4.3856576479E+02	3.2500000000E+02	0.000E+00	0.0
	25	2	5	5	0	0	-2.6258590439E+01	-1.4156715916E+01	-1.5187488540E+02	1.9907540200E+02	1.2520027431E+02	0.000E+00	0.0
	-5	1	9	9	0	501	-1.6188153212E+00	5.0618334340E+01	-3.0559041606E+01	5.9297249163E+01	4.1800000000E+00	0.000E+00	0.0
	5	1	9	9	501	0	-2.4639775118E+01	-6.4775050256E+01	-1.2131584380E+02	1.3977815283E+02	4.1800000000E+00	0.000E+00	0.0
</event>
<event>
    11  -1  1.0000000E+00  1.0000000E+00  -1.0000000E+00  -1.0000000E+00
	2212	-1	0	0	0	0	0.0000000000E+00	0.0000000000E+00	6.5000000000E+03	6.5000000000E+03	9.3827000000E-01	0.000E+00	0.0
	2212	-1	0	0	0	0	0.0000000000E+00	0.0000000000E+00	-6.5000000000E+03	6.5000000000E+03	9.3827000000E-01	0.000E+00	0.0
	2212	1	0	0	0	0	0.0000000000E+00	0.0000000000E+00	5.5534760388E+03	5.5534760388E+03	9.3827000000E-01	0.000E+00	0.0
	2212	1	0	0	0	0	0.0000000000E+00	0.0000000000E+00	-6.2133357557E+03	6.2133357557E+03	9.3827000000E-01	0.000E+00	0.0
	51	2	1	2	0	0	-8.5385116615E+01	-8.9156801205E+01	6.0123108284E+02	1.2091553550E+03	1.0417957113E+03	0.000E+00	0.0
	1000022	2	5	5	0	0	8.5385116615E+01	8.9156801205E+01	6.0746950729E+02	1.0497419129E+03	8.4717136882E+02	0.000E+00	0.0
	14	1	6	6	0	0	-3.1969022171E+01	1.7535175357E+02	3.0768411028E+01	3.7194347820E+02	3.2500000000E+02	0.000E+00	0.0
	-14	1	6	6	0	0	1.1735413879E+02	-8.6194952366E+01	5.7670109626E+02	6.7779843474E+02	3.2500000000E+02	0.000E+00	0.0
	25	2	5	5	0	0	-8.5385116615E+01	-8.9156801205E+01	5.2390209603E+01	1.8344629253E+02	1.2517289978E+02	0.000E+00	0.0
	-5	1	9	9	0	501	-1.8058750049E+01	3.1937191811E+01	1.5171000447E+01	3.9921602281E+01	4.1800000000E+00	0.000E+00	0.0
	5	1	9	9	501	0	-6.7326366566E+01	-1.2109399302E+02	3.7219209157E+01	1.4352469024E+02	4.1800000000E+00	0.000E+00	0.0
</event>
<event>
    11  -1  1.0000000E+00  1.0000000E+00  -1.0000000E+00  -1.0000000E+00
	2212	-1	0	0	0	0	0.0000000000E+00	0.0000000000E+00	6.5000000000E+03	6.5000000000E+03	9.3827000000E-01	0.000E+00	0.0
	2212	-1	0	0	0	0	0.0000000000E+00	0.0000000000E+00	-6.5000000000E+03	6.5000000000E+03	9.3827000000E-01	0.000E+00	0.0
	2212	1	0	0	0	0	0.0000000000E+00	0.0000000000E+00	5.2187569714E+03	5.2187569714E+03	9.3827000000E-01	0.000E+00	0.0
	2212	1	0	0	0	0	0.0000000000E+00	0.0000000000E+00	-6.2884451724E+03	6.2884451724E+03	9.3827000000E-01	0.000E+00	0.0
	51	2	1	2	0	0	1.1598827569E+02	-3.3772255109E+01	1.0520431906E+03	1.4851266991E+03	1.0412552964E+03	0.000E+00	0.0
	1000022	2	5	5	0	0	-1.1598827569E+02	3.3772255109E+01	9.1502049798E+02	1.2599988942E+03	8.5775337741E+02	0.000E+00	0.0
	14	1	6	6	0	0	-3.3525919930E+02	6.7966689409E+01	4.7141438095E+02	6.6698929538E+02	3.2500000000E+02	0.000E+00	0.0
	-14	1	6	6	0	0	2.1927092361E+02	-3.4194434299E+01	4.4360611704E+02	5.9300959887E+02	3.2500000000E+02	0.000E+00	0.0
	25	2	5	5	0	0	1.1598827569E+02	-3.3772255109E+01	1.5466770297E+02	2.3279896200E+02	1.2521746305E+02	0.000E+00	0.0
	-5	1	9	9	0	501	3.6369942460E+01	-4.1563625640E+01	1.4105901828E+02	1.5154348132E+02	4.1800000000E+00	0.000E+00	0.0
	5	1	9	9	501	0	7.9618333232E+01	7.7913705304E+00	1.3608684685E+01	8.1255480678E+01	4.1800000000E+00	0.000E+00	0.0
</event>
<event>
    11  -1  1.0000000E+00  1.0000000E+00  -1.0000000E+00  -1.0000000E+00
	2212	-1	0	0	0	0	0.0000000000E+00	0.0000000000E+00	6.5000000000E+03	6.5000000000E+03	9.3827000000E-01	0.000E+00	0.0
	2212	-1	0	0	0	0	0.0000000000E+00	0.0000000000E+00	-6.5000000000E+03	6.5000000000E+03	9.3827000000E-01	0.000E+00	0.0
	2212	1	0	0	0	0	0.0000000000E+00	0.0000000000E+00	5.0589859233E+03	5.0589859233E+03	9.3827000000E-01	0.000E+00	0.0
	2212	1	0	0	0	0	0.0000000000E+00	0.0000000000E+00	-6.3105944142E+03	6.3105944142E+03	9.3827000000E-01	0.000E+00	0.0
	51	2	1	2	0	0	7.0759974913E+01	4.6077723454E+01	1.0923703181E+03	1.5139839840E+03	1.0448657622E+03	0.000E+00	0.0
	1000022	2	5	5	0	0	-7.0759974913E+01	-4.6077723454E+01	1.1985753885E+03	1.4703381525E+03	8.4745571574E+02	0.000E+00	0.0
	14	1	6	6	0	0	-2.3557059109E+02	1.5994956011E+02	5.7403638564E+02	7.1848461167E+02	3.2500000000E+02	0.000E+00	0.0
	-14	1	6	6	0	0	1.6481061617E+02	-2.0602728356E+02	6.2453900289E+02	7.5185354086E+02	3.2500000000E+02	0.000E+00	0.0
	25	2	5	5	0	0	7.0759974913E+01	4.6077723454E+01	5.3033102417E+01	1.6008150993E+02	1.2523357864E+02	0.000E+00	0.0
	-5	1	9	9	0	501	3.4091954801E+01	8.6101007969E+01	1.5575199224E+01	9.3998426510E+01	4.1800000000E+00	0.000E+00	0.0
	5	1	9	9	501	0	3.6668020111E+01	-4.0023284515E+01	3.7457903192E+01	6.6083083416E+01	4.1800000000E+00	0.000E+00	0.0
</event>
<event>
    11  -1  1.0000000E+00  1.0000000E+00  -1.0000000E+00  -1.0000000E+00
	2212	-1	0	0	0	0	0.0000000000E+00	0.0000000000E+00	6.5000000000E+03	6.5000000000E+03	9.3827000000E-01	0.000E+00	0.0
	2212	-1	0	0	0	0	0.0000000000E+00	0.0000000000E+00	-6.5000000000E+03	6.5000000000E+03	9.3827000000E-01	0.000E+00	0.0
	2212	1	0	0	0	0	0.0000000000E+00	0.0000000000E+00	6.2561118487E+03	6.2561118487E+03	9.3827000000E-01	0.000E+00	0.0
	2212	1	0	0	0	0	0.0000000000E+00	0.0000000000E+00	-5.2828576449E+03	5.2828576449E+03	9.3827000000E-01	0.000E+00	0.0
	51	2	1	2	0	0	2.8239663508E+01	-1.6344061934E+02	-8.6137181407E+02	1.3988774471E+03	1.0896726092E+03	0.000E+00	0.0
	1000022	2	5	5	0	0	-2.8239663508E+01	1.6344061934E+02	-8.9607501349E+02	1.2393679551E+03	8.3998344253E+02	0.000E+00	0.0
	14	1	6	6	0	0	-1.8536455009E+02	1.0126670037E+01	-1.6354542237E+02	4.0845400115E+02	3.2500000000E+02	0.000E+00	0.0
	-14	1	6	6	0	0	1.5712488658E+02	1.5331394931E+02	-7.3252959112E+02	8.3091395397E+02	3.2500000000E+02	0.000E+00	0.0
	25	2	5	5	0	0	2.8239663508E+01	-1.6344061934E+02	-7.7179190304E+01	2.2166255123E+02	1.2516926362E+02	0.000E+00	0.0
	-5	1	9	9	0	501	5.6817984401E+01	-1.8818593240E+01	-1.6831943372E+01	6.2315403558E+01	4.1800000000E+00	0.000E+00	0.0
	5	1	9	9	501	0	-2.8578320893E+01	-1.4462202610E+02	-6.0347246932E+01	1.5934714767E+02	4.1800000000E+00	0.000E+00	0.0
</event>
<event>
    11  -1  1.0000000E+00  1.0000000E+00  -1.0000000E+00  -1.0000000E+00
	2212	-1	0	0	0	0	0.0000000000E+00	0.0000000000E+00	6.5000000000E+03	6.5000000000E+03	9.3827000000E-01	0.000E+00	0.0
	2212	-1	0	0	0	0	0.0000000000E+00	0.0000000000E+00	-6.5000000000E+03	6.5000000000E+03	9.3827000000E-01	0.000E+00	0.0
	2212	1	0	0	0	0	0.0000000000E+00	0.0000000000E+00	6.3288819697E+03	6.3288819697E+03	9.3827000000E-01	0.000E+00	0.0
	2212	1	0	0	0	0	0.0000000000E+00	0.0000000000E+00	-4.8410203960E+03	4.8410203960E+03	9.3827000000E-01	0.000E+00	0.0
	51	2	1	2	0	0	-6.6068146461E+01	3.7732179945E+00	-1.7415037340E+03	2.0427285138E+03	1.0656102891E+03	0.000E+00	0.0
	1000022	2	5	5	0	0	6.6068146461E+01	-3.7732179945E+00	-9.7283806338E+02	1.2959627931E+03	8.5365474655E+02	0.000E+00	0.0
	14	1	6	6	0	0	-1.5427695690E+02	9.3798570362E+01	-1.9649640972E+02	4.2051800231E+02	3.2500000000E+02	0.000E+00	0.0
	-14	1	6	6	0	0	2.2034510336E+02	-9.7571788356E+01	-7.7634165366E+02	8.7544479076E+02	3.2500000000E+02	0.000E+00	0.0
	25	2	5	5	0	0	-6.6068146461E+01	3.7732179945E+00	-5.1502351031E+02	5.3413484116E+02	1.2518616224E+02	0.000E+00	0.0
	-5	1	9	9	0	501	2.1980065221E+01	3.9820937016E+01	-1.4313497096E+02	1.5024620662E+02	4.1800000000E+00	0.000E+00	0.0
	5	1	9	9	501	0	-8.8048211682E+01	-3.6047719022E+01	-3.7188853935E+02	3.8388863454E+02	4.1800000000E+00	0.000E+00	0.0
</event>
<event>
    11  -1  1.0000000E+00  1.0000000E+00  -1.0000000E+00  -1.0000000E+00
	2212	-1	0	0	0	0	0.0000000000E+00	0.0000000000E+00	6.5000000000E+03	6.5000000000E+03	9.3827000000E-01	0.000E+00	0.0
	2212	-1	0	0	0	0	0.0000000000E+00	0.0000000000E+00	-6.5000000000E+03	6.5000000000E+03	9.3827000000E-01	0.000E+00	0.0
	2212	1	0	0	0	0	0.0000000000E+00	0.0000000000E+00	5.5137386778E+03	5.5137386778E+03	9.3827000000E-01	0.000E+00	0.0
	2212	1	0	0	0	0	0.0000000000E+00	0.0000000000E+00	-6.2097556451E+03	6.2097556451E+03	9.3827000000E-01	0.000E+00	0.0
	51	2	1	2	0	0	-3.3932405055E+01	3.3920092567E+00	8.9033189685E+02	1.3924370453E+03	1.0700594024E+03	0.000E+00	0.0
	1000022	2	5	5	0	0	3.3932405055E+01	-3.3920092567E+00	3.7716813040E+02	9.3217723345E+02	8.5178382359E+02	0.000E+00	0.0
	14	1	6	6	0	0	1.4352216881E+02	1.4936436295E+02	4.0072490693E+02	5.5598001483E+02	3.2500000000E+02	0.000E+00	0.0
	-14	1	6	6	0	0	-1.0958976376E+02	-1.5275637221E+02	-2.3556776528E+01	3.7619721861E+02	3.2500000000E+02	0.000E+00	0.0
	25	2	5	5	0	0	-3.3932405055E+01	3.3920092567E+00	3.1884883690E+02	3.4432844359E+02	1.2543756390E+02	0.000E+00	0.0
	-5	1	9	9	0	501	-5.1819663165E+00	5.0402006477E+01	2.5440141153E+02	2.5943162031E+02	4.1800000000E+00	0.000E+00	0.0
	5	1	9	9	501	0	-2.8750438738E+01	-4.7009997220E+01	6.4447425372E+01	8.4896823282E+01	4.1800000000E+00	0.000E+00	0.0
</event>
<event>
    11  -1  1.0000000E+00  1.0000000E+00  -1.0000000E+00  -1.0000000E+00
	2212	-1	0	0	0	0	0.0000000000E+00	0.0000000000E+00	6.5000000000E+03	6.5000000000E+03	9.3827000000E-01	0.000E+00	0.0
	2212	-1	0	0	0	0	0.0000000000E+00	0.0000000000E+00	-6.5000000000E+03	6.5000000000E+03	9.3827000000E-01	0.000E+00	0.0
	2212	1	0	0	0	0	0.0000000000E+00	0.0000000000E+00	5.2374444717E+03	5.2374444717E+03	9.3827000000E-01	0.000E+00	0.0
	2212	1	0	0	0	0	0.0000000000E+00	0.0000000000E+00	-6.2713502162E+03	6.2713502162E+03	9.3827000000E-01	0.000E+00	0.0
	51	2	1	2	0	0	3.8947425857E+01	-1.4011692369E+02	9.3290267058E+02	1.4304507126E+03	1.0745846613E+03	0.000E+00	0.0
	1000022	2	5	5	0	0	-3.8947425857E+01	1.4011692369E+02	9.4663065719E+02	1.2804057628E+03	8.4981154504E+02	0.000E+00	0.0
	14	1	6	6	0	0	2.1621119636E+02	-2.2730107537E+01	6.0380564043E+02	7.1935400926E+02	3.2500000000E+02	0.000E+00	0.0
	-14	1	6	6	0	0	-2.5515862222E+02	1.6284703122E+02	3.4282501677E+02	5.6105175358E+02	3.2500000000E+02	0.000E+00	0.0
	25	2	5	5	0	0	3.8947425857E+01	-1.4011692369E+02	8.7275087360E+01	2.1079954927E+02	1.2517929068E+02	0.000E+00	0.0
	-5	1	9	9	0	501	-4.2742836027E+00	-3.9472485851E+01	9.2825670204E+01	1.0104664313E+02	4.1800000000E+00	0.000E+00	0.0
	5	1	9	9	501	0	4.3221709459E+01	-1.0064443784E+02	-5.5505828442E+00	1.0975290614E+02	4.1800000000E+00	0.000E+00	0.0
</event>
<event>
    11  -1  1.0000000E+00  1.0000000E+00  -1.0000000E+00  -1.0000000E+00
	2212	-1	0	0	0	0	0.0000000000E+00	0.0000000000E+00	6.5000000000E+03	6.5000000000E+03	9.3827000000E-01	0.000E+00	0.0
	2212	-1	0	0	0	0	0.0000000000E+00	0.0000000000E+00	-6.5000000000E+03	6.5000000000E+03	9.3827000000E-01	0.000E+00	0.0
	2212	1	0	0	0	0	0.0000000000E+00	0.0000000000E+00	6.1608572837E+03	6.1608572837E+03	9.3827000000E-01	0.000E+00	0.0
	2212	1	0	0	0	0	0.0000000000E+00	0.0000000000E+00	-5.7508363959E+03	5.7508363959E+03	9.3827000000E-01	0.000E+00	0.0
	51	2	1	2	0	0	-3.9599411399E+01	2.0122089098E+01	-4.9597688309E+02	1.1243929913E+03	1.0081138421E+03	0.000E+00	0.0
	1000022	2	5	5	0	0	3.9599411399E+01	-2.0122089098E+01	-2.6301995591E+02	8.9018987877E+02	8.4928529436E+02	0.000E+00	0.0
	14	1	6	6	0	0	-1.4963899834E+02	-1.7400851740E+02	-2.7502267171E+02	4.8366648004E+02	3.2500000000E+02	0.000E+00	0.0
	-14	1	6	6	0	0	1.8923840974E+02	1.5388642830E+02	1.2002715804E+01	4.0652339874E+02	3.2500000000E+02	0.000E+00	0.0
	25	2	5	5	0	0	-3.9599411399E+01	2.0122089098E+01	-1.4700093194E+02	1.9811644164E+02	1.2517123713E+02	0.000E+00	0.0
	-5	1	9	9	0	501	1.2324507592E+01	3.6942706932E+01	2.1606965573E+00	3.9227517031E+01	4.1800000000E+00	0.000E+00	0.0
	5	1	9	9	501	0	-5.1923918992E+01	-1.6820617833E+01	-1.4916162850E+02	1.5888892461E+02	4.1800000000E+00	0.000E+00	0.0
</event>
<event>
    11  -1  1.0000000E+00  1.0000000E+00  -1.0000000E+00  -1.0000000E+00
	2212	-1	0	0	0	0	0.0000000000E+00	0.0000000000E+00	6.5000000000E+03	6.5000000000E+03	9.3827000000E-01	0.000E+00	0.0
	2212	-1	0	0	0	0	0.0000000000E+00	0.0000000000E+00	-6.5000000000E+03	6.5000000000E+03	9.3827000000E-01	0.000E+00	0.0
	2212	1	0	0	0	0	0.0000000000E+00	0.0000000000E+00	6.2908422690E+03	6.2908422690E+03	9.3827000000E-01	0.000E+00	0.0
	2212	1	0	0	0	0	0.0000000000E+00	0.0000000000E+00	-5.1880677681E+03	5.1880677681E+03	9.3827000000E-01	0.000E+00	0.0
	51	2	1	2	0	0	1.1118211697E+02	7.3686933059E+01	-1.0288306996E+03	1.4744106996E+03	1.0476655361E+03	0.000E+00	0.0
	1000022	2	5	5	0	0	-1.1118211697E+02	-7.3686933059E+01	-9.8522947701E+02	1.3036429432E+03	8.4321798710E+02	0.000E+00	0.0
	14	1	6	6	0	0	4.0670669860E+01	1.0977704533E+02	-1.5059039106E+02	3.7683891645E+02	3.2500000000E+02	0.000E+00	0.0
	-14	1	6	6	0	0	-1.5185278683E+02	-1.8346397839E+02	-8.3463908595E+02	9.2680402676E+02	3.2500000000E+02	0.000E+00	0.0
	25	2	5	5	0	0	1.1118211697E+02	7.3686933059E+01	-1.1754502384E+02	2.1744701967E+02	1.2520042531E+02	0.000E+00	0.0
	-5	1	9	9	0	501	2.3003562886E+01	-3.1002262022E+01	-5.3922064207E+01	6.6448217164E+01	4.1800000000E+00	0.000E+00	0.0
	5	1	9	9	501	0	8.8178554083E+01	1.0468919508E+02	-6.3622959629E+01	1.5099880251E+02	4.1800000000E+00	0.000E+00	0.0
</event>
<event>
    11  -1  1.0000000E+00  1.0000000E+00  -1.0000000E+00  -1.0000000E+00
	2212	-1	0	0	0	0	0.0000000000E+00	0.0000000000E+00	6.5000000000E+03	6.5000000000E+03	9.3827000000E-01	0.000E+00	0.0
	2212	-1	0	0	0	0	0.0000000000E+00	0.0000000000E+00	-6.5000000000E+03	6.5000000000E+03	9.3827000000E-01	0.000E+00	0.0
	2212	1	0	0	0	0	0.0000000000E+00	0.0000000000E+00	6.2803465239E+03	6.2803465239E+03	9.3827000000E-01	0.000E+00	0.0
	2212	1	0	0	0	0	0.0000000000E+00	0.0000000000E+00	-5.2536607495E+03	5.2536607495E+03	9.3827000000E-01	0.000E+00	0.0
	51	2	1	2	0	0	-6.4854598999E+01	-8.7765463568E+01	-1.1538922179E+03	1.5615463943E+03	1.0464468430E+03	0.000E+00	0.0
	1000022	2	5	5	0	0	6.4854598999E+01	8.7765463568E+01	-7.2564998611E+02	1.1222301510E+03	8.4907226652E+02	0.000E+00	0.0
	14	1	6	6	0	0	-9.4085538084E+01	2.8554446510E+02	-4.0291185195E+02	5.9862399757E+02	3.2500000000E+02	0.000E+00	0.0
	-14	1	6	6	0	0	1.5894013708E+02	-1.9777900153E+02	-3.2273813416E+02	5.2360615338E+02	3.2500000000E+02	0.000E+00	0.0
	25	2	5	5	0	0	-6.4854598999E+01	-8.7765463568E+01	-3.0103578822E+02	3.4376257563E+02	1.2506505109E+02	0.000E+00	0.0
	-5	1	9	9	0	501	-8.6572325298E+01	-3.7782235746E+01	-2.5612782963E+02	2.7302234772E+02	4.1800000000E+00	0.000E+00	0.0
	5	1	9	9	501	0	2.1717726299E+01	-4.9983227821E+01	-4.4907958591E+01	7.0740227903E+01	4.1800000000E+00	0.000E+00	0.0
</event>
<event>
    11  -1  1.0000000E+00  1.0000000E+00  -1.0000000E+00  -1.0000000E+00
	2212	-1	0	0	0	0	0.0000000000E+00	0.0000000000E+00	6.5000000000E+03	6.5000000000E+03	9.3827000000E-01	0.000E+00	0.0
	2212	-1	0	0	0	0	0.0000000000E+00	0.0000000000E+00	-6.5000000000E+03	6.5000000000E+03	9.3827000000E-01	0.000E+00	0.0
	2212	1	0	0	0	0	0.0000000000E+00	0.0000000000E+00	5.9098679919E+03	5.9098679919E+03	9.3827000000E-01	0.000E+00	0.0
	2212	1	0	0	0	0	0.0000000000E+00	0.0000000000E+00	-6.0335081716E+03	6.0335081716E+03	9.3827000000E-01	0.000E+00	0.0
	51	2	1	2	0	0	1.1550044014E+02	1.0187019451E+01	1.7092351544E+02	1.0694980192E+03	1.0493650642E+03	0.000E+00	0.0
	1000022	2	5	5	0	0	-1.1550044014E+02	-1.0187019451E+01	5.6402970976E+01	8.7322468575E+02	8.6365266724E+02	0.000E+00	0.0
	14	1	6	6	0	0	-2.9929355543E+02	1.4710468422E+02	4.6183945720E+01	4.6794698127E+02	3.2500000000E+02	0.000E+00	0.0
	-14	1	6	6	0	0	1.8379311529E+02	-1.5729170367E+02	1.0219025256E+01	4.0527770448E+02	3.2500000000E+02	0.000E+00	0.0
	25	2	5	5	0	0	1.1550044014E+02	1.0187019451E+01	6.7237208658E+01	1.8339915077E+02	1.2518098593E+02	0.000E+00	0.0
	-5	1	9	9	0	501	8.3084955664E+01	-1.9984491949E+01	-1.7838729322E+01	8.7396695819E+01	4.1800000000E+00	0.000E+00	0.0
	5	1	9	9	501	0	3.2415484477E+01	3.0171511400E+01	8.5075937980E+01	9.6002454955E+01	4.1800000000E+00	0.000E+00	0.0
</event>
<event>
    11  -1  1.0000000E+00  1.0000000E+00  -1.0000000E+00  -1.0000000E+00
	2212	-1	0	0	0	0	0.0000000000E+00	0.0000000000E+00	6.5000000000E+03	6.5000000000E+03	9.3827000000E-01	0.000E+00	0.0
	2212	-1	0	0	0	0	0.0000000000E+00	0.0000000000E+00	-6.5000000000E+03	6.5000000000E+03	9.3827000000E-01	0.000E+00	0.0
	2212	1	0	0	0	0	0.0000000000E+00	0.0000000000E+00	5.4281847603E+03	5.4281847603E+03	9.3827000000E-01	0.000E+00	0.0
	2212	1	0	0	0	0	0.0000000000E+00	0.0000000000E+00	-6.2410255201E+03	6.2410255201E+03	9.3827000000E-01	0.000E+00	0.0
	51	2	1	2	0	0	-1.2260681413E+02	-5.8004718921E+01	7.7647730948E+02	1.3159046955E+03	1.0537035528E+03	0.000E+00	0.0
	1000022	2	5	5	0	0	1.2260681413E+02	5.8004718921E+01	7.1149879218E+02	1.1202222770E+03	8.5455862305E+02	0.000E+00	0.0
	14	1	6	6	0	0	5.9394487102E+01	2.8638116161E+02	2.3403014056E+02	4.9592033787E+02	3.2500000000E+02	0.000E+00	0.0
	-14	1	6	6	0	0	6.3212327031E+01	-2.2837644269E+02	4.7746865162E+02	6.2430193908E+02	3.2500000000E+02	0.000E+00	0.0
	25	2	5	5	0	0	-1.2260681413E+02	-5.8004718921E+01	1.0134196758E+02	2.1056744266E+02	1.2518576288E+02	0.000E+00	0.0
	-5	1	9	9	0	501	3.9914921381E+00	2.5446803256E+01	-3.2795529151E+00	2.6300183892E+01	4.1800000000E+00	0.000E+00	0.0
	5	1	9	9	501	0	-1.2659830627E+02	-8.3451522177E+01	1.0462152049E+02	1.8426725877E+02	4.1800000000E+00	0.000E+00	0.0
</event>
<event>
    11  -1  1.0000000E+00  1.0000000E+00  -1.0000000E+00  -1.0000000E+00
	2212	-1	0	0	0	0	0.0000000000E+00	0.0000000000E+00	6.5000000000E+03	6.5000000000E+03	9.3827000000E-01	0.000E+00	0.0
	2212	-1	0	0	0	0	0.0000000000E+00	0.0000000000E+00	-6.5000000000E+03	6.5000000000E+03	9.3827000000E-01	0.000E+00	0.0
	2212	1	0	0	0	0	0.0000000000E+00	0.0000000000E+00	5.9590474816E+03	5.9590474816E+03	9.3827000000E-01	0.000E+00	0.0
	2212	1	0	0	0	0	0.0000000000E+00	0.0000000000E+00	-5.9958264681E+03	5.9958264681E+03	9.3827000000E-01	0.000E+00	0.0
	51	2	1	2	0	0	-2.1416672120E+01	8.0451615100E+01	-6.7482213032E+01	1.0499622624E+03	1.0444787060E+03	0.000E+00	0.0
	1000022	2	5	5	0	0	2.1416672120E+01	-8.0451615100E+01	1.3489319511E+02	8.6561454484E+02	8.5097663301E+02	0.000E+00	0.0
	14	1	6	6	0	0	-1.3230591478E+02	8.1220097100E+01	-1.3850141559E+02	3.8588755018E+02	3.2500000000E+02	0.000E+00	0.0
	-14	1	6	6	0	0	1.5372258690E+02	-1.6167171220E+02	2.7339461070E+02	4.7972699466E+02	3.2500000000E+02	0.000E+00	0.0
	25	2	5	5	0	0	-2.1416672120E+01	8.0451615100E+01	-9.8114208654E+01	1.7951150551E+02	1.2516727389E+02	0.000E+00	0.0
	-5	1	9	9	0	501	-3.8558394237E+01	-2.0082842217E+01	-5.0840613307E+01	6.7024702006E+01	4.1800000000E+00	0.000E+00	0.0
	5	1	9	9	501	0	1.7141722117E+01	1.0053445732E+02	-4.7273595347E+01	1.1248680350E+02	4.1800000000E+00	0.000E+00	0.0
</event>
<event>
    11  -1  1.0000000E+00  1.0000000E+00  -1.0000000E+00  -1.0000000E+00
	2212	-1	0	0	0	0	0.0000000000E+00	0.0000000000E+00	6.5000000000E+03	6.5000000000E+03	9.3827000000E-01	0.000E+00	0.0
	2212	-1	0	0	0	0	0.0000000000E+00	0.0000000000E+00	-6.5000000000E+03	6.5000000000E+03	9.3827000000E-01	0.000E+00	0.0
	2212	1	0	0	0	0	0.0000000000E+00	0.0000000000E+00	5.5560076153E+03	5.5560076153E+03	9.3827000000E-01	0.000E+00	0.0
	2212	1	0	0	0	0	0.0000000000E+00	0.0000000000E+00	-6.2040166175E+03	6.2040166175E+03	9.3827000000E-01	0.000E+00	0.0
	51	2	1	2	0	0	-1.2269709192E+02	5.8027916363E+01	6.4939903950E+02	1.2481046288E+03	1.0571774858E+03	0.000E+00	0.0
	1000022	2	5	5	0	0	1.2269709192E+02	-5.8027916363E+01	5.3874456275E+02	1.0254274823E+03	8.6187818294E+02	0.000E+00	0.0
	14	1	6	6	0	0	2.6085347372E+02	2.7887343693E+01	5.6366005422E+01	4.2145505722E+02	3.2500000000E+02	0.000E+00	0.0
	-14	1	6	6	0	0	-1.3815638181E+02	-8.5915260056E+01	4.8237855732E+02	6.0397242512E+02	3.2500000000E+02	0.000E+00	0.0
	25	2	5	5	0	0	-1.2269709192E+02	5.8027916363E+01	1.0926443946E+02	2.1454828494E+02	1.2518160168E+02	0.000E+00	0.0
	-5	1	9	9	0	501	-1.4389474131E+02	5.0922344443E+01	1.1492220205E+02	1.9111087532E+02	4.1800000000E+00	0.000E+00	0.0
	5	1	9	9	501	0	2.1197649397E+01	7.1055719199E+00	-5.6577625908E+00	2.3437409622E+01	4.1800000000E+00	0.000E+00	0.0
</event>
<event>
    11  -1  1.0000000E+00  1.0000000E+00  -1.0000000E+00  -1.0000000E+00
	2212	-1	0	0	0	0	0.0000000000E+00	0.0000000000E+00	6.5000000000E+03	6.5000000000E+03	9.3827000000E-01	0.000E+00	0.0
	2212	-1	0	0	0	0	0.0000000000E+00	0.0000000000E+00	-6.5000000000E+03	6.5000000000E+03	9.3827000000E-01	0.000E+00	0.0
	2212	1	0	0	0	0	0.0000000000E+00	0.0000000000E+00	6.0749348881E+03	6.0749348881E+03	9.3827000000E-01	0.000E+00	0.0
	2212	1	0	0	0	0	0.0000000000E+00	0.0000000000E+00	-5.8433209541E+03	5.8433209541E+03	9.3827000000E-01	0.000E+00	0.0
	51	2	1	2	0	0	1.8682416646E+01	-6.9800541547E+01	-3.6760615381E+02	1.1211069713E+03	1.0566576591E+03	0.000E+00	0.0
	1000022	2	5	5	0	0	-1.8682416646E+01	6.9800541547E+01	-5.5222765114E+01	8.5369957344E+02	8.4884171646E+02	0.000E+00	0.0
	14	1	6	6	0	0	-7.6605074571E+01	-7.5594224277E+01	2.1386747984E+02	4.0366709443E+02	3.2500000000E+02	0.000E+00	0.0
	-14	1	6	6	0	0	5.7922657925E+01	1.4539476582E+02	-2.6909024495E+02	4.5003247900E+02	3.2500000000E+02	0.000E+00	0.0
	25	2	5	5	0	0	1.8682416646E+01	-6.9800541547E+01	-1.7639116893E+02	2.2804458436E+02	1.2517723312E+02	0.000E+00	0.0
	-5	1	9	9	0	501	-4.0926025928E+01	-7.3488028660E+01	-1.1184647497E+02	1.4000905798E+02	4.1800000000E+00	0.000E+00	0.0
	5	1	9	9	501	0	5.9608442573E+01	3.6874871127E+00	-6.4544693958E+01	8.8035526382E+01	4.1800000000E+00	0.000E+00	0.0
</event>
<event>
    11  -1  1.0000000E+00  1.0000000E+00  -1.0000000E+00  -1.0000000E+00
	2212	-1	0	0	0	0	0.0000000000E+00	0.0000000000E+00	6.5000000000E+03	6.5000000000E+03	9.3827000000E-01	0.000E+00	0.0
	2212	-1	0	0	0	0	0.0000000000E+00	0.0000000000E+00	-6.5000000000E+03	6.5000000000E+03	9.3827000000E-01	0.000E+00	0.0
	2212	1	0	0	0	0	0.0000000000E+00	0.0000000000E+00	6.2553280542E+03	6.2553280542E+03	9.3827000000E-01	0.000E+00	0.0
	2212	1	0	0	0	0	0.0000000000E+00	0.0000000000E+00	-5.3644076536E+03	5.3644076536E+03	9.3827000000E-01	0.000E+00	0.0
	51	2	1	2	0	0	-1.0437130473E+02	-2.8029281032E+01	-8.7911390147E+02	1.3769207012E+03	1.0542250025E+03	0.000E+00	0.0
	1000022	2	5	5	0	0	1.0437130473E+02	2.8029281032E+01	-7.6718451253E+02	1.1736179478E+03	8.8154863814E+02	0.000E+00	0.0
	14	1	6	6	0	0	1.7139284032E+02	-1.4611083782E+02	-6.8349850838E+02	7.8963225213E+02	3.2500000000E+02	0.000E+00	0.0
	-14	1	6	6	0	0	-6.7021535593E+01	1.7414011885E+02	-8.3686004149E+01	3.8398569572E+02	3.2500000000E+02	0.000E+00	0.0
	25	2	5	5	0	0	-1.0437130473E+02	-2.8029281032E+01	-1.2373588809E+02	2.0664634428E+02	1.2535203133E+02	0.000E+00	0.0
	-5	1	9	9	0	501	-4.3237710876E+01	-2.0236971136E+01	1.8662638817E+01	5.1427630026E+01	4.1800000000E+00	0.000E+00	0.0
	5	1	9	9	501	0	-6.1133593855E+01	-7.7923098962E+00	-1.4239852690E+02	1.5521871426E+02	4.1800000000E+00	0.000E+00	0.0
</event>
<event>
    11  -1  1.0000000E+00  1.0000000E+00  -1.0000000E+00  -1.0000000E+00
	2212	-1	0	0	0	0	0.0000000000E+00	0.0000000000E+00	6.5000000000E+03	6.5000000000E+03	9.3827000000E-01	0.000E+00	0.0
	2212	-1	0	0	0	0	0.0000000000E+00	0.0000000000E+00	-6.5000000000E+03	6.5000000000E+03	9.3827000000E-01	0.000E+00	0.0
	2212	1	0	0	0	0	0.0000000000E+00	0.0000000000E+00	5.0918126180E+03	5.0918126180E+03	9.3827000000E-01	0.000E+00	0.0
	2212	1	0	0	0	0	0.0000000000E+00	0.0000000000E+00	-6.2974008395E+03	6.2974008395E+03	9.3827000000E-01	0.000E+00	0.0
	51	2	1	2	0	0	1.0430166666E+02	-8.1962577883E+01	1.3977195328E+03	1.7642014964E+03	1.0682651008E+03	0.000E+00	0.0
	1000022	2	5	5	0	0	-1.0430166666E+02	8.1962577883E+01	7.8553689876E+02	1.1528476386E+03	8.3330232009E+02	0.000E+00	0.0
	14	1	6	6	0	0	-8.0935601397E+01	2.3096308759E+02	6.5588768430E+02	7.7182133543E+02	3.2500000000E+02	0.000E+00	0.0
	-14	1	6	6	0	0	-2.3366065258E+01	-1.4900050971E+02	1.2964921446E+02	3.8102630317E+02	3.2500000000E+02	0.000E+00	0.0
	25	2	5	5	0	0	1.0430166666E+02	-8.1962577883E+01	4.2005132279E+02	4.5793890390E+02	1.2517277695E+02	0.000E+00	0.0
	-5	1	9	9	0	501	9.2291011834E+01	-1.1175362350E+02	2.9426151745E+02	3.2804544850E+02	4.1800000000E+00	0.000E+00	0.0
	5	1	9	9	501	0	1.2010654821E+01	2.9791045619E+01	1.2578980534E+02	1.2989345540E+02	4.1800000000E+00	0.000E+00	0.0
</event>
<event>
    11  -1  1.0000000E+00  1.0000000E+00  -1.0000000E+00  -1.0000000E+00
	2212	-1	0	0	0	0	0.0000000000E+00	0.0000000000E+00	6.5000000000E+03	6.5000000000E+03	9.3827000000E-01	0.000E+00	0.0
	2212	-1	0	0	0	0	0.0000000000E+00	0.0000000000E+00	-6.5000000000E+03	6.5000000000E+03	9.3827000000E-01	0.000E+00	0.0
	2212	1	0	0	0	0	0.0000000000E+00	0.0000000000E+00	6.1491931164E+03	6.1491931164E+03	9.3827000000E-01	0.000E+00	0.0
	2212	1	0	0	0	0	0.0000000000E+00	0.0000000000E+00	-5.7023358429E+03	5.7023358429E+03	9.3827000000E-01	0.000E+00	0.0
	51	2	1	2	0	0	2.1685823728E+01	1.3751193123E+02	-4.3324212414E+02	1.1516869595E+03	1.0579717900E+03	0.000E+00	0.0
	1000022	2	5	5	0	0	-2.1685823728E+01	-1.3751193123E+02	-3.8500637234E+02	9.5129929109E+02	8.5869705269E+02	0.000E+00	0.0
	14	1	6	6	0	0	-1.3427050883E+02	-2.0316108782E+02	3.1294413410E+01	4.0731724424E+02	3.2500000000E+02	0.000E+00	0.0
	-14	1	6	6	0	0	1.1258468510E+02	6.5649156590E+01	-4.1630078575E+02	5.4398204685E+02	3.2500000000E+02	0.000E+00	0.0
	25	2	5	5	0	0	2.1685823728E+01	1.3751193123E+02	-6.1850901241E+01	1.9717174963E+02	1.2518529741E+02	0.000E+00	0.0
	-5	1	9	9	0	501	1.0068243224E+01	1.4528904432E+02	-8.5831924851E+01	1.6910017044E+02	4.1800000000E+00	0.000E+00	0.0
	5	1	9	9	501	0	1.1617580504E+01	-7.7771130894E+00	2.3981023610E+01	2.8071579189E+01	4.1800000000E+00	0.000E+00	0.0
</event>
<event>
    11  -1  1.0000000E+00  1.0000000E+00  -1.0000000E+00  -1.0000000E+00
	2212	-1	0	0	0	0	0.0000000000E+00	0.0000000000E+00	6.5000000000E+03	6.5000000000E+03	9.3827000000E-01	0.000E+00	0.0
	2212	-1	0	0	0	0	0.0000000000E+00	0.0000000000E+00	-6.5000000000E+03	6.5000000000E+03	9.3827000000E-01	0.000E+00	0.0
	2212	1	0	0	0	0	0.0000000000E+00	0.0000000000E+00	5.2445429309E+03	5.2445429309E+03	9.3827000000E-01	0.000E+00	0.0
	2212	1	0	0	0	0	0.0000000000E+00	0.0000000000E+00	-6.2821982248E+03	6.2821982248E+03	9.3827000000E-01	0.000E+00	0.0
	51	2	1	2	0	0	2.6601445440E+01	9.6976854982E+01	1.1558584145E+03	1.5620127832E+03	1.0458313025E+03	0.000E+00	0.0
	1000022	2	5	5	0	0	-2.6601445440E+01	-9.6976854982E+01	7.4983095718E+02	1.1436773797E+03	8.5769419797E+02	0.000E+00	0.0
	14	1	6	6	0	0	-1.5260627238E+02	-2.9035622818E+02	3.5324158138E+02	5.8137769860E+02	3.2500000000E+02	0.000E+00	0.0
	-14	1	6	6	0	0	1.2600482694E+02	1.9337937320E+02	3.9658937580E+02	5.6229968112E+02	3.2500000000E+02	0.000E+00	0.0
	25	2	5	5	0	0	2.6601445440E+01	9.6976854982E+01	2.8782433677E+02	3.2958146458E+02	1.2517565920E+02	0.000E+00	0.0
	-5	1	9	9	0	501	3.3754778507E+01	1.1823694931E+02	1.7165506031E+02	2.1119255050E+02	4.1800000000E+00	0.000E+00	0.0
	5	1	9	9	501	0	-7.1533330678E+00	-2.1260094332E+01	1.1616927646E+02	1.1838891408E+02	4.1800000000E+00	0.000E+00	0.0
</event>
<event>
    11  -1  1.0000000E+00  1.0000000E+00  -1.0000000E+00  -1.0000000E+00
	2212	-1	0	0	0	0	0.0000000000E+00	0.0000000000E+00	6.5000000000E+03	6.5000000000E+03	9.3827000000E-01	0.000E+00	0.0
	2212	-1	0	0	0	0	0.0000000000E+00	0.0000000000E+00	-6.5000000000E+03	6.5000000000E+03	9.3827000000E-01	0.000E+00	0.0
	2212	1	0	0	0	0	0.0000000000E+00	0.0000000000E+00	5.3138607393E+03	5.3138607393E+03	9.3827000000E-01	0.000E+00	0.0
	2212	1	0	0	0	0	0.0000000000E+00	0.0000000000E+00	-6.2681225787E+03	6.2681225787E+03	9.3827000000E-01	0.000E+00	0.0
	51	2	1	2	0	0	1.9855628892E+01	-9.2838205183E+01	1.1455183074E+03	1.5560787330E+03	1.0488830499E+03	0.000E+00	0.0
	1000022	2	5	5	0	0	-1.9855628892E+01	9.2838205183E+01	5.8726457637E+02	1.0188068320E+03	8.2708796386E+02	0.000E+00	0.0
	14	1	6	6	0	0	1.3076887882E+02	1.6798872101E+02	8.5630258030E+01	3.9784199268E+02	3.2500000000E+02	0.000E+00	0.0
	-14	1	6	6	0	0	-1.5062450771E+02	-7.5150515824E+01	5.0163431834E+02	6.2096483933E+02	3.2500000000E+02	0.000E+00	0.0
	25	2	5	5	0	0	1.9855628892E+01	-9.2838205183E+01	3.6699726302E+02	3.9920985002E+02	1.2517321976E+02	0.000E+00	0.0
	-5	1	9	9	0	501	-3.5911022045E+01	7.6925312434E+00	5.1482056104E+01	6.3377054538E+01	4.1800000000E+00	0.000E+00	0.0
	5	1	9	9	501	0	5.5766650937E+01	-1.0053073643E+02	3.1551520692E+02	3.3583279548E+02	4.1800000000E+00	0.000E+00	0.0
</event>
<event>
    11  -1  1.0000000E+00  1.0000000E+00  -1.0000000E+00  -1.0000000E+00
	2212	-1	0	0	0	0	0.0000000000E+00	0.0000000000E+00	6.5000000000E+03	6.5000000000E+03	9.3827000000E-01	0.000E+00	0.0
	2212	-1	0	0	0	0	0.0000000000E+00	0.0000000000E+00	-6.5000000000E+03	6.5000000000E+03	9.3827000000E-01	0.000E+00	0.0
	2212	1	0	0	0	0	0.0000000000E+00	0.0000000000E+00	6.2168543188E+03	6.2168543188E+03	9.3827000000E-01	0.000E+00	0.0
	2212	1	0	0	0	0	0.0000000000E+00	0.0000000000E+00	-5.5277159659E+03	5.5277159659E+03	9.3827000000E-01	0.000E+00	0.0
	51	2	1	2	0	0	1.3438097967E+02	4.5721213361E+01	-6.9211523620E+02	1.2650550493E+03	1.0493770060E+03	0.000E+00	0.0
	1000022	2	5	5	0	0	-1.3438097967E+02	-4.5721213361E+01	-5.6813883577E+02	1.0307980318E+03	8.4830075363E+02	0.000E+00	0.0
	14	1	6	6	0	0	-1.7967168587E+02	-2.4659636647E+02	-4.3719011773E+02	6.2438119903E+02	3.2500000000E+02	0.000E+00	0.0
	-14	1	6	6	0	0	4.5290706197E+01	2.0087515311E+02	-1.3094871804E+02	4.0641683277E+02	3.2500000000E+02	0.000E+00	0.0
	25	2	5	5	0	0	1.3438097967E+02	4.5721213361E+01	-1.2099951710E+02	2.2463168350E+02	1.2517920371E+02	0.000E+00	0.0
	-5	1	9	9	0	501	9.1601710980E+01	6.4017175585E+01	-2.0349465134E+01	1.1366901669E+02	4.1800000000E+00	0.000E+00	0.0
	5	1	9	9	501	0	4.2779268695E+01	-1.8295962223E+01	-1.0065005197E+02	1.1096266680E+02	4.1800000000E+00	0.000E+00	0.0
</event>
<event>
    11  -1  1.0000000E+00  1.0000000E+00  -1.0000000E+00  -1.0000000E+00
	2212	-1	0	0	0	0	0.0000000000E+00	0.0000000000E+00	6.5000000000E+03	6.5000000000E+03	9.3827000000E-01	0.000E+00	0.0
	2212	-1	0	0	0	0	0.0000000000E+00	0.0000000000E+00	-6.5000000000E+03	6.5000000000E+03	9.3827000000E-01	0.000E+00	0.0
	2212	1	0	0	0	0	0.0000000000E+00	0.0000000000E+00	5.2013189448E+03	5.2013189448E+03	9.3827000000E-01	0.000E+00	0.0
	2212	1	0	0	0	0	0.0000000000E+00	0.0000000000E+00	-6.2865648521E+03	6.2865648521E+03	9.3827000000E-01	0.000E+00	0.0
	51	2	1	2	0	0	1.4284693167E+02	-1.4972372810E+01	1.0727054099E+03	1.5099877637E+03	1.0529656843E+03	0.000E+00	0.0
	1000022	2	5	5	0	0	-1.4284693167E+02	1.4972372810E+01	9.1091917510E+02	1.2538751135E+03	8.4958792294E+02	0.000E+00	0.0
	14	1	6	6	0	0	1.6425797439E+02	-1.3736342298E+02	4.1911289371E+02	5.7195280382E+02	3.2500000000E+02	0.000E+00	0.0
	-14	1	6	6	0	0	-3.0710490606E+02	1.5233579579E+02	4.9180628138E+02	6.8192230966E+02	3.2500000000E+02	0.000E+00	0.0
	25	2	5	5	0	0	1.4284693167E+02	-1.4972372810E+01	1.7432673221E+02	2.5824108964E+02	1.2517680687E+02	0.000E+00	0.0
	-5	1	9	9	0	501	1.4268578308E+02	-1.7052610809E+01	1.9205857476E+02	2.3990413245E+02	4.1800000000E+00	0.000E+00	0.0
	5	1	9	9	501	0	1.6114859288E-01	2.0802379992E+00	-1.7731842544E+01	1.8336957191E+01	4.1800000000E+00	0.000E+00	0.0
</event>
<event>
    11  -1  1.0000000E+00  1.0000000E+00  -1.0000000E+00  -1.0000000E+00
	2212	-1	0	0	0	0	0.0000000000E+00	0.0000000000E+00	6.5000000000E+03	6.5000000000E+03	9.3827000000E-01	0.000E+00	0.0
	2212	-1	0	0	0	0	0.0000000000E+00	0.0000000000E+00	-6.5000000000E+03	6.5000000000E+03	9.3827000000E-01	0.000E+00	0.0
	2212	1	0	0	0	0	0.0000000000E+00	0.0000000000E+00	6.0844624088E+03	6.0844624088E+03	9.3827000000E-01	0.000E+00	0.0
	2212	1	0	0	0	0	0.0000000000E+00	0.0000000000E+00	-5.8464506910E+03	5.8464506910E+03	9.3827000000E-01	0.000E+00	0.0
	51	2	1	2	0	0	-7.3636712436E+01	1.7893463035E+01	-1.4026623224E+02	1.0543786700E+03	1.0422558334E+03	0.000E+00	0.0
	1000022	2	5	5	0	0	7.3636712436E+01	-1.7893463035E+01	-2.9733230173E+02	9.1120043905E+02	8.5798438275E+02	0.000E+00	0.0
	14	1	6	6	0	0	3.1611270617E+02	-9.7431270767E+00	-1.2389390799E+02	4.7010304399E+02	3.2500000000E+02	0.000E+00	0.0
	-14	1	6	6	0	0	-2.4247599373E+02	-8.1503359581E+00	-1.7343839374E+02	4.4109739507E+02	3.2500000000E+02	0.000E+00	0.0
	25	2	5	5	0	0	-7.3636712436E+01	1.7893463035E+01	5.9320583932E+01	1.5788646112E+02	1.2516653502E+02	0.000E+00	0.0
	-5	1	9	9	0	501	7.8088117143E+00	5.5663122514E+01	2.5429546509E+01	6.1834415854E+01	4.1800000000E+00	0.000E+00	0.0
	5	1	9	9	501	0	-8.1445524150E+01	-3.7769659479E+01	3.3891037424E+01	9.6052045262E+01	4.1800000000E+00	0.000E+00	0.0
</event>
<event>
    11  -1  1.0000000E+00  1.0000000E+00  -1.0000000E+00  -1.0000000E+00
	2212	-1	0	0	0	0	0.0000000000E+00	0.0000000000E+00	6.5000000000E+03	6.5000000000E+03	9.3827000000E-01	0.000E+00	0.0
	2212	-1	0	0	0	0	0.0000000000E+00	0.0000000000E+00	-6.5000000000E+03	6.5000000000E+03	9.3827000000E-01	0.000E+00	0.0
	2212	1	0	0	0	0	0.0000000000E+00	0.0000000000E+00	6.3227448900E+03	6.3227448900E+03	9.3827000000E-01	0.000E+00	0.0
	2212	1	0	0	0	0	0.0000000000E+00	0.0000000000E+00	-4.9376732548E+03	4.9376732548E+03	9.3827000000E-01	0.000E+00	0.0
	51	2	1	2	0	0	1.2963074277E+02	3.0498484554E+01	-1.2965358225E+03	1.6752495403E+03	1.0524835372E+03	0.000E+00	0.0
	1000022	2	5	5	0	0	-1.2963074277E+02	-3.0498484554E+01	-1.2331937360E+03	1.5019663715E+03	8.4699581085E+02	0.000E+00	0.0
	14	1	6	6	0	0	1.8523730470E+02	-8.1673970168E+01	-7.2272387412E+02	8.1788648031E+02	3.2500000000E+02	0.000E+00	0.0
	-14	1	6	6	0	0	-3.1486804747E+02	5.1175485614E+01	-5.1046986184E+02	6.8407989116E+02	3.2500000000E+02	0.000E+00	0.0
	25	2	5	5	0	0	1.2963074277E+02	3.0498484554E+01	-1.5187789929E+02	2.3761548372E+02	1.2513966110E+02	0.000E+00	0.0
	-5	1	9	9	0	501	9.9128512003E+01	5.5194947442E+01	-4.2323022481E+01	1.2116787836E+02	4.1800000000E+00	0.000E+00	0.0
	5	1	9	9	501	0	3.0502230771E+01	-2.4696462887E+01	-1.0955487681E+02	1.1644760536E+02	4.1800000000E+00	0.000E+00	0.0
</event>
<event>
    11  -1  1.0000000E+00  1.0000000E+00  -1.0000000E+00  -1.0000000E+00
	2212	-1	0	0	0	0	0.0000000000E+00	0.0000000000E+00	6.5000000000E+03	6.5000000000E+03	9.3827000000E-01	0.000E+00	0.0
	2212	-1	0	0	0	0	0.0000000000E+00	0.0000000000E+00	-6.5000000000E+03	6.5000000000E+03	9.3827000000E-01	0.000E+00	0.0
	2212	1	0	0	0	0	0.0000000000E+00	0.0000000000E+00	6.1443034510E+03	6.1443034510E+03	9.3827000000E-01	0.000E+00	0.0
	2212	1	0	0	0	0	0.0000000000E+00	0.0000000000E+00	-5.7318780522E+03	5.7318780522E+03	9.3827000000E-01	0.000E+00	0.0
	51	2	1	2	0	0	3.5858300956E+01	-5.9222475499E+01	-2.9432368969E+02	1.0882522033E+03	1.0454058084E+03	0.000E+00	0.0
	1000022	2	5	5	0	0	-3.5858300956E+01	5.9222475499E+01	-4.6192427492E+02	9.7244884291E+02	8.5293000707E+02	0.000E+00	0.0
	14	1	6	6	0	0	4.8559537179E+01	-1.9775486999E+01	-5.2703870325E+02	6.2140477409E+02	3.2500000000E+02	0.000E+00	0.0
	-14	1	6	6	0	0	-8.4417838134E+01	7.8997962497E+01	6.5114428335E+01	3.5104406882E+02	3.2500000000E+02	0.000E+00	0.0
	25	2	5	5	0	0	3.5858300956E+01	-5.9222475499E+01	4.9498876090E+01	1.5136965396E+02	1.2517792958E+02	0.000E+00	0.0
	-5	1	9	9	0	501	4.2794301793E+01	-3.7197710316E+01	8.8890613397E+01	1.0551793908E+02	4.1800000000E+00	0.000E+00	0.0
	5	1	9	9	501	0	-6.9360008373E+00	-2.2024765182E+01	-3.9391737306E+01	4.5851714875E+01	4.1800000000E+00	0.000E+00	0.0
</event>
<event>
    11  -1  1.0000000E+00  1.0000000E+00  -1.0000000E+00  -1.0000000E+00
	2212	-1	0	0	0	0	0.0000000000E+00	0.0000000000E+00	6.5000000000E+03	6.5000000000E+03	9.3827000000E-01	0.000E+00	0.0
	2212	-1	0	0	0	0	0.0000000000E+00	0.0000000000E+00	-6.5000000000E+03	6.5000000000E+03	9.3827000000E-01	0.000E+00	0.0
	2212	1	0	0	0	0	0.0000000000E+00	0.0000000000E+00	6.2689653980E+03	6.2689653980E+03	9.3827000000E-01	0.000E+00	0.0
	2212	1	0	0	0	0	0.0000000000E+00	0.0000000000E+00	-5.3071606505E+03	5.3071606505E+03	9.3827000000E-01	0.000E+00	0.0
	51	2	1	2	0	0	1.0146704031E+02	8.6030702641E+01	-9.0523506414E+02	1.3926578979E+03	1.0499279296E+03	0.000E+00	0.0
	1000022	2	5	5	0	0	-1.0146704031E+02	-8.6030702641E+01	-8.5402397468E+02	1.2117824790E+03	8.4933090427E+02	0.000E+00	0.0
	14	1	6	6	0	0	-1.7308913898E+02	-2.6800364112E+02	-3.1935032301E+02	5.5623325188E+02	3.2500000000E+02	0.000E+00	0.0
	-14	1	6	6	0	0	7.1622098670E+01	1.8197293848E+02	-5.3467365167E+02	6.5554922709E+02	3.2500000000E+02	0.000E+00	0.0
	25	2	5	5	0	0	1.0146704031E+02	8.6030702641E+01	-1.0778077290E+02	2.1209147252E+02	1.2517689740E+02	0.000E+00	0.0
	-5	1	9	9	0	501	2.7588724173E+01	-3.0279022662E+01	-8.0744504561E+00	4.1959814883E+01	4.1800000000E+00	0.000E+00	0.0
	5	1	9	9	501	0	7.3878316135E+01	1.1630972530E+02	-9.9706322449E+01	1.7013165764E+02	4.1800000000E+00	0.000E+00	0.0
</event>
<event>
    11  -1  1.0000000E+00  1.0000000E+00  -1.0000000E+00  -1.0000000E+00
	2212	-1	0	0	0	0	0.0000000000E+00	0.0000000000E+00	6.5000000000E+03	6.5000000000E+03	9.3827000000E-01	0.000E+00	0.0
	2212	-1	0	0	0	0	0.0000000000E+00	0.0000000000E+00	-6.5000000000E+03	6.5000000000E+03	9.3827000000E-01	0.000E+00	0.0
	2212	1	0	0	0	0	0.0000000000E+00	0.0000000000E+00	5.2152203918E+03	5.2152203918E+03	9.3827000000E-01	0.000E+00	0.0
	2212	1	0	0	0	0	0.0000000000E+00	0.0000000000E+00	-6.2884067298E+03	6.2884067298E+03	9.3827000000E-01	0.000E+00	0.0
	51	2	1	2	0	0	3.4044900565E+00	-1.0120914329E+02	9.5884069727E+02	1.4202229540E+03	1.0427861119E+03	0.000E+00	0.0
	1000022	2	5	5	0	0	-3.4044900565E+00	1.0120914329E+02	1.0084684966E+03	1.3228497230E+03	8.5009870010E+02	0.000E+00	0.0
	14	1	6	6	0	0	2.5724718608E+02	1.0604048636E+02	6.1939456551E+02	7.5279168916E+02	3.2500000000E+02	0.000E+00	0.0
	-14	1	6	6	0	0	-2.6065167613E+02	-4.8313430613E+00	3.8907393106E+02	5.7005803387E+02	3.2500000000E+02	0.000E+00	0.0
	25	2	5	5	0	0	3.4044900565E+00	-1.0120914329E+02	6.4717841379E+01	1.7352315532E+02	1.2516790803E+02	0.000E+00	0.0
	-5	1	9	9	0	501	5.1621508200E+01	-7.0539561726E+00	3.7153033144E+01	6.4127674824E+01	4.1800000000E+00	0.000E+00	0.0
	5	1	9	9	501	0	-4.8217018144E+01	-9.4155187121E+01	2.7564808235E+01	1.0939548050E+02	4.1800000000E+00	0.000E+00	0.0
</event>
<event>
    11  -1  1.0000000E+00  1.0000000E+00  -1.0000000E+00  -1.0000000E+00
	2212	-1	0	0	0	0	0.0000000000E+00	0.0000000000E+00	6.5000000000E+03	6.5000000000E+03	9.3827000000E-01	0.000E+00	0.0
	2212	-1	0	0	0	0	0.0000000000E+00	0.0000000000E+00	-6.5000000000E+03	6.5000000000E+03	9.3827000000E-01	0.000E+00	0.0
	2212	1	0	0	0	0	0.0000000000E+00	0.0000000000E+00	5.8406764510E+03	5.8406764510E+03	9.3827000000E-01	0.000E+00	0.0
	2212	1	0	0	0	0	0.0000000000E+00	0.0000000000E+00	-6.0835821273E+03	6.0835821273E+03	9.3827000000E-01	0.000E+00	0.0
	51	2	1	2	0	0	-1.1685507043E+02	-6.0238401491E+00	1.6533344786E+02	1.0673532601E+03	1.0479582237E+03	0.000E+00	0.0
	1000022	2	5	5	0	0	1.1685507043E+02	6.0238401491E+00	2.7904015829E+02	9.0061678488E+02	8.4826634328E+02	0.000E+00	0.0
	14	1	6	6	0	0	-1.2074720670E+02	-1.7206315780E+02	1.5129906249E+01	3.8734936719E+02	3.2500000000E+02	0.000E+00	0.0
	-14	1	6	6	0	0	2.3760227713E+02	1.7808699795E+02	2.6391025204E+02	5.1326741770E+02	3.2500000000E+02	0.000E+00	0.0
	25	2	5	5	0	0	-1.1685507043E+02	-6.0238401491E+00	-3.6134481929E+01	1.7512463680E+02	1.2518603554E+02	0.000E+00	0.0
	-5	1	9	9	0	501	-1.3145361472E+02	4.4109751963E+00	-6.0287288505E+01	1.4474646483E+02	4.1800000000E+00	0.000E+00	0.0
	5	1	9	9	501	0	1.4598544289E+01	-1.0434815345E+01	2.4152806576E+01	3.0378171969E+01	4.1800000000E+00	0.000E+00	0.0
</event>
<event>
    11  -1  1.0000000E+00  1.0000000E+00  -1.0000000E+00  -1.0000000E+00
	2212	-1	0	0	0	0	0.0000000000E+00	0.0000000000E+00	6.5000000000E+03	6.5000000000E+03	9.3827000000E-01	0.000E+00	0.0
	2212	-1	0	0	0	0	0.0000000000E+00	0.0000000000E+00	-6.5000000000E+03	6.5000000000E+03	9.3827000000E-01	0.000E+00	0.0
	2212	1	0	0	0	0	0.0000000000E+00	0.0000000000E+00	4.9693149878E+03	4.9693149878E+03	9.3827000000E-01	0.000E+00	0.0
	2212	1	0	0	0	0	0.0000000000E+00	0.0000000000E+00	-6.3191409661E+03	6.3191409661E+03	9.3827000000E-01	0.000E+00	0.0
	51	2	1	2	0	0	-3.0684095858E+01	-8.6755332384E+01	1.5488406207E+03	1.8747608167E+03	1.0523083437E+03	0.000E+00	0.0
	1000022	2	5	5	0	0	3.0684095858E+01	8.6755332384E+01	9.1644692338E+02	1.2511593285E+03	8.4679200543E+02	0.000E+00	0.0
	14	1	6	6	0	0	1.7795230102E+02	2.0123924771E+02	7.0341704344E+02	8.2011267108E+02	3.2500000000E+02	0.000E+00	0.0
	-14	1	6	6	0	0	-1.4726820516E+02	-1.1448391533E+02	2.1302987994E+02	4.3104665742E+02	3.2500000000E+02	0.000E+00	0.0
	25	2	5	5	0	0	-3.0684095858E+01	-8.6755332384E+01	4.3337905490E+02	4.6038471764E+02	1.2517460438E+02	0.000E+00	0.0
	-5	1	9	9	0	501	4.7986430117E+01	-3.8058365501E+01	2.0321711086E+02	2.1228707734E+02	4.1800000000E+00	0.000E+00	0.0
	5	1	9	9	501	0	-7.8670525975E+01	-4.8696966883E+01	2.3016194404E+02	2.4809764030E+02	4.1800000000E+00	0.000E+00	0.0
</event>
<event>
    11  -1  1.0000000E+00  1.0000000E+00  -1.0000000E+00  -1.0000000E+00
	2212	-1	0	0	0	0	0.0000000000E+00	0.0000000000E+00	6.5000000000E+03	6.5000000000E+03	9.3827000000E-01	0.000E+00	0.0
	2212	-1	0	0	0	0	0.0000000000E+00	0.0000000000E+00	-6.5000000000E+03	6.5000000000E+03	9.3827000000E-01	0.000E+00	0.0
	2212	1	0	0	0	0	0.0000000000E+00	0.0000000000E+00	6.1003929802E+03	6.1003929802E+03	9.3827000000E-01	0.000E+00	0.0
	2212	1	0	0	0	0	0.0000000000E+00	0.0000000000E+00	-5.7904324361E+03	5.7904324361E+03	9.3827000000E-01	0.000E+00	0.0
	51	2	1	2	0	0	1.0798052888E+01	-1.5506486483E+02	-2.6544310466E+02	1.1085190437E+03	1.0649848441E+03	0.000E+00	0.0
	1000022	2	5	5	0	0	-1.0798052888E+01	1.5506486483E+02	-2.9842855543E+02	9.0926072123E+02	8.4470926728E+02	0.000E+00	0.0
	14	1	6	6	0	0	-1.2050446058E+02	-6.8838082604E+01	-3.4881862715E+02	4.9654752168E+02	3.2500000000E+02	0.000E+00	0.0
	-14	1	6	6	0	0	1.0970640769E+02	2.2390294743E+02	5.0390071725E+01	4.1271319955E+02	3.2500000000E+02	0.000E+00	0.0
	25	2	5	5	0	0	1.0798052888E+01	-1.5506486483E+02	-1.1531988680E+01	1.9991386243E+02	1.2518328715E+02	0.000E+00	0.0
	-5	1	9	9	0	501	-4.5015770963E+00	-3.0784183454E+01	-5.8273157672E+01	6.6190357699E+01	4.1800000000E+00	0.000E+00	0.0
	5	1	9	9	501	0	1.5299629984E+01	-1.2428068137E+02	4.6741168992E+01	1.3372350474E+02	4.1800000000E+00	0.000E+00	0.0
</event>
<event>
    11  -1  1.0000000E+00  1.0000000E+00  -1.0000000E+00  -1.0000000E+00
	2212	-1	0	0	0	0	0.0000000000E+00	0.0000000000E+00	6.5000000000E+03	6.5000000000E+03	9.3827000000E-01	0.000E+00	0.0
	2212	-1	0	0	0	0	0.0000000000E+00	0.0000000000E+00	-6.5000000000E+03	6.5000000000E+03	9.3827000000E-01	0.000E+00	0.0
	2212	1	0	0	0	0	0.0000000000E+00	0.0000000000E+00	6.1620114404E+03	6.1620114404E+03	9.3827000000E-01	0.000E+00	0.0
	2212	1	0	0	0	0	0.0000000000E+00	0.0000000000E+00	-5.6743743974E+03	5.6743743974E+03	9.3827000000E-01	0.000E+00	0.0
	51	2	1	2	0	0	-1.3003393236E+02	-2.9550374447E-01	-3.5049390884E+02	1.1206975166E+03	1.0565074693E+03	0.000E+00	0.0
	1000022	2	5	5	0	0	1.3003393236E+02	2.9550374447E-01	-5.2917573852E+02	9.7839662401E+02	8.1260327390E+02	0.000E+00	0.0
	14	1	6	6	0	0	-1.5803831661E+02	6.9123748932E+01	-3.3544212853E+02	4.9789619779E+02	3.2500000000E+02	0.000E+00	0.0
	-14	1	6	6	0	0	2.8807224897E+02	-6.8828245188E+01	-1.9373360999E+02	4.8050042622E+02	3.2500000000E+02	0.000E+00	0.0
	25	2	5	5	0	0	-1.3003393236E+02	-2.9550374447E-01	4.1538695520E+01	1.8521753818E+02	1.2518451316E+02	0.000E+00	0.0
	-5	1	9	9	0	501	-7.9208258395E+01	3.6307022194E+01	-2.7923627583E+01	9.1593391879E+01	4.1800000000E+00	0.000E+00	0.0
	5	1	9	9	501	0	-5.0825673963E+01	-3.6602525938E+01	6.9462323102E+01	9.3624146296E+01	4.1800000000E+00	0.000E+00	0.0
</event>
<event>
    11  -1  1.0000000E+00  1.0000000E+00  -1.0000000E+00  -1.0000000E+00
	2212	-1	0	0	0	0	0.0000000000E+00	0.0000000000E+00	6.5000000000E+03	6.5000000000E+03	9.3827000000E-01	0.000E+00	0.0
	2212	-1	0	0	0	0	0.0000000000E+00	0.0000000000E+00	-6.5000000000E+03	6.5000000000E+03	9.3827000000E-01	0.000E+00	0.0
	2212	1	0	0	0	0	0.0000000000E+00	0.0000000000E+00	4.9205992568E+03	4.9205992568E+03	9.3827000000E-01	0.000E+00	0.0
	2212	1	0	0	0	0	0.0000000000E+00	0.0000000000E+00	-6.3254725683E+03	6.3254725683E+03	9.3827000000E-01	0.000E+00	0.0
	51	2	1	2	0	0	-3.1880385895E+01	-7.9704108941E+01	1.2410927587E+03	1.6279666339E+03	1.0500452473E+03	0.000E+00	0.0
	1000022	2	5	5	0	0	3.1880385895E+01	7.9704108941E+01	1.3333654844E+03	1.5861415783E+03	8.5475873065E+02	0.000E+00	0.0
	14	1	6	6	0	0	2.2063918211E+01	-1.8680524908E+02	9.3239879774E+02	1.0051743807E+03	3.2500000000E+02	0.000E+00	0.0
	-14	1	6	6	0	0	9.8164676844E+00	2.6650935803E+02	4.0096668665E+02	5.8096719766E+02	3.2500000000E+02	0.000E+00	0.0
	25	2	5	5	0	0	-3.1880385895E+01	-7.9704108941E+01	7.1507827132E+01	1.6778659658E+02	1.2517934599E+02	0.000E+00	0.0
	-5	1	9	9	0	501	3.8357437592E+01	-6.9832581846E+01	4.7161588330E+01	9.2679934828E+01	4.1800000000E+00	0.000E+00	0.0
	5	1	9	9	501	0	-7.0237823487E+01	-9.8715270954E+00	2.4346238802E+01	7.5106661750E+01	4.1800000000E+00	0.000E+00	0.0
</event>
<event>
    11  -1  1.0000000E+00  1.0000000E+00  -1.0000000E+00  -1.0000000E+00
	2212	-1	0	0	0	0	0.0000000000E+00	0.0000000000E+00	6.5000000000E+03	6.5000000000E+03	9.3827000000E-01	0.000E+00	0.0
	2212	-1	0	0	0	0	0.0000000000E+00	0.0000000000E+00	-6.5000000000E+03	6.5000000000E+03	9.3827000000E-01	0.000E+00	0.0
	2212	1	0	0	0	0	0.0000000000E+00	0.0000000000E+00	6.2155829206E+03	6.2155829206E+03	9.3827000000E-01	0.000E+00	0.0
	2212	1	0	0	0	0	0.0000000000E+00	0.0000000000E+00	-5.5245555773E+03	5.5245555773E+03	9.3827000000E-01	0.000E+00	0.0
	51	2	1	2	0	0	-1.4829079496E+02	-1.2075609158E+01	-7.2393417529E+02	1.2868367750E+03	1.0534382826E+03	0.000E+00	0.0
	1000022	2	5	5	0	0	1.4829079496E+02	1.2075609158E+01	-5.3678623442E+02	1.0116730083E+03	8.4451573935E+02	0.000E+00	0.0
	14	1	6	6	0	0	2.7743632776E+02	-1.6004323053E+02	-3.7104127482E+02	5.8811680746E+02	3.2500000000E+02	0.000E+00	0.0
	-14	1	6	6	0	0	-1.2914553281E+02	1.7211883969E+02	-1.6574495960E+02	4.2355620082E+02	3.2500000000E+02	0.000E+00	0.0
	25	2	5	5	0	0	-1.4829079496E+02	-1.2075609158E+01	-1.5424110885E+02	2.4818849377E+02	1.2518477772E+02	0.000E+00	0.0
	-5	1	9	9	0	501	-1.3076705421E+02	1.0744324157E+00	-1.7446885897E+02	2.1807804113E+02	4.1800000000E+00	0.000E+00	0.0
	5	1	9	9	501	0	-1.7523740743E+01	-1.3150041574E+01	2.0227750120E+01	3.0110452636E+01	4.1800000000E+00	0.000E+00	0.0
</event>
<event>
    11  -1  1.0000000E+00  1.0000000E+00  -1.0000000E+00  -1.0000000E+00
	2212	-1	0	0	0	0	0.0000000000E+00	0.0000000000E+00	6.5000000000E+03	6.5000000000E+03	9.3827000000E-01	0.000E+00	0.0
	2212	-1	0	0	0	0	0.0000000000E+00	0.0000000000E+00	-6.5000000000E+03	6.5000000000E+03	9.3827000000E-01	0.000E+00	0.0
	2212	1	0	0	0	0	0.0000000000E+00	0.0000000000E+00	5.7829540279E+03	5.7829540279E+03	9.3827000000E-01	0.000E+00	0.0
	2212	1	0	0	0	0	0.0000000000E+00	0.0000000000E+00	-6.0659142043E+03	6.0659142043E+03	9.3827000000E-01	0.000E+00	0.0
	51	2	1	2	0	0	2.8073198278E+00	1.8168570994E+02	2.1465681081E+02	1.1507097853E+03	1.1158126569E+03	0.000E+00	0.0
	1000022	2	5	5	0	0	-2.8073198278E+00	-1.8168570994E+02	2.9681345489E+02	9.3004121816E+02	8.6247368785E+02	0.000E+00	0.0
	14	1	6	6	0	0	5.2646074838E+01	-1.2590296547E+02	4.4213269507E+02	5.6544627150E+02	3.2500000000E+02	0.000E+00	0.0
	-14	1	6	6	0	0	-5.5453394666E+01	-5.5782744470E+01	-1.4531924018E+02	3.6459494666E+02	3.2500000000E+02	0.000E+00	0.0
	25	2	5	5	0	0	2.8073198278E+00	1.8168570994E+02	-1.3853278419E+01	2.2109054963E+02	1.2518601987E+02	0.000E+00	0.0
	-5	1	9	9	0	501	-8.6992949315E+00	1.2125187450E+02	5.0737074455E+01	1.3179308755E+02	4.1800000000E+00	0.000E+00	0.0
	5	1	9	9	501	0	1.1506614759E+01	6.0433835439E+01	-6.4590352874E+01	8.9297462077E+01	4.1800000000E+00	0.000E+00	0.0
</event>
<event>
    11  -1  1.0000000E+00  1.0000000E+00  -1.0000000E+00  -1.0000000E+00
	2212	-1	0	0	0	0	0.0000000000E+00	0.0000000000E+00	6.5000000000E+03	6.5000000000E+03	9.3827000000E-01	0.000E+00	0.0
	2212	-1	0	0	0	0	0.0000000000E+00	0.0000000000E+00	-6.5000000000E+03	6.5000000000E+03	9.3827000000E-01	0.000E+00	0.0
	2212	1	0	0	0	0	0.0000000000E+00	0.0000000000E+00	6.2091000402E+03	6.2091000402E+03	9.3827000000E-01	0.000E+00	0.0
	2212	1	0	0	0	0	0.0000000000E+00	0.0000000000E+00	-5.6117726291E+03	5.6117726291E+03	9.3827000000E-01	0.000E+00	0.0
	51	2	1	2	0	0	-5.6460428478E+01	8.6538326892E+01	-5.9749451929E+02	1.1837303699E+03	1.0166322963E+03	0.000E+00	0.0
	1000022	2	5	5	0	0	5.6460428478E+01	-8.6538326892E+01	-5.0485922184E+02	9.9232149044E+02	8.4802266745E+02	0.000E+00	0.0
	14	1	6	6	0	0	1.0776005328E+02	-7.3076637061E+01	4.3379360541E+01	3.5278774481E+02	3.2500000000E+02	0.000E+00	0.0
	-14	1	6	6	0	0	-5.1299624798E+01	-1.3461689830E+01	-5.4823858238E+02	6.3953374563E+02	3.2500000000E+02	0.000E+00	0.0
	25	2	5	5	0	0	-5.6460428478E+01	8.6538326892E+01	-9.2468189338E+01	1.8680584028E+02	1.2517744972E+02	0.000E+00	0.0
	-5	1	9	9	0	501	-1.6600963112E+01	-3.2444875191E+01	-1.8500395207E+01	4.1085264089E+01	4.1800000000E+00	0.000E+00	0.0
	5	1	9	9	501	0	-3.9859465365E+01	1.1898320208E+02	-7.3967794131E+01	1.4572057619E+02	4.1800000000E+00	0.000E+00	0.0
</event>
<event>
    11  -1  1.0000000E+00  1.0000000E+00  -1.0000000E+00  -1.0000000E+00
	2212	-1	0	0	0	0	0.0000000000E+00	0.0000000000E+00	6.5000000000E+03	6.5000000000E+03	9.3827000000E-01	0.000E+00	0.0
	2212	-1	0	0	0	0	0.0000000000E+00	0.0000000000E+00	-6.5000000000E+03	6.5000000000E+03	9.3827000000E-01	0.000E+00	0.0
	2212	1	0	0	0	0	0.0000000000E+00	0.0000000000E+00	6.2375534857E+03	6.2375534857E+03	9.3827000000E-01	0.000E+00	0.0
	2212	1	0	0	0	0	0.0000000000E+00	0.0000000000E+00	-5.4094218100E+03	5.4094218100E+03	9.3827000000E-01	0.000E+00	0.0
	51	2	1	2	0	0	1.4750294153E+02	-6.7613851194E+01	-7.2156547509E+02	1.3007149049E+03	1.0699877468E+03	0.000E+00	0.0
	1000022	2	5	5	0	0	-1.4750294153E+02	6.7613851194E+01	-7.7275077973E+02	1.1407408058E+03	8.2329646413E+02	0.000E+00	0.0
	14	1	6	6	0	0	7.7617400357E+01	2.3634148521E+02	-3.7897695094E+02	5.5779054117E+02	3.2500000000E+02	0.000E+00	0.0
	-14	1	6	6	0	0	-2.2512034189E+02	-1.6872763402E+02	-3.9377382879E+02	5.8295026464E+02	3.2500000000E+02	0.000E+00	0.0
	25	2	5	5	0	0	1.4750294153E+02	-6.7613851194E+01	-5.5380895991E+01	2.1228389853E+02	1.2517451539E+02	0.000E+00	0.0
	-5	1	9	9	0	501	3.7223531061E+01	-6.8967450591E+01	-6.4436347329E+01	1.0154612628E+02	4.1800000000E+00	0.000E+00	0.0
	5	1	9	9	501	0	1.1027941047E+02	1.3535993968E+00	9.0554513373E+00	1.1073777225E+02	4.1800000000E+00	0.000E+00	0.0
</event>
<event>
    11  -1  1.0000000E+00  1.0000000E+00  -1.0000000E+00  -1.0000000E+00
	2212	-1	0	0	0	0	0.0000000000E+00	0.0000000000E+00	6.5000000000E+03	6.5000000000E+03	9.3827000000E-01	0.000E+00	0.0
	2212	-1	0	0	0	0	0.0000000000E+00	0.0000000000E+00	-6.5000000000E+03	6.5000000000E+03	9.3827000000E-01	0.000E+00	0.0
	2212	1	0	0	0	0	0.0000000000E+00	0.0000000000E+00	5.3513864213E+03	5.3513864213E+03	9.3827000000E-01	0.000E+00	0.0
	2212	1	0	0	0	0	0.0000000000E+00	0.0000000000E+00	-6.2636237675E+03	6.2636237675E+03	9.3827000000E-01	0.000E+00	0.0
	51	2	1	2	0	0	-8.5524595746E+01	5.2488196844E+01	8.1246646816E+02	1.3252135792E+03	1.0421227381E+03	0.000E+00	0.0
	1000022	2	5	5	0	0	8.5524595746E+01	-5.2488196844E+01	8.6188661102E+02	1.2168462967E+03	8.5311014072E+02	0.000E+00	0.0
	14	1	6	6	0	0	1.4718655933E+02	2.1862062691E+02	3.2147761546E+02	5.2766629512E+02	3.2500000000E+02	0.000E+00	0.0
	-14	1	6	6	0	0	-6.1661963583E+01	-2.7110882376E+02	5.4040899556E+02	6.8918000156E+02	3.2500000000E+02	0.000E+00	0.0
	25	2	5	5	0	0	-8.5524595746E+01	5.2488196844E+01	5.0350735153E+01	1.6814351450E+02	1.2517019475E+02	0.000E+00	0.0
	-5	1	9	9	0	501	-9.7989028288E+01	4.8605949456E+01	-6.5087183893E+00	1.0965502178E+02	4.1800000000E+00	0.000E+00	0.0
	5	1	9	9	501	0	1.2464432542E+01	3.8822473877E+00	5.6859453542E+01	5.8488492718E+01	4.1800000000E+00	0.000E+00	0.0
</event>
<event>
    11  -1  1.0000000E+00  1.0000000E+00  -1.0000000E+00  -1.0000000E+00
	2212	-1	0	0	0	0	0.0000000000E+00	0.0000000000E+00	6.5000000000E+03	6.5000000000E+03	9.3827000000E-01	0.000E+00	0.0
	2212	-1	0	0	0	0	0.0000000000E+00	0.0000000000E+00	-6.5000000000E+03	6.5000000000E+03	9.3827000000E-01	0.000E+00	0.0
	2212	1	0	0	0	0	0.0000000000E+00	0.0000000000E+00	6.2412873287E+03	6.2412873287E+03	9.3827000000E-01	0.000E+00	0.0
	2212	1	0	0	0	0	0.0000000000E+00	0.0000000000E+00	-5.4238728662E+03	5.4238728662E+03	9.3827000000E-01	0.000E+00	0.0
	51	2	1	2	0	0	7.6033809755E+01	6.5075946820E+01	-9.9275390658E+02	1.4523109997E+03	1.0552871181E+03	0.000E+00	0.0
	1000022	2	5	5	0	0	-7.6033809755E+01	-6.5075946820E+01	-4.9167907722E+02	9.7177167260E+02	8.3221142123E+02	0.000E+00	0.0
	14	1	6	6	0	0	-8.5114280834E+01	-3.2948889564E+01	-5.4466514911E+02	6.4079263010E+02	3.2500000000E+02	0.000E+00	0.0
	-14	1	6	6	0	0	9.0804710790E+00	-3.2127057256E+01	5.2986071898E+01	3.3097904251E+02	3.2500000000E+02	0.000E+00	0.0
	25	2	5	5	0	0	7.6033809755E+01	6.5075946820E+01	-3.2573538535E+02	3.6306813250E+02	1.2529528516E+02	0.000E+00	0.0
	-5	1	9	9	0	501	4.5746000673E+01	5.6021611217E+00	-2.0536881750E+01	5.0629207961E+01	4.1800000000E+00	0.000E+00	0.0
	5	1	9	9	501	0	3.0287809083E+01	5.9473785698E+01	-3.0519850360E+02	3.1243892453E+02	4.1800000000E+00	0.000E+00	0.0
</event>
<event>
    11  -1  1.0000000E+00  1.0000000E+00  -1.0000000E+00  -1.0000000E+00
	2212	-1	0	0	0	0	0.0000000000E+00	0.0000000000E+00	6.5000000000E+03	6.5000000000E+03	9.3827000000E-01	0.000E+00	0.0
	2212	-1	0	0	0	0	0.0000000000E+00	0.0000000000E+00	-6.5000000000E+03	6.5000000000E+03	9.3827000000E-01	0.000E+00	0.0
	2212	1	0	0	0	0	0.0000000000E+00	0.0000000000E+00	6.3366802556E+03	6.3366802556E+03	9.3827000000E-01	0.000E+00	0.0
	2212	1	0	0	0	0	0.0000000000E+00	0.0000000000E+00	-5.0050283892E+03	5.0050283892E+03	9.3827000000E-01	0.000E+00	0.0
	51	2	1	2	0	0	-5.3332249396E+00	3.0709026400E+01	-1.2527598722E+03	1.5959361861E+03	9.8824770439E+02	0.000E+00	0.0
	1000022	2	5	5	0	0	5.3332249396E+00	-3.0709026400E+01	-1.2271707479E+03	1.4922940130E+03	8.4854103569E+02	0.000E+00	0.0
	14	1	6	6	0	0	-4.6252077857E+01	-8.9473575643E+01	-1.0702235713E+03	1.1230085788E+03	3.2500000000E+02	0.000E+00	0.0
	-14	1	6	6	0	0	5.1585302796E+01	5.8764549243E+01	-1.5694717661E+02	3.6928543426E+02	3.2500000000E+02	0.000E+00	0.0
	25	2	5	5	0	0	-5.3332249396E+00	3.0709026400E+01	-1.0448111853E+02	1.6599734212E+02	1.2516918899E+02	0.000E+00	0.0
	-5	1	9	9	0	501	3.4900500518E+01	-9.8885310852E+00	-1.0232761671E+02	1.0864732636E+02	4.1800000000E+00	0.000E+00	0.0
	5	1	9	9	501	0	-4.0233725457E+01	4.0597557485E+01	-2.1535018143E+00	5.7350015762E+01	4.1800000000E+00	0.000E+00	0.0
</event>
<event>
    11  -1  1.0000000E+00  1.0000000E+00  -1.0000000E+00  -1.0000000E+00
	2212	-1	0	0	0	0	0.0000000000E+00	0.0000000000E+00	6.5000000000E+03	6.5000000000E+03	9.3827000000E-01	0.000E+00	0.0
	2212	-1	0	0	0	0	0.0000000000E+00	0.0000000000E+00	-6.5000000000E+03	6.5000000000E+03	9.3827000000E-01	0.000E+00	0.0
	2212	1	0	0	0	0	0.0000000000E+00	0.0000000000E+00	6.3199266939E+03	6.3199266939E+03	9.3827000000E-01	0.000E+00	0.0
	2212	1	0	0	0	0	0.0000000000E+00	0.0000000000E+00	-4.9855210929E+03	4.9855210929E+03	9.3827000000E-01	0.000E+00	0.0
	51	2	1	2	0	0	2.2162627882E+01	-7.9468919205E+01	-1.5390740600E+03	1.8618335985E+03	1.0444466933E+03	0.000E+00	0.0
	1000022	2	5	5	0	0	-2.2162627882E+01	7.9468919205E+01	-8.9840325329E+02	1.2335015624E+03	8.4118440774E+02	0.000E+00	0.0
	14	1	6	6	0	0	-1.0322974430E+02	-2.0952510447E+02	-4.7510665809E+02	6.2121532988E+02	3.2500000000E+02	0.000E+00	0.0
	-14	1	6	6	0	0	8.1067116418E+01	2.8899402367E+02	-4.2329659520E+02	6.1228623257E+02	3.2500000000E+02	0.000E+00	0.0
	25	2	5	5	0	0	2.2162627882E+01	-7.9468919205E+01	-4.3600234773E+02	4.6105065075E+02	1.2515256343E+02	0.000E+00	0.0
	-5	1	9	9	0	501	-2.0648187294E+01	-3.2493590860E+01	-3.5916362494E+02	3.6124529473E+02	4.1800000000E+00	0.000E+00	0.0
	5	1	9	9	501	0	4.2810815176E+01	-4.6975328346E+01	-7.6838722791E+01	9.9805356016E+01	4.1800000000E+00	0.000E+00	0.0
</event>
<event>
    11  -1  1.0000000E+00  1.0000000E+00  -1.0000000E+00  -1.0000000E+00
	2212	-1	0	0	0	0	0.0000000000E+00	0.0000000000E+00	6.5000000000E+03	6.5000000000E+03	9.3827000000E-01	0.000E+00	0.0
	2212	-1	0	0	0	0	0.0000000000E+00	0.0000000000E+00	-6.5000000000E+03	6.5000000000E+03	9.3827000000E-01	0.000E+00	0.0
	2212	1	0	0	0	0	0.0000000000E+00	0.0000000000E+00	6.3123606813E+03	6.3123606813E+03	9.3827000000E-01	0.000E+00	0.0
	2212	1	0	0	0	0	0.0000000000E+00	0.0000000000E+00	-5.0278951299E+03	5.0278951299E+03	9.3827000000E-01	0.000E+00	0.0
	51	2	1	2	0	0	1.2721119871E+02	-1.0620995838E+01	-1.3836601626E+03	1.7423288896E+03	1.0511417694E+03	0.000E+00	0.0
	1000022	2	5	5	0	0	-1.2721119871E+02	1.0620995838E+01	-9.6765881797E+02	1.2959682525E+03	8.5256942756E+02	0.000E+00	0.0
	14	1	6	6	0	0	1.9642994926E+02	-8.5948565645E+01	-5.0160482524E+02	6.3498368609E+02	3.2500000000E+02	0.000E+00	0.0
	-14	1	6	6	0	0	-3.2364114797E+02	9.6569561483E+01	-4.6605399273E+02	6.6098456639E+02	3.2500000000E+02	0.000E+00	0.0
	25	2	5	5	0	0	1.2721119871E+02	-1.0620995838E+01	-3.1680673341E+02	3.6377593628E+02	1.2518358859E+02	0.000E+00	0.0
	-5	1	9	9	0	501	1.1520582302E+02	3.2567269347E+00	-1.2133260113E+02	1.6739791045E+02	4.1800000000E+00	0.000E+00	0.0
	5	1	9	9	501	0	1.2005375688E+01	-1.3877722772E+01	-1.9547413228E+02	1.9637802583E+02	4.1800000000E+00	0.000E+00	0.0
</event>
<event>
    11  -1  1.0000000E+00  1.0000000E+00  -1.0000000E+00  -1.0000000E+00
	2212	-1	0	0	0	0	0.0000000000E+00	0.0000000000E+00	6.5000000000E+03	6.5000000000E+03	9.3827000000E-01	0.000E+00	0.0
	2212	-1	0	0	0	0	0.0000000000E+00	0.0000000000E+00	-6.5000000000E+03	6.5000000000E+03	9.3827000000E-01	0.000E+00	0.0
	2212	1	0	0	0	0	0.0000000000E+00	0.0000000000E+00	6.2072153505E+03	6.2072153505E+03	9.3827000000E-01	0.000E+00	0.0
	2212	1	0	0	0	0	0.0000000000E+00	0.0000000000E+00	-5.5765099939E+03	5.5765099939E+03	9.3827000000E-01	0.000E+00	0.0
	51	2	1	2	0	0	-3.7773711511E+01	-9.4676792008E+01	-5.8086424719E+02	1.1955453204E+03	1.0399686491E+03	0.000E+00	0.0
	1000022	2	5	5	0	0	3.7773711511E+01	9.4676792008E+01	-5.8242329846E+02	1.0477797826E+03	8.6500579534E+02	0.000E+00	0.0
	14	1	6	6	0	0	-2.4621610935E+02	-5.7120932529E+01	-3.0919542857E+02	5.1489026645E+02	3.2500000000E+02	0.000E+00	0.0
	-14	1	6	6	0	0	2.8398982086E+02	1.5179772454E+02	-2.7322786989E+02	5.3288951614E+02	3.2500000000E+02	0.000E+00	0.0
	25	2	5	5	0	0	-3.7773711511E+01	-9.4676792008E+01	-4.8282058142E+01	1.6849487308E+02	1.2517514486E+02	0.000E+00	0.0
	-5	1	9	9	0	501	3.7661441486E+01	-1.8596379168E+01	-4.4316228642E+01	6.1201388988E+01	4.1800000000E+00	0.000E+00	0.0
	5	1	9	9	501	0	-7.5435152997E+01	-7.6080412840E+01	-3.9658295006E+00	1.0729348410E+02	4.1800000000E+00	0.000E+00	0.0
</event>
<event>
    11  -1  1.0000000E+00  1.0000000E+00  -1.0000000E+00  -1.0000000E+00
	2212	-1	0	0	0	0	0.0000000000E+00	0.0000000000E+00	6.5000000000E+03	6.5000000000E+03	9.3827000000E-01	0.000E+00	0.0
	2212	-1	0	0	0	0	0.0000000000E+00	0.0000000000E+00	-6.5000000000E+03	6.5000000000E+03	9.3827000000E-01	0.000E+00	0.0
	2212	1	0	0	0	0	0.0000000000E+00	0.0000000000E+00	6.3240458621E+03	6.3240458621E+03	9.3827000000E-01	0.000E+00	0.0
	2212	1	0	0	0	0	0.0000000000E+00	0.0000000000E+00	-4.9601969375E+03	4.9601969375E+03	9.3827000000E-01	0.000E+00	0.0
	51	2	1	2	0	0	1.0550286908E+02	-3.0933261598E+01	-1.5014501264E+03	1.8303494436E+03	1.0410278005E+03	0.000E+00	0.0
	1000022	2	5	5	0	0	-1.0550286908E+02	3.0933261598E+01	-9.9723960659E+02	1.3130668275E+03	8.4709499963E+02	0.000E+00	0.0
	14	1	6	6	0	0	-1.8021284043E+02	2.5544130163E+02	-4.9174863821E+02	6.6720959946E+02	3.2500000000E+02	0.000E+00	0.0
	-14	1	6	6	0	0	7.4709971356E+01	-2.2450804003E+02	-5.0549096838E+02	6.4585722801E+02	3.2500000000E+02	0.000E+00	0.0
	25	2	5	5	0	0	1.0550286908E+02	-3.0933261598E+01	-3.6660931805E+02	4.0269037293E+02	1.2517756315E+02	0.000E+00	0.0
	-5	1	9	9	0	501	8.1168578735E+01	-6.6241453656E+01	-1.5763786692E+02	1.8932363256E+02	4.1800000000E+00	0.000E+00	0.0
	5	1	9	9	501	0	2.4334290340E+01	3.5308192058E+01	-2.0897145112E+02	2.1336674037E+02	4.1800000000E+00	0.000E+00	0.0
</event>
<event>
    11  -1  1.0000000E+00  1.0000000E+00  -1.0000000E+00  -1.0000000E+00
	2212	-1	0	0	0	0	0.0000000000E+00	0.0000000000E+00	6.5000000000E+03	6.5000000000E+03	9.3827000000E-01	0.000E+00	0.0
	2212	-1	0	0	0	0	0.0000000000E+00	0.0000000000E+00	-6.5000000000E+03	6.5000000000E+03	9.3827000000E-01	0.000E+00	0.0
	2212	1	0	0	0	0	0.0000000000E+00	0.0000000000E+00	6.0590035298E+03	6.0590035298E+03	9.3827000000E-01	0.000E+00	0.0
	2212	1	0	0	0	0	0.0000000000E+00	0.0000000000E+00	-5.8625710586E+03	5.8625710586E+03	9.3827000000E-01	0.000E+00	0.0
	51	2	1	2	0	0	7.2423257379E+01	-1.5202377370E+01	-4.9492681768E+01	1.0641153220E+03	1.0603846720E+03	0.000E+00	0.0
	1000022	2	5	5	0	0	-7.2423257379E+01	1.5202377370E+01	-3.0744224972E+02	8.9547770195E+02	8.3778477982E+02	0.000E+00	0.0
	14	1	6	6	0	0	-4.1913886376E+01	-3.1612640481E+01	-4.3184819311E+02	5.4302301498E+02	3.2500000000E+02	0.000E+00	0.0
	-14	1	6	6	0	0	-3.0509371002E+01	4.6815017851E+01	1.2440594339E+02	3.5245468697E+02	3.2500000000E+02	0.000E+00	0.0
	25	2	5	5	0	0	7.2423257379E+01	-1.5202377370E+01	1.1100977844E+02	1.8294770963E+02	1.2518168022E+02	0.000E+00	0.0
	-5	1	9	9	0	501	5.6451147511E+01	-2.6404080452E+01	-7.3737108642E+00	6.2894765536E+01	4.1800000000E+00	0.000E+00	0.0
	5	1	9	9	501	0	1.5972109867E+01	1.1201703083E+01	1.1838348931E+02	1.2005294410E+02	4.1800000000E+00	0.000E+00	0.0
</event>
<event>
    11  -1  1.0000000E+00  1.0000000E+00  -1.0000000E+00  -1.0000000E+00
	2212	-1	0	0	0	0	0.0000000000E+00	0.0000000000E+00	6.5000000000E+03	6.5000000000E+03	9.3827000000E-01	0.000E+00	0.0
	2212	-1	0	0	0	0	0.0000000000E+00	0.0000000000E+00	-6.5000000000E+03	6.5000000000E+03	9.3827000000E-01	0.000E+00	0.0
	2212	1	0	0	0	0	0.0000000000E+00	0.0000000000E+00	5.9343586209E+03	5.9343586209E+03	9.3827000000E-01	0.000E+00	0.0
	2212	1	0	0	0	0	0.0000000000E+00	0.0000000000E+00	-6.0102921370E+03	6.0102921370E+03	9.3827000000E-01	0.000E+00	0.0
	51	2	1	2	0	0	5.3078883018E+01	-3.2609650756E+01	2.1696230253E+02	1.0765451787E+03	1.0526139482E+03	0.000E+00	0.0
	1000022	2	5	5	0	0	-5.3078883018E+01	3.2609650756E+01	-7.8562518380E+01	8.4698101831E+02	8.4102557567E+02	0.000E+00	0.0
	14	1	6	6	0	0	-1.9914089569E+02	-1.1850283408E+02	-1.9302498280E+02	4.4337756146E+02	3.2500000000E+02	0.000E+00	0.0
	-14	1	6	6	0	0	1.4606201267E+02	1.5111248483E+02	1.1446246442E+02	4.0360345685E+02	3.2500000000E+02	0.000E+00	0.0
	25	2	5	5	0	0	5.3078883018E+01	-3.2609650756E+01	1.5449603441E+02	2.0836822381E+02	1.2517002397E+02	0.000E+00	0.0
	-5	1	9	9	0	501	6.7777406144E+01	1.4476553221E+01	1.4082534778E+02	1.5701145931E+02	4.1800000000E+00	0.000E+00	0.0
	5	1	9	9	501	0	-1.4698523126E+01	-4.7086203977E+01	1.3670686629E+01	5.1356764501E+01	4.1800000000E+00	0.000E+00	0.0
</event>
<event>
    11  -1  1.0000000E+00  1.0000000E+00  -1.0000000E+00  -1.0000000E+00
	2212	-1	0	0	0	0	0.0000000000E+00	0.0000000000E+00	6.5000000000E+03	6.5000000000E+03	9.3827000000E-01	0.000E+00	0.0
	2212	-1	0	0	0	0	0.0000000000E+00	0.0000000000E+00	-6.5000000000E+03	6.5000000000E+03	9.3827000000E-01	0.000E+00	0.0
	2212	1	0	0	0	0	0.0000000000E+00	0.0000000000E+00	5.9465070350E+03	5.9465070350E+03	9.3827000000E-01	0.000E+00	0.0
	2212	1	0	0	0	0	0.0000000000E+00	0.0000000000E+00	-6.0037298185E+03	6.0037298185E+03	9.3827000000E-01	0.000E+00	0.0
	51	2	1	2	0	0	-7.1544656749E+01	-8.8338842511E+01	-2.9791966800E+01	1.0547692483E+03	1.0482023740E+03	0.000E+00	0.0
	1000022	2	5	5	0	0	7.1544656749E+01	8.8338842511E+01	1.3437922822E+02	8.6390450002E+02	8.4578414456E+02	0.000E+00	0.0
	14	1	6	6	0	0	-1.9269672463E+02	-9.6344353121E+01	1.2226586028E+01	3.9011376734E+02	3.2500000000E+02	0.000E+00	0.0
	-14	1	6	6	0	0	2.6424138138E+02	1.8468319563E+02	1.2215264219E+02	4.7379073268E+02	3.2500000000E+02	0.000E+00	0.0
	25	2	5	5	0	0	-7.1544656749E+01	-8.8338842511E+01	-7.7156444652E+01	1.8585864651E+02	1.2517160431E+02	0.000E+00	0.0
	-5	1	9	9	0	501	-3.0341726422E+01	2.4957795885E+01	-4.7223838227E+01	6.1571708069E+01	4.1800000000E+00	0.000E+00	0.0
	5	1	9	9	501	0	-4.1202930327E+01	-1.1329663840E+02	-2.9932606426E+01	1.2428693844E+02	4.1800000000E+00	0.000E+00	0.0
</event>
<event>
    11  -1  1.0000000E+00  1.0000000E+00  -1.0000000E+00  -1.0000000E+00
	2212	-1	0	0	0	0	0.0000000000E+00	0.0000000000E+00	6.5000000000E+03	6.5000000000E+03	9.3827000000E-01	0.000E+00	0.0
	2212	-1	0	0	0	0	0.0000000000E+00	0.0000000000E+00	-6.5000000000E+03	6.5000000000E+03	9.3827000000E-01	0.000E+00	0.0
	2212	1	0	0	0	0	0.0000000000E+00	0.0000000000E+00	6.2034205902E+03	6.2034205902E+03	9.3827000000E-01	0.000E+00	0.0
	2212	1	0	0	0	0	0.0000000000E+00	0.0000000000E+00	-5.5840380896E+03	5.5840380896E+03	9.3827000000E-01	0.000E+00	0.0
	51	2	1	2	0	0	-1.0643614544E+02	5.4927653328E+01	-6.8759640500E+02	1.2544944350E+03	1.0424115172E+03	0.000E+00	0.0
	1000022	2	5	5	0	0	1.0643614544E+02	-5.4927653328E+01	-4.4818111130E+02	9.6897356359E+02	8.5070427192E+02	0.000E+00	0.0
	14	1	6	6	0	0	-3.1775457275E+01	-2.1592930893E+02	-4.2840187927E+02	5.8033465888E+02	3.2500000000E+02	0.000E+00	0.0
	-14	1	6	6	0	0	1.3821160271E+02	1.6100165561E+02	-1.9779232034E+01	3.8863890471E+02	3.2500000000E+02	0.000E+00	0.0
	25	2	5	5	0	0	-1.0643614544E+02	5.4927653328E+01	-1.7120138935E+02	2.4356775662E+02	1.2517841744E+02	0.000E+00	0.0
	-5	1	9	9	0	501	-4.8837938022E+01	-3.8588378821E+01	-7.4531808532E+01	9.7193981570E+01	4.1800000000E+00	0.000E+00	0.0
	5	1	9	9	501	0	-5.7598207417E+01	9.3516032148E+01	-9.6669580814E+01	1.4637377505E+02	4.1800000000E+00	0.000E+00	0.0
</event>
<event>
    11  -1  1.0000000E+00  1.0000000E+00  -1.0000000E+00  -1.0000000E+00
	2212	-1	0	0	0	0	0.0000000000E+00	0.0000000000E+00	6.5000000000E+03	6.5000000000E+03	9.3827000000E-01	0.000E+00	0.0
	2212	-1	0	0	0	0	0.0000000000E+00	0.0000000000E+00	-6.5000000000E+03	6.5000000000E+03	9.3827000000E-01	0.000E+00	0.0
	2212	1	0	0	0	0	0.0000000000E+00	0.0000000000E+00	5.6161570309E+03	5.6161570309E+03	9.3827000000E-01	0.000E+00	0.0
	2212	1	0	0	0	0	0.0000000000E+00	0.0000000000E+00	-6.1891970394E+03	6.1891970394E+03	9.3827000000E-01	0.000E+00	0.0
	51	2	1	2	0	0	-4.9606852835E+01	-1.0097920215E+02	4.9572048615E+02	1.1649894786E+03	1.0482385443E+03	0.000E+00	0.0
	1000022	2	5	5	0	0	4.9606852835E+01	1.0097920215E+02	5.5494024175E+02	1.0253768890E+03	8.5485756327E+02	0.000E+00	0.0
	14	1	6	6	0	0	-2.1974397402E+02	1.4218671330E+02	1.6332744753E+02	4.4811307800E+02	3.2500000000E+02	0.000E+00	0.0
	-14	1	6	6	0	0	2.6935082686E+02	-4.1207511147E+01	3.9161279422E+02	5.7726381101E+02	3.2500000000E+02	0.000E+00	0.0
	25	2	5	5	0	0	-4.9606852835E+01	-1.0097920215E+02	1.8099766791E+01	1.6926904065E+02	1.2516695830E+02	0.000E+00	0.0
	-5	1	9	9	0	501	-7.7155846737E+01	-1.9646229330E+01	-6.0824961116E+00	7.9959165651E+01	4.1800000000E+00	0.000E+00	0.0
	5	1	9	9	501	0	2.7548993902E+01	-8.1332972824E+01	2.4182262903E+01	8.9309875000E+01	4.1800000000E+00	0.000E+00	0.0
</event>
<event>
    11  -1  1.0000000E+00  1.0000000E+00  -1.0000000E+00  -1.0000000E+00
	2212	-1	0	0	0	0	0.0000000000E+00	0.0000000000E+00	6.5000000000E+03	6.5000000000E+03	9.3827000000E-01	0.000E+00	0.0
	2212	-1	0	0	0	0	0.0000000000E+00	0.0000000000E+00	-6.5000000000E+03	6.5000000000E+03	9.3827000000E-01	0.000E+00	0.0
	2212	1	0	0	0	0	0.0000000000E+00	0.0000000000E+00	6.2891849634E+03	6.2891849634E+03	9.3827000000E-01	0.000E+00	0.0
	2212	1	0	0	0	0	0.0000000000E+00	0.0000000000E+00	-5.1964864489E+03	5.1964864489E+03	9.3827000000E-01	0.000E+00	0.0
	51	2	1	2	0	0	-7.6483125999E+01	9.6092253850E+01	-1.2143871422E+03	1.6090433645E+03	1.0484278840E+03	0.000E+00	0.0
	1000022	2	5	5	0	0	7.6483125999E+01	-9.6092253850E+01	-7.8185120419E+02	1.1574661125E+03	8.4460233615E+02	0.000E+00	0.0
	14	1	6	6	0	0	1.5592757059E+02	1.1668342671E+02	-1.4179032299E+02	4.0454656720E+02	3.2500000000E+02	0.000E+00	0.0
	-14	1	6	6	0	0	-7.9444444593E+01	-2.1277568056E+02	-6.4006088120E+02	7.5291954528E+02	3.2500000000E+02	0.000E+00	0.0
	25	2	5	5	0	0	-7.6483125999E+01	9.6092253850E+01	-3.1084731027E+02	3.5686247521E+02	1.2506552722E+02	0.000E+00	0.0
	-5	1	9	9	0	501	-1.0474984341E+02	3.9826348504E+01	-1.9543732169E+02	2.2532617877E+02	4.1800000000E+00	0.000E+00	0.0
	5	1	9	9	501	0	2.8266717409E+01	5.6265905346E+01	-1.1540998858E+02	1.3153629644E+02	4.1800000000E+00	0.000E+00	0.0
</event>
<event>
    11  -1  1.0000000E+00  1.0000000E+00  -1.0000000E+00  -1.0000000E+00
	2212	-1	0	0	0	0	0.0000000000E+00	0.0000000000E+00	6.5000000000E+03	6.5000000000E+03	9.3827000000E-01	0.000E+00	0.0
	2212	-1	0	0	0	0	0.0000000000E+00	0.0000000000E+00	-6.5000000000E+03	6.5000000000E+03	9.3827000000E-01	0.000E+00	0.0
	2212	1	0	0	0	0	0.0000000000E+00	0.0000000000E+00	6.1492292617E+03	6.1492292617E+03	9.3827000000E-01	0.000E+00	0.0
	2212	1	0	0	0	0	0.0000000000E+00	0.0000000000E+00	-5.7221573923E+03	5.7221573923E+03	9.3827000000E-01	0.000E+00	0.0
	51	2	1	2	0	0	-9.8321813629E+01	-1.0121624779E+02	-4.5439740760E+02	1.1479401618E+03	1.0446902427E+03	0.000E+00	0.0
	1000022	2	5	5	0	0	9.8321813629E+01	1.0121624779E+02	-3.2609672695E+02	9.1465435662E+02	8.4281766053E+02	0.000E+00	0.0
	14	1	6	6	0	0	-1.4610074906E+02	2.0813898196E+02	-5.9875057976E+01	4.1698595571E+02	3.2500000000E+02	0.000E+00	0.0
	-14	1	6	6	0	0	2.4442256269E+02	-1.0692273417E+02	-2.6622166897E+02	4.9766840091E+02	3.2500000000E+02	0.000E+00	0.0
	25	2	5	5	0	0	-9.8321813629E+01	-1.0121624779E+02	-1.0097514242E+02	2.1395898941E+02	1.2518211497E+02	0.000E+00	0.0
	-5	1	9	9	0	501	-2.4437109780E+01	-1.1041755299E+02	-5.0586048386E+01	1.2395817453E+02	4.1800000000E+00	0.000E+00	0.0
	5	1	9	9	501	0	-7.3884703849E+01	9.2013051949E+00	-5.0389094038E+01	9.0000814875E+01	4.1800000000E+00	0.000E+00	0.0
</event>
<event>
    11  -1  1.0000000E+00  1.0000000E+00  -1.0000000E+00  -1.0000000E+00
	2212	-1	0	0	0	0	0.0000000000E+00	0.0000000000E+00	6.5000000000E+03	6.5000000000E+03	9.3827000000E-01	0.000E+00	0.0
	2212	-1	0	0	0	0	0.0000000000E+00	0.0000000000E+00	-6.5000000000E+03	6.5000000000E+03	9.3827000000E-01	0.000E+00	0.0
	2212	1	0	0	0	0	0.0000000000E+00	0.0000000000E+00	5.9500400999E+03	5.9500400999E+03	9.3827000000E-01	0.000E+00	0.0
	2212	1	0	0	0	0	0.0000000000E+00	0.0000000000E+00	-5.9993709305E+03	5.9993709305E+03	9.3827000000E-01	0.000E+00	0.0
	51	2	1	2	0	0	-1.0088902881E+02	-4.1610791624E+01	1.3897324886E+02	1.0642026452E+03	1.0494301559E+03	0.000E+00	0.0
	1000022	2	5	5	0	0	1.0088902881E+02	4.1610791624E+01	-4.8727099438E+01	8.5775180048E+02	8.4938434580E+02	0.000E+00	0.0
	14	1	6	6	0	0	-1.8679602297E+02	-1.7134216583E+01	-1.5668899911E+02	4.0664822392E+02	3.2500000000E+02	0.000E+00	0.0
	-14	1	6	6	0	0	2.8768505178E+02	5.8745008207E+01	1.0796189967E+02	4.5110357656E+02	3.2500000000E+02	0.000E+00	0.0
	25	2	5	5	0	0	-1.0088902881E+02	-4.1610791624E+01	9.8057930012E+01	1.9283716908E+02	1.2514296635E+02	0.000E+00	0.0
	-5	1	9	9	0	501	-1.2416386619E+02	-1.8160665998E+01	5.1758957318E+01	1.3580477723E+02	4.1800000000E+00	0.000E+00	0.0
	5	1	9	9	501	0	2.3274837385E+01	-2.3450125626E+01	4.6298972694E+01	5.7032391846E+01	4.1800000000E+00	0.000E+00	0.0
</event>
<event>
    11  -1  1.0000000E+00  1.0000000E+00  -1.0000000E+00  -1.0000000E+00
	2212	-1	0	0	0	0	0.0000000000E+00	0.0000000000E+00	6.5000000000E+03	6.5000000000E+03	9.3827000000E-01	0.000E+00	0.0
	2212	-1	0	0	0	0	0.0000000000E+00	0.0000000000E+00	-6.5000000000E+03	6.5000000000E+03	9.3827000000E-01	0.000E+00	0.0
	2212	1	0	0	0	0	0.0000000000E+00	0.0000000000E+00	5.3107747748E+03	5.3107747748E+03	9.3827000000E-01	0.000E+00	0.0
	2212	1	0	0	0	0	0.0000000000E+00	0.0000000000E+00	-6.2661842420E+03	6.2661842420E+03	9.3827000000E-01	0.000E+00	0.0
	51	2	1	2	0	0	3.3174582140E+01	1.6627311636E+02	1.0415711960E+03	1.4919303766E+03	1.0546271331E+03	0.000E+00	0.0
	1000022	2	5	5	0	0	-3.3174582140E+01	-1.6627311636E+02	6.8568217591E+02	1.0807386424E+03	8.1797840112E+02	0.000E+00	0.0
	14	1	6	6	0	0	8.1399328259E+01	1.3473729438E+02	1.9728891146E+02	4.1149471895E+02	3.2500000000E+02	0.000E+00	0.0
	-14	1	6	6	0	0	-1.1457391040E+02	-3.0101041075E+02	4.8839326445E+02	6.6924392346E+02	3.2500000000E+02	0.000E+00	0.0
	25	2	5	5	0	0	3.3174582140E+01	1.6627311636E+02	2.6972729131E+02	3.4230234085E+02	1.2518298106E+02	0.000E+00	0.0
	-5	1	9	9	0	501	7.0548662426E+01	5.5357171227E+01	8.5330395829E+01	1.2385588007E+02	4.1800000000E+00	0.000E+00	0.0
	5	1	9	9	501	0	-3.7374080286E+01	1.1091594514E+02	1.8439689548E+02	2.1844646077E+02	4.1800000000E+00	0.000E+00	0.0
</event>
<event>
    11  -1  1.0000000E+00  1.0000000E+00  -1.0000000E+00  -1.0000000E+00
	2212	-1	0	0	0	0	0.0000000000E+00	0.0000000000E+00	6.5000000000E+03	6.5000000000E+03	9.3827000000E-01	0.000E+00	0.0
	2212	-1	0	0	0	0	0.0000000000E+00	0.0000000000E+00	-6.5000000000E+03	6.5000000000E+03	9.3827000000E-01	0.000E+00	0.0
	2212	1	0	0	0	0	0.0000000000E+00	0.0000000000E+00	5.4052762085E+03	5.4052762085E+03	9.3827000000E-01	0.000E+00	0.0
	2212	1	0	0	0	0	0.0000000000E+00	0.0000000000E+00	-6.2458206111E+03	6.2458206111E+03	9.3827000000E-01	0.000E+00	0.0
	51	2	1	2	0	0	5.7419966201E+01	8.5379627335E+01	7.2498789949E+02	1.2842192511E+03	1.0549999513E+03	0.000E+00	0.0
	1000022	2	5	5	0	0	-5.7419966201E+01	-8.5379627335E+01	8.1341398843E+02	1.1846035652E+03	8.5501845414E+02	0.000E+00	0.0
	14	1	6	6	0	0	1.0013435777E+02	8.8913663861E+01	6.7377833393E+02	7.5995708596E+02	3.2500000000E+02	0.000E+00	0.0
	-14	1	6	6	0	0	-1.5755432397E+02	-1.7429329120E+02	1.3963565450E+02	4.2464647928E+02	3.2500000000E+02	0.000E+00	0.0
	25	2	5	5	0	0	5.7419966201E+01	8.5379627335E+01	2.7130414164E+01	1.6429961513E+02	1.2518614490E+02	0.000E+00	0.0
	-5	1	9	9	0	501	-3.3912723705E+01	4.1696054849E+01	-1.2767372186E+01	5.5399566890E+01	4.1800000000E+00	0.000E+00	0.0
	5	1	9	9	501	0	9.1332689905E+01	4.3683572485E+01	3.9897786351E+01	1.0890004824E+02	4.1800000000E+00	0.000E+00	0.0
</event>
<event>
    11  -1  1.0000000E+00  1.0000000E+00  -1.0000000E+00  -1.0000000E+00
	2212	-1	0	0	0	0	0.0000000000E+00	0.0000000000E+00	6.5000000000E+03	6.5000000000E+03	9.3827000000E-01	0.000E+00	0.0
	2212	-1	0	0	0	0	0.0000000000E+00	0.0000000000E+00	-6.5000000000E+03	6.5000000000E+03	9.3827000000E-01	0.000E+00	0.0
	2212	1	0	0	0	0	0.0000000000E+00	0.0000000000E+00	6.2644288869E+03	6.2644288869E+03	9.3827000000E-01	0.000E+00	0.0
	2212	1	0	0	0	0	0.0000000000E+00	0.0000000000E+00	-5.3313096495E+03	5.3313096495E+03	9.3827000000E-01	0.000E+00	0.0
	51	2	1	2	0	0	1.3519495184E+02	-1.1037006799E+02	-9.9215376315E+02	1.4546707749E+03	1.0493992314E+03	0.000E+00	0.0
	1000022	2	5	5	0	0	-1.3519495184E+02	1.1037006799E+02	-6.9400635374E+02	1.0828502391E+03	8.1268726724E+02	0.000E+00	0.0
	14	1	6	6	0	0	-1.5444891003E+02	-1.6385637662E+02	-2.5017183705E+02	4.6788281228E+02	3.2500000000E+02	0.000E+00	0.0
	-14	1	6	6	0	0	1.9253958191E+01	2.7422644461E+02	-4.4383451669E+02	6.1496742681E+02	3.2500000000E+02	0.000E+00	0.0
	25	2	5	5	0	0	1.3519495184E+02	-1.1037006799E+02	-2.3911288369E+02	3.2141122448E+02	1.2518377357E+02	0.000E+00	0.0
	-5	1	9	9	0	501	-2.2271301302E+01	-2.7950066319E+01	-2.9268578295E+01	4.6382530594E+01	4.1800000000E+00	0.000E+00	0.0
	5	1	9	9	501	0	1.5746625314E+02	-8.2420001668E+01	-2.0984430539E+02	2.7502869388E+02	4.1800000000E+00	0.000E+00	0.0
</event>
<event>
    11  -1  1.0000000E+00  1.0000000E+00  -1.0000000E+00  -1.0000000E+00
	2212	-1	0	0	0	0	0.0000000000E+00	0.0000000000E+00	6.5000000000E+03	6.5000000000E+03	9.3827000000E-01	0.000E+00	0.0
	2212	-1	0	0	0	0	0.0000000000E+00	0.0000000000E+00	-6.5000000000E+03	6.5000000000E+03	9.3827000000E-01	0.000E+00	0.0
	2212	1	0	0	0	0	0.0000000000E+00	0.0000000000E+00	6.3377480999E+03	6.3377480999E+03	9.3827000000E-01	0.000E+00	0.0
	2212	1	0	0	0	0	0.0000000000E+00	0.0000000000E+00	-4.8387253180E+03	4.8387253180E+03	9.3827000000E-01	0.000E+00	0.0
	51	2	1	2	0	0	-7.7522984994E+01	-5.5721828191E+01	-1.6028965569E+03	1.9122165157E+03	1.0383544170E+03	0.000E+00	0.0
	1000022	2	5	5	0	0	7.7522984994E+01	5.5721828191E+01	-1.1636440025E+03	1.4532161594E+03	8.6524858044E+02	0.000E+00	0.0
	14	1	6	6	0	0	2.2703420150E+02	1.8192641344E+02	-3.6388240032E+02	5.6804678489E+02	3.2500000000E+02	0.000E+00	0.0
	-14	1	6	6	0	0	-1.4951121651E+02	-1.2620458525E+02	-7.9976160216E+02	8.8516937447E+02	3.2500000000E+02	0.000E+00	0.0
	25	2	5	5	0	0	-7.7522984994E+01	-5.5721828191E+01	-3.3537877936E+02	3.7031042279E+02	1.2464408626E+02	0.000E+00	0.0
	-5	1	9	9	0	501	1.0837442281E+00	1.8097402104E+01	-1.8099490840E+02	1.8194867335E+02	4.1800000000E+00	0.000E+00	0.0
	5	1	9	9	501	0	-7.8606729222E+01	-7.3819230295E+01	-1.5438387096E+02	1.8836174944E+02	4.1800000000E+00	0.000E+00	0.0
</event>
<event>
    11  -1  1.0000000E+00  1.0000000E+00  -1.0000000E+00  -1.0000000E+00
	2212	-1	0	0	0	0	0.0000000000E+00	0.0000000000E+00	6.5000000000E+03	6.5000000000E+03	9.3827000000E-01	0.000E+00	0.0
	2212	-1	0	0	0	0	0.0000000000E+00	0.0000000000E+00	-6.5000000000E+03	6.5000000000E+03	9.3827000000E-01	0.000E+00	0.0
	2212	1	0	0	0	0	0.0000000000E+00	0.0000000000E+00	6.1521988521E+03	6.1521988521E+03	9.3827000000E-01	0.000E+00	0.0
	2212	1	0	0	0	0	0.0000000000E+00	0.0000000000E+00	-5.7061875473E+03	5.7061875473E+03	9.3827000000E-01	0.000E+00	0.0
	51	2	1	2	0	0	1.2296757558E+02	1.2087256083E+01	-3.8356291987E+02	1.1254968543E+03	1.0508832138E+03	0.000E+00	0.0
	1000022	2	5	5	0	0	-1.2296757558E+02	-1.2087256083E+01	-4.3325858646E+02	9.6524508602E+02	8.5364978003E+02	0.000E+00	0.0
	14	1	6	6	0	0	-2.7615367003E+02	1.6204957008E+02	-2.9225502778E+02	5.4181077315E+02	3.2500000000E+02	0.000E+00	0.0
	-14	1	6	6	0	0	1.5318609445E+02	-1.7413682617E+02	-1.4100355868E+02	4.2343431287E+02	3.2500000000E+02	0.000E+00	0.0
	25	2	5	5	0	0	1.2296757558E+02	1.2087256083E+01	-1.2752718396E+01	1.7636851460E+02	1.2520421203E+02	0.000E+00	0.0
	-5	1	9	9	0	501	2.3113235952E+00	3.2185692496E+01	3.2396832583E+01	4.5916099351E+01	4.1800000000E+00	0.000E+00	0.0
	5	1	9	9	501	0	1.2065625199E+02	-2.0098436413E+01	-4.5149550979E+01	1.3045241525E+02	4.1800000000E+00	0.000E+00	0.0
</event>
<event>
    11  -1  1.0000000E+00  1.0000000E+00  -1.0000000E+00  -1.0000000E+00
	2212	-1	0	0	0	0	0.0000000000E+00	0.0000000000E+00	6.5000000000E+03	6.5000000000E+03	9.3827000000E-01	0.000E+00	0.0
	2212	-1	0	0	0	0	0.0000000000E+00	0.0000000000E+00	-6.5000000000E+03	6.5000000000E+03	9.3827000000E-01	0.000E+00	0.0
	2212	1	0	0	0	0	0.0000000000E+00	0.0000000000E+00	4.9868882425E+03	4.9868882425E+03	9.3827000000E-01	0.000E+00	0.0
	2212	1	0	0	0	0	0.0000000000E+00	0.0000000000E+00	-6.3342996962E+03	6.3342996962E+03	9.3827000000E-01	0.000E+00	0.0
	51	2	1	2	0	0	-5.5357707417E+01	3.2815726770E+01	1.4245484123E+03	1.7425188200E+03	1.0014451115E+03	0.000E+00	0.0
	1000022	2	5	5	0	0	5.5357707417E+01	-3.2815726770E+01	1.0760648657E+03	1.3731291286E+03	8.5054491990E+02	0.000E+00	0.0
	14	1	6	6	0	0	2.0860996684E+02	-1.1109439379E+02	8.5325578643E+02	9.4314925631E+02	3.2500000000E+02	0.000E+00	0.0
	-14	1	6	6	0	0	-1.5325225942E+02	7.8278667016E+01	2.2280907928E+02	4.2997987224E+02	3.2500000000E+02	0.000E+00	0.0
	25	2	5	5	0	0	-5.5357707417E+01	3.2815726770E+01	2.7134658801E+02	3.0568293271E+02	1.2518680772E+02	0.000E+00	0.0
	-5	1	9	9	0	501	-7.7808247708E+01	5.5600973320E+01	2.4808330526E+02	2.6591049320E+02	4.1800000000E+00	0.000E+00	0.0
	5	1	9	9	501	0	2.2450540291E+01	-2.2785246549E+01	2.3263282749E+01	3.9772439502E+01	4.1800000000E+00	0.000E+00	0.0
</event>
<event>
    11  -1  1.0000000E+00  1.0000000E+00  -1.0000000E+00  -1.0000000E+00
	2212	-1	0	0	0	0	0.0000000000E+00	0.0000000000E+00	6.5000000000E+03	6.5000000000E+03	9.3827000000E-01	0.000E+00	0.0
	2212	-1	0	0	0	0	0.0000000000E+00	0.0000000000E+00	-6.5000000000E+03	6.5000000000E+03	9.3827000000E-01	0.000E+00	0.0
	2212	1	0	0	0	0	0.0000000000E+00	0.0000000000E+00	5.8708441211E+03	5.8708441211E+03	9.3827000000E-01	0.000E+00	0.0
	2212	1	0	0	0	0	0.0000000000E+00	0.0000000000E+00	-6.0665184213E+03	6.0665184213E+03	9.3827000000E-01	0.000E+00	0.0
	51	2	1	2	0	0	9.0414948684E+01	2.4678629491E+00	9.1362783218E+01	1.0523488233E+03	1.0444663395E+03	0.000E+00	0.0
	1000022	2	5	5	0	0	-9.0414948684E+01	-2.4678629491E+00	2.6678374400E+02	8.9261745349E+02	8.4700141612E+02	0.000E+00	0.0
	14	1	6	6	0	0	-3.1862270949E+00	1.5603333559E+02	3.5964231923E+02	5.0923879628E+02	3.2500000000E+02	0.000E+00	0.0
	-14	1	6	6	0	0	-8.7228721589E+01	-1.5850119854E+02	-9.2858575227E+01	3.8337865721E+02	3.2500000000E+02	0.000E+00	0.0
	25	2	5	5	0	0	9.0414948684E+01	2.4678629491E+00	-7.1109443806E+01	1.7002000403E+02	1.2517705652E+02	0.000E+00	0.0
	-5	1	9	9	0	501	2.5729050938E+00	4.8931504383E+01	-2.5975183996E+00	4.9245623802E+01	4.1800000000E+00	0.000E+00	0.0
	5	1	9	9	501	0	8.7842043590E+01	-4.6463641433E+01	-6.8511925407E+01	1.2077438023E+02	4.1800000000E+00	0.000E+00	0.0
</event>
<event>
    11  -1  1.0000000E+00  1.0000000E+00  -1.0000000E+00  -1.0000000E+00
	2212	-1	0	0	0	0	0.0000000000E+00	0.0000000000E+00	6.5000000000E+03	6.5000000000E+03	9.3827000000E-01	0.000E+00	0.0
	2212	-1	0	0	0	0	0.0000000000E+00	0.0000000000E+00	-6.5000000000E+03	6.5000000000E+03	9.3827000000E-01	0.000E+00	0.0
	2212	1	0	0	0	0	0.0000000000E+00	0.0000000000E+00	6.0993829137E+03	6.0993829137E+03	9.3827000000E-01	0.000E+00	0.0
	2212	1	0	0	0	0	0.0000000000E+00	0.0000000000E+00	-5.8248051768E+03	5.8248051768E+03	9.3827000000E-01	0.000E+00	0.0
	51	2	1	2	0	0	3.0785844643E+01	-8.4325734240E+01	-3.2027403966E+02	1.0920679417E+03	1.0401818740E+03	0.000E+00	0.0
	1000022	2	5	5	0	0	-3.0785844643E+01	8.4325734240E+01	-1.8792778331E+02	8.9909703710E+02	8.7464280292E+02	0.000E+00	0.0
	14	1	6	6	0	0	4.4679897082E+01	-8.9103050493E+01	1.6988896232E+02	3.8003013871E+02	3.2500000000E+02	0.000E+00	0.0
	-14	1	6	6	0	0	-7.5465741725E+01	1.7342878473E+02	-3.5781674563E+02	5.1906689839E+02	3.2500000000E+02	0.000E+00	0.0
	25	2	5	5	0	0	3.0785844643E+01	-8.4325734240E+01	-8.6649953546E+01	1.7671487239E+02	1.2514525156E+02	0.000E+00	0.0
	-5	1	9	9	0	501	2.3183797484E+01	2.8835174386E+01	-6.5599844188E+00	3.7808220577E+01	4.1800000000E+00	0.000E+00	0.0
	5	1	9	9	501	0	7.6020471589E+00	-1.1316090863E+02	-8.0089969127E+01	1.3890665181E+02	4.1800000000E+00	0.000E+00	0.0
</event>
<event>
    11  -1  1.0000000E+00  1.0000000E+00  -1.0000000E+00  -1.0000000E+00
	2212	-1	0	0	0	0	0.0000000000E+00	0.0000000000E+00	6.5000000000E+03	6.5000000000E+03	9.3827000000E-01	0.000E+00	0.0
	2212	-1	0	0	0	0	0.0000000000E+00	0.0000000000E+00	-6.5000000000E+03	6.5000000000E+03	9.3827000000E-01	0.000E+00	0.0
	2212	1	0	0	0	0	0.0000000000E+00	0.0000000000E+00	5.2520746134E+03	5.2520746134E+03	9.3827000000E-01	0.000E+00	0.0
	2212	1	0	0	0	0	0.0000000000E+00	0.0000000000E+00	-6.2854430221E+03	6.2854430221E+03	9.3827000000E-01	0.000E+00	0.0
	51	2	1	2	0	0	-3.0508725589E+01	-4.3205127583E+01	1.1987110189E+03	1.5845220006E+03	1.0348934236E+03	0.000E+00	0.0
	1000022	2	5	5	0	0	3.0508725589E+01	4.3205127583E+01	6.9967819057E+02	1.1021875179E+03	8.4998252262E+02	0.000E+00	0.0
	14	1	6	6	0	0	2.2483805179E+02	-1.4235687927E+02	2.6544682495E+02	4.9689500650E+02	3.2500000000E+02	0.000E+00	0.0
	-14	1	6	6	0	0	-1.9432932620E+02	1.8556200685E+02	4.3423136563E+02	6.0529251136E+02	3.2500000000E+02	0.000E+00	0.0
	25	2	5	5	0	0	-3.0508725589E+01	-4.3205127583E+01	3.3369021811E+02	3.6029484658E+02	1.2516289156E+02	0.000E+00	0.0
	-5	1	9	9	0	501	-3.3377966525E+01	-2.5348132770E+01	2.1019217543E+01	4.7073308683E+01	4.1800000000E+00	0.000E+00	0.0
	5	1	9	9	501	0	2.8692409355E+00	-1.7856994813E+01	3.1267100056E+02	3.1322153789E+02	4.1800000000E+00	0.000E+00	0.0
</event>
<event>
    11  -1  1.0000000E+00  1.0000000E+00  -1.0000000E+00  -1.0000000E+00
	2212	-1	0	0	0	0	0.0000000000E+00	0.0000000000E+00	6.5000000000E+03	6.5000000000E+03	9.3827000000E-01	0.000E+00	0.0
	2212	-1	0	0	0	0	0.0000000000E+00	0.0000000000E+00	-6.5000000000E+03	6.5000000000E+03	9.3827000000E-01	0.000E+00	0.0
	2212	1	0	0	0	0	0.0000000000E+00	0.0000000000E+00	6.1892553763E+03	6.1892553763E+03	9.3827000000E-01	0.000E+00	0.0
	2212	1	0	0	0	0	0.0000000000E+00	0.0000000000E+00	-5.6220851140E+03	5.6220851140E+03	9.3827000000E-01	0.000E+00	0.0
	51	2	1	2	0	0	-7.8366439217E+01	2.1389659577E+02	-6.0363263166E+02	1.2278007697E+03	1.0446192242E+03	0.000E+00	0.0
	1000022	2	5	5	0	0	7.8366439217E+01	-2.1389659577E+02	-4.0254135476E+02	8.8091041777E+02	7.4971365825E+02	0.000E+00	0.0
	14	1	6	6	0	0	-7.1775332267E+01	-5.6442509819E+00	-3.1352712180E+02	4.5728307644E+02	3.2500000000E+02	0.000E+00	0.0
	-14	1	6	6	0	0	1.5014177148E+02	-2.0825234479E+02	-8.9014232956E+01	4.2362734133E+02	3.2500000000E+02	0.000E+00	0.0
	25	2	5	5	0	0	-7.8366439217E+01	2.1389659577E+02	-1.6462890758E+02	3.0774909194E+02	1.2535459266E+02	0.000E+00	0.0
	-5	1	9	9	0	501	-5.4093229915E+01	3.1503553867E+01	-8.8719612983E+01	1.0866091090E+02	4.1800000000E+00	0.000E+00	0.0
	5	1	9	9	501	0	-2.4273209301E+01	1.8239304190E+02	-7.5909294595E+01	1.9908818104E+02	4.1800000000E+00	0.000E+00	0.0
</event>
<event>
    11  -1  1.0000000E+00  1.0000000E+00  -1.0000000E+00  -1.0000000E+00
	2212	-1	0	0	0	0	0.0000000000E+00	0.0000000000E+00	6.5000000000E+03	6.5000000000E+03	9.3827000000E-01	0.000E+00	0.0
	2212	-1	0	0	0	0	0.0000000000E+00	0.0000000000E+00	-6.5000000000E+03	6.5000000000E+03	9.3827000000E-01	0.000E+00	0.0
	2212	1	0	0	0	0	0.0000000000E+00	0.0000000000E+00	6.1123866788E+03	6.1123866788E+03	9.3827000000E-01	0.000E+00	0.0
	2212	1	0	0	0	0	0.0000000000E+00	0.0000000000E+00	-5.8094998351E+03	5.8094998351E+03	9.3827000000E-01	0.000E+00	0.0
	51	2	1	2	0	0	5.0836361161E+01	7.7181000882E+01	-3.9774058093E+02	1.1123520400E+03	1.0346923450E+03	0.000E+00	0.0
	1000022	2	5	5	0	0	-5.0836361161E+01	-7.7181000882E+01	-1.5788946950E+02	8.6539068178E+02	8.4583136914E+02	0.000E+00	0.0
	14	1	6	6	0	0	1.6083476982E+01	1.2181145731E+02	-2.9409162762E+02	4.5520500305E+02	3.2500000000E+02	0.000E+00	0.0
	-14	1	6	6	0	0	-6.6919838143E+01	-1.9899245820E+02	1.3620215812E+02	4.1018567873E+02	3.2500000000E+02	0.000E+00	0.0
	25	2	5	5	0	0	5.0836361161E+01	7.7181000882E+01	-1.4499737418E+02	2.1272280426E+02	1.2524180780E+02	0.000E+00	0.0
	-5	1	9	9	0	501	6.3742775030E+01	3.3536674537E+01	-1.5029257423E+02	1.6671286746E+02	4.1800000000E+00	0.000E+00	0.0
	5	1	9	9	501	0	-1.2906413869E+01	4.3644326345E+01	5.2952000517E+00	4.6009936803E+01	4.1800000000E+00	0.000E+00	0.0
</event>
<event>
    11  -1  1.0000000E+00  1.0000000E+00  -1.0000000E+00  -1.0000000E+00
	2212	-1	0	0	0	0	0.0000000000E+00	0.0000000000E+00	6.5000000000E+03	6.5000000000E+03	9.3827000000E-01	0.000E+00	0.0
	2212	-1	0	0	0	0	0.0000000000E+00	0.0000000000E+00	-6.5000000000E+03	6.5000000000E+03	9.3827000000E-01	0.000E+00	0.0
	2212	1	0	0	0	0	0.0000000000E+00	0.0000000000E+00	6.1720362133E+03	6.1720362133E+03	9.3827000000E-01	0.000E+00	0.0
	2212	1	0	0	0	0	0.0000000000E+00	0.0000000000E+00	-5.6728429622E+03	5.6728429622E+03	9.3827000000E-01	0.000E+00	0.0
	51	2	1	2	0	0	6.7637061158E+01	8.6495638497E+01	-4.7824177992E+02	1.1514693591E+03	1.0416862375E+03	0.000E+00	0.0
	1000022	2	5	5	0	0	-6.7637061158E+01	-8.6495638497E+01	-4.4254306422E+02	9.7920397431E+02	8.6656782313E+02	0.000E+00	0.0
	14	1	6	6	0	0	-2.1785853943E+02	1.6672746837E+02	-1.4537300064E+02	4.4946490545E+02	3.2500000000E+02	0.000E+00	0.0
	-14	1	6	6	0	0	1.5022147828E+02	-2.5322310687E+02	-2.9717006359E+02	5.2973906886E+02	3.2500000000E+02	0.000E+00	0.0
	25	2	5	5	0	0	6.7637061158E+01	8.6495638497E+01	-5.6650186909E+01	1.7591685023E+02	1.2522470602E+02	0.000E+00	0.0
	-5	1	9	9	0	501	1.2624684780E+01	1.0664910667E+02	-3.1273165701E+01	1.1193255966E+02	4.1800000000E+00	0.000E+00	0.0
	5	1	9	9	501	0	5.5012376378E+01	-2.0153468175E+01	-2.5377021208E+01	6.3984290569E+01	4.1800000000E+00	0.000E+00	0.0
</event>
<event>
    11  -1  1.0000000E+00  1.0000000E+00  -1.0000000E+00  -1.0000000E+00
	2212	-1	0	0	0	0	0.0000000000E+00	0.0000000000E+00	6.5000000000E+03	6.5000000000E+03	9.3827000000E-01	0.000E+00	0.0
	2212	-1	0	0	0	0	0.0000000000E+00	0.0000000000E+00	-6.5000000000E+03	6.5000000000E+03	9.3827000000E-01	0.000E+00	0.0
	2212	1	0	0	0	0	0.0000000000E+00	0.0000000000E+00	5.2095311179E+03	5.2095311179E+03	9.3827000000E-01	0.000E+00	0.0
	2212	1	0	0	0	0	0.0000000000E+00	0.0000000000E+00	-6.2924538746E+03	6.2924538746E+03	9.3827000000E-01	0.000E+00	0.0
	51	2	1	2	0	0	-8.3686063312E+01	-7.2192795682E+01	1.1264128185E+03	1.5337366985E+03	1.0350494026E+03	0.000E+00	0.0
	1000022	2	5	5	0	0	8.3686063312E+01	7.2192795682E+01	8.6922059761E+02	1.2268376715E+03	8.5870313150E+02	0.000E+00	0.0
	14	1	6	6	0	0	7.5425089907E+01	-2.2408566137E+02	5.5945025704E+02	6.8884898049E+02	3.2500000000E+02	0.000E+00	0.0
	-14	1	6	6	0	0	8.2609734052E+00	2.9627845705E+02	3.0977034057E+02	5.3798869105E+02	3.2500000000E+02	0.000E+00	0.0
	25	2	5	5	0	0	-8.3686063312E+01	-7.2192795682E+01	2.1370215906E+02	2.7117733597E+02	1.2511345977E+02	0.000E+00	0.0
	-5	1	9	9	0	501	8.4691549969E+00	-3.7475561527E+01	3.2465314068E+00	3.8783458643E+01	4.1800000000E+00	0.000E+00	0.0
	5	1	9	9	501	0	-9.2155218309E+01	-3.4717234155E+01	2.1045562766E+02	2.3239387733E+02	4.1800000000E+00	0.000E+00	0.0
</event>
<event>
    11  -1  1.0000000E+00  1.0000000E+00  -1.0000000E+00  -1.0000000E+00
	2212	-1	0	0	0	0	0.0000000000E+00	0.0000000000E+00	6.5000000000E+03	6.5000000000E+03	9.3827000000E-01	0.000E+00	0.0
	2212	-1	0	0	0	0	0.0000000000E+00	0.0000000000E+00	-6.5000000000E+03	6.5000000000E+03	9.3827000000E-01	0.000E+00	0.0
	2212	1	0	0	0	0	0.0000000000E+00	0.0000000000E+00	6.2691225753E+03	6.2691225753E+03	9.3827000000E-01	0.000E+00	0.0
	2212	1	0	0	0	0	0.0000000000E+00	0.0000000000E+00	-5.3036480293E+03	5.3036480293E+03	9.3827000000E-01	0.000E+00	0.0
	51	2	1	2	0	0	-3.7520167335E+02	-1.3622791531E+02	-1.0445292974E+03	1.5346720959E+03	1.0511149548E+03	0.000E+00	0.0
	1000022	2	5	5	0	0	3.7520167335E+02	1.3622791531E+02	-5.6939236753E+02	8.5113543441E+02	4.9080497035E+02	0.000E+00	0.0
	14	1	6	6	0	0	0.0000000000E+00	0.0000000000E+00	0.0000000000E+00	0.0000000000E+00	0.0000000000E+00	0.000E+00	0.0
	-14	1	6	6	0	0	0.0000000000E+00	0.0000000000E+00	0.0000000000E+00	0.0000000000E+00	0.0000000000E+00	0.000E+00	0.0
	25	2	5	5	0	0	-3.7520167335E+02	-1.3622791531E+02	-3.9608217843E+02	5.7609396097E+02	1.2517515413E+02	0.000E+00	0.0
	-5	1	9	9	0	501	-3.2242673660E+02	-6.7191777484E+01	-3.3492428142E+02	4.6975044664E+02	4.1800000000E+00	0.000E+00	0.0
	5	1	9	9	501	0	-5.2774936750E+01	-6.9036137824E+01	-6.1157897006E+01	1.0634351433E+02	4.1800000000E+00	0.000E+00	0.0
</event>
<event>
    11  -1  1.0000000E+00  1.0000000E+00  -1.0000000E+00  -1.0000000E+00
	2212	-1	0	0	0	0	0.0000000000E+00	0.0000000000E+00	6.5000000000E+03	6.5000000000E+03	9.3827000000E-01	0.000E+00	0.0
	2212	-1	0	0	0	0	0.0000000000E+00	0.0000000000E+00	-6.5000000000E+03	6.5000000000E+03	9.3827000000E-01	0.000E+00	0.0
	2212	1	0	0	0	0	0.0000000000E+00	0.0000000000E+00	4.9476505097E+03	4.9476505097E+03	9.3827000000E-01	0.000E+00	0.0
	2212	1	0	0	0	0	0.0000000000E+00	0.0000000000E+00	-6.3177153643E+03	6.3177153643E+03	9.3827000000E-01	0.000E+00	0.0
	51	2	1	2	0	0	1.1466172207E+02	-7.2396783902E+01	1.4889204503E+03	1.8349797158E+03	1.0638974787E+03	0.000E+00	0.0
	1000022	2	5	5	0	0	-1.1466172207E+02	7.2396783902E+01	1.0130064783E+03	1.3327008626E+03	8.5528992704E+02	0.000E+00	0.0
	14	1	6	6	0	0	-5.9454184391E+00	-2.0357629514E+02	6.8067051968E+02	7.8129124678E+02	3.2500000000E+02	0.000E+00	0.0
	-14	1	6	6	0	0	-1.0871630363E+02	2.7597307904E+02	3.3233595862E+02	5.5140961582E+02	3.2500000000E+02	0.000E+00	0.0
	25	2	5	5	0	0	1.1466172207E+02	-7.2396783902E+01	3.5705837633E+02	4.0193326340E+02	1.2518410160E+02	0.000E+00	0.0
	-5	1	9	9	0	501	2.6865082542E+01	3.5460934139E+01	7.2162874383E+01	8.4877342967E+01	4.1800000000E+00	0.000E+00	0.0
	5	1	9	9	501	0	8.7796639527E+01	-1.0785771804E+02	2.8489550194E+02	3.1705592043E+02	4.1800000000E+00	0.000E+00	0.0
</event>
<event>
    11  -1  1.0000000E+00  1.0000000E+00  -1.0000000E+00  -1.0000000E+00
	2212	-1	0	0	0	0	0.0000000000E+00	0.0000000000E+00	6.5000000000E+03	6.5000000000E+03	9.3827000000E-01	0.000E+00	0.0
	2212	-1	0	0	0	0	0.0000000000E+00	0.0000000000E+00	-6.5000000000E+03	6.5000000000E+03	9.3827000000E-01	0.000E+00	0.0
	2212	1	0	0	0	0	0.0000000000E+00	0.0000000000E+00	6.3176741616E+03	6.3176741616E+03	9.3827000000E-01	0.000E+00	0.0
	2212	1	0	0	0	0	0.0000000000E+00	0.0000000000E+00	-4.8531889335E+03	4.8531889335E+03	9.3827000000E-01	0.000E+00	0.0
	51	2	1	2	0	0	-1.6666017747E+02	-9.0525927000E+01	-1.4533617328E+03	1.8300971882E+03	1.0959127856E+03	0.000E+00	0.0
	1000022	2	5	5	0	0	1.6666017747E+02	9.0525927000E+01	-1.1927862791E+03	1.4749323824E+03	8.4659073156E+02	0.000E+00	0.0
	14	1	6	6	0	0	2.8906041776E+02	9.6553933287E-01	-3.4754476395E+02	5.5674879464E+02	3.2500000000E+02	0.000E+00	0.0
	-14	1	6	6	0	0	-1.2240024029E+02	8.9560387667E+01	-8.4524151514E+02	9.1818358773E+02	3.2500000000E+02	0.000E+00	0.0
	25	2	5	5	0	0	-1.6666017747E+02	-9.0525927000E+01	-2.7169894898E+02	3.5420452254E+02	1.2517973759E+02	0.000E+00	0.0
	-5	1	9	9	0	501	-1.6490321880E+02	-8.5451912845E+01	-1.6858244789E+02	2.5086373815E+02	4.1800000000E+00	0.000E+00	0.0
	5	1	9	9	501	0	-1.7569586633E+00	-5.0740141557E+00	-1.0311650108E+02	1.0334078439E+02	4.1800000000E+00	0.000E+00	0.0
</event>
<event>
    11  -1  1.0000000E+00  1.0000000E+00  -1.0000000E+00  -1.0000000E+00
	2212	-1	0	0	0	0	0.0000000000E+00	0.0000000000E+00	6.5000000000E+03	6.5000000000E+03	9.3827000000E-01	0.000E+00	0.0
	2212	-1	0	0	0	0	0.0000000000E+00	0.0000000000E+00	-6.5000000000E+03	6.5000000000E+03	9.3827000000E-01	0.000E+00	0.0
	2212	1	0	0	0	0	0.0000000000E+00	0.0000000000E+00	5.6733496190E+03	5.6733496190E+03	9.3827000000E-01	0.000E+00	0.0
	2212	1	0	0	0	0	0.0000000000E+00	0.0000000000E+00	-6.1654309035E+03	6.1654309035E+03	9.3827000000E-01	0.000E+00	0.0
	51	2	1	2	0	0	5.0856739455E+01	-8.4611811741E+01	4.0260021705E+02	1.1305393340E+03	1.0518016373E+03	0.000E+00	0.0
	1000022	2	5	5	0	0	-5.0856739455E+01	8.4611811741E+01	5.0092229217E+02	1.0016042143E+03	8.6170893736E+02	0.000E+00	0.0
	14	1	6	6	0	0	1.8877306152E+02	2.1394264434E+02	3.3193365326E+02	5.4517123364E+02	3.2500000000E+02	0.000E+00	0.0
	-14	1	6	6	0	0	-2.3962980098E+02	-1.2933083260E+02	1.6898863891E+02	4.5643298068E+02	3.2500000000E+02	0.000E+00	0.0
	25	2	5	5	0	0	5.0856739455E+01	-8.4611811741E+01	-8.8410076467E+00	1.5961526314E+02	1.2511315749E+02	0.000E+00	0.0
	-5	1	9	9	0	501	-1.5370000975E+01	-2.6132192655E+01	-5.2659517666E+01	6.0906696051E+01	4.1800000000E+00	0.000E+00	0.0
	5	1	9	9	501	0	6.6226740430E+01	-5.8479619085E+01	4.3818510020E+01	9.8708567089E+01	4.1800000000E+00	0.000E+00	0.0
</event>
<event>
    11  -1  1.0000000E+00  1.0000000E+00  -1.0000000E+00  -1.0000000E+00
	2212	-1	0	0	0	0	0.0000000000E+00	0.0000000000E+00	6.5000000000E+03	6.5000000000E+03	9.3827000000E-01	0.000E+00	0.0
	2212	-1	0	0	0	0	0.0000000000E+00	0.0000000000E+00	-6.5000000000E+03	6.5000000000E+03	9.3827000000E-01	0.000E+00	0.0
	2212	1	0	0	0	0	0.0000000000E+00	0.0000000000E+00	6.0447015348E+03	6.0447015348E+03	9.3827000000E-01	0.000E+00	0.0
	2212	1	0	0	0	0	0.0000000000E+00	0.0000000000E+00	-5.8808482471E+03	5.8808482471E+03	9.3827000000E-01	0.000E+00	0.0
	51	2	1	2	0	0	-9.6050685549E+01	-9.8822560077E+01	-2.1934853139E+02	1.0930236879E+03	1.0618829368E+03	0.000E+00	0.0
	1000022	2	5	5	0	0	9.6050685549E+01	9.8822560077E+01	-8.0055078471E+01	8.7028311213E+02	8.5556545459E+02	0.000E+00	0.0
	14	1	6	6	0	0	2.4451551896E+02	-1.3284962165E+01	1.4662891169E+02	4.3253828383E+02	3.2500000000E+02	0.000E+00	0.0
	-14	1	6	6	0	0	-1.4846483342E+02	1.1210752224E+02	-2.2668399017E+02	4.3774482830E+02	3.2500000000E+02	0.000E+00	0.0
	25	2	5	5	0	0	-9.6050685549E+01	-9.8822560077E+01	-8.3798209226E+01	2.0416710607E+02	1.2518160710E+02	0.000E+00	0.0
	-5	1	9	9	0	501	-3.8801372699E+01	-1.1315896145E+02	-8.1778148425E+01	1.4496770344E+02	4.1800000000E+00	0.000E+00	0.0
	5	1	9	9	501	0	-5.7249312850E+01	1.4336401373E+01	-2.0200608004E+00	5.9199402630E+01	4.1800000000E+00	0.000E+00	0.0
</event>
<event>
    11  -1  1.0000000E+00  1.0000000E+00  -1.0000000E+00  -1.0000000E+00
	2212	-1	0	0	0	0	0.0000000000E+00	0.0000000000E+00	6.5000000000E+03	6.5000000000E+03	9.3827000000E-01	0.000E+00	0.0
	2212	-1	0	0	0	0	0.0000000000E+00	0.0000000000E+00	-6.5000000000E+03	6.5000000000E+03	9.3827000000E-01	0.000E+00	0.0
	2212	1	0	0	0	0	0.0000000000E+00	0.0000000000E+00	6.2295033620E+03	6.2295033620E+03	9.3827000000E-01	0.000E+00	0.0
	2212	1	0	0	0	0	0.0000000000E+00	0.0000000000E+00	-5.4732294963E+03	5.4732294963E+03	9.3827000000E-01	0.000E+00	0.0
	51	2	1	2	0	0	1.2657363826E+02	2.0521662682E+01	-6.6968044654E+02	1.2553349363E+03	1.0540170194E+03	0.000E+00	0.0
	1000022	2	5	5	0	0	-1.2657363826E+02	-2.0521662682E+01	-7.1060993154E+02	1.1123329613E+03	8.4609462676E+02	0.000E+00	0.0
	14	1	6	6	0	0	-1.8231293415E+01	1.9511412371E+02	-1.2330322654E+02	3.9903707473E+02	3.2500000000E+02	0.000E+00	0.0
	-14	1	6	6	0	0	-1.0834234485E+02	-2.1563578639E+02	-5.8730670500E+02	7.1329588657E+02	3.2500000000E+02	0.000E+00	0.0
	25	2	5	5	0	0	1.2657363826E+02	2.0521662682E+01	-4.5663934163E+01	1.8493418047E+02	1.2519357683E+02	0.000E+00	0.0
	-5	1	9	9	0	501	9.9597065292E+01	-3.9133805312E+01	-5.1954656244E+01	1.1902852111E+02	4.1800000000E+00	0.000E+00	0.0
	5	1	9	9	501	0	2.6976572972E+01	5.9655467995E+01	6.2907220813E+00	6.5905659357E+01	4.1800000000E+00	0.000E+00	0.0
</event>
<event>
    11  -1  1.0000000E+00  1.0000000E+00  -1.0000000E+00  -1.0000000E+00
	2212	-1	0	0	0	0	0.0000000000E+00	0.0000000000E+00	6.5000000000E+03	6.5000000000E+03	9.3827000000E-01	0.000E+00	0.0
	2212	-1	0	0	0	0	0.0000000000E+00	0.0000000000E+00	-6.5000000000E+03	6.5000000000E+03	9.3827000000E-01	0.000E+00	0.0
	2212	1	0	0	0	0	0.0000000000E+00	0.0000000000E+00	6.1041285004E+03	6.1041285004E+03	9.3827000000E-01	0.000E+00	0.0
	2212	1	0	0	0	0	0.0000000000E+00	0.0000000000E+00	-5.8041822519E+03	5.8041822519E+03	9.3827000000E-01	0.000E+00	0.0
	51	2	1	2	0	0	-1.9910124034E+01	1.3982538377E+02	-3.4823752794E+02	1.1149146104E+03	1.0496750267E+03	0.000E+00	0.0
	1000022	2	5	5	0	0	1.9910124034E+01	-1.3982538377E+02	-1.9926435658E+02	8.7778215901E+02	8.4311783511E+02	0.000E+00	0.0
	14	1	6	6	0	0	-1.2992430090E+02	4.9034269006E+01	-2.9682514701E+02	4.6153531977E+02	3.2500000000E+02	0.000E+00	0.0
	-14	1	6	6	0	0	1.4983442494E+02	-1.8885965278E+02	9.7560790434E+01	4.1624683923E+02	3.2500000000E+02	0.000E+00	0.0
	25	2	5	5	0	0	-1.9910124034E+01	1.3982538377E+02	-1.0068189196E+02	2.1390708872E+02	1.2518725276E+02	0.000E+00	0.0
	-5	1	9	9	0	501	1.8021569650E+01	-1.4120341521E+01	-3.5460111726E+01	4.2415244204E+01	4.1800000000E+00	0.000E+00	0.0
	5	1	9	9	501	0	-3.7931693684E+01	1.5394572529E+02	-6.5221780230E+01	1.7149184452E+02	4.1800000000E+00	0.000E+00	0.0
</event>
<event>
    11  -1  1.0000000E+00  1.0000000E+00  -1.0000000E+00  -1.0000000E+00
	2212	-1	0	0	0	0	0.0000000000E+00	0.0000000000E+00	6.5000000000E+03	6.5000000000E+03	9.3827000000E-01	0.000E+00	0.0
	2212	-1	0	0	0	0	0.0000000000E+00	0.0000000000E+00	-6.5000000000E+03	6.5000000000E+03	9.3827000000E-01	0.000E+00	0.0
	2212	1	0	0	0	0	0.0000000000E+00	0.0000000000E+00	5.9886371905E+03	5.9886371905E+03	9.3827000000E-01	0.000E+00	0.0
	2212	1	0	0	0	0	0.0000000000E+00	0.0000000000E+00	-5.9535392338E+03	5.9535392338E+03	9.3827000000E-01	0.000E+00	0.0
	51	2	1	2	0	0	-2.7989835407E+01	-1.1704605539E+02	-1.1466670657E+02	1.0702291877E+03	1.0572411507E+03	0.000E+00	0.0
	1000022	2	5	5	0	0	2.7989835407E+01	1.1704605539E+02	5.0481997893E+01	8.6424519489E+02	8.5433489617E+02	0.000E+00	0.0
	14	1	6	6	0	0	2.3503431449E+02	1.8400927877E+02	1.4010762184E+02	4.6298562544E+02	3.2500000000E+02	0.000E+00	0.0
	-14	1	6	6	0	0	-2.0704447909E+02	-6.6963223384E+01	-8.9625623947E+01	4.0125956945E+02	3.2500000000E+02	0.000E+00	0.0
	25	2	5	5	0	0	-2.7989835407E+01	-1.1704605539E+02	-8.5579954550E+01	1.9357838078E+02	1.2516169907E+02	0.000E+00	0.0
	-5	1	9	9	0	501	-4.9023270843E+00	-1.3821059263E+02	-8.4164465199E+01	1.6194854222E+02	4.1800000000E+00	0.000E+00	0.0
	5	1	9	9	501	0	-2.3087508323E+01	2.1164537238E+01	-1.4154893512E+00	3.1629838557E+01	4.1800000000E+00	0.000E+00	0.0
</event>
<event>
    11  -1  1.0000000E+00  1.0000000E+00  -1.0000000E+00  -1.0000000E+00
	2212	-1	0	0	0	0	0.0000000000E+00	0.0000000000E+00	6.5000000000E+03	6.5000000000E+03	9.3827000000E-01	0.000E+00	0.0
	2212	-1	0	0	0	0	0.0000000000E+00	0.0000000000E+00	-6.5000000000E+03	6.5000000000E+03	9.3827000000E-01	0.000E+00	0.0
	2212	1	0	0	0	0	0.0000000000E+00	0.0000000000E+00	5.5987860028E+03	5.5987860028E+03	9.3827000000E-01	0.000E+00	0.0
	2212	1	0	0	0	0	0.0000000000E+00	0.0000000000E+00	-6.1908850734E+03	6.1908850734E+03	9.3827000000E-01	0.000E+00	0.0
	51	2	1	2	0	0	5.0387407932E+01	1.0866545534E+02	5.5260481555E+02	1.1975115651E+03	1.0556111000E+03	0.000E+00	0.0
	1000022	2	5	5	0	0	-5.0387407932E+01	-1.0866545534E+02	5.3626774997E+02	1.0282881800E+03	8.6916420169E+02	0.000E+00	0.0
	14	1	6	6	0	0	1.3515826238E+02	1.8870852992E+02	2.4445038821E+02	4.6825170310E+02	3.2500000000E+02	0.000E+00	0.0
	-14	1	6	6	0	0	-1.8554567031E+02	-2.9737398526E+02	2.9181736176E+02	5.6003647694E+02	3.2500000000E+02	0.000E+00	0.0
	25	2	5	5	0	0	5.0387407932E+01	1.0866545534E+02	5.5831320580E+01	1.8204074372E+02	1.2519833846E+02	0.000E+00	0.0
	-5	1	9	9	0	501	1.5196686248E+01	1.2724135587E+02	2.2949752080E+01	1.3025154677E+02	4.1800000000E+00	0.000E+00	0.0
	5	1	9	9	501	0	3.5190721683E+01	-1.8575900529E+01	3.2881568499E+01	5.1789196943E+01	4.1800000000E+00	0.000E+00	0.0
</event>
<event>
    11  -1  1.0000000E+00  1.0000000E+00  -1.0000000E+00  -1.0000000E+00
	2212	-1	0	0	0	0	0.0000000000E+00	0.0000000000E+00	6.5000000000E+03	6.5000000000E+03	9.3827000000E-01	0.000E+00	0.0
	2212	-1	0	0	0	0	0.0000000000E+00	0.0000000000E+00	-6.5000000000E+03	6.5000000000E+03	9.3827000000E-01	0.000E+00	0.0
	2212	1	0	0	0	0	0.0000000000E+00	0.0000000000E+00	4.8526844660E+03	4.8526844660E+03	9.3827000000E-01	0.000E+00	0.0
	2212	1	0	0	0	0	0.0000000000E+00	0.0000000000E+00	-6.3339658657E+03	6.3339658657E+03	9.3827000000E-01	0.000E+00	0.0
	51	2	1	2	0	0	-6.2164588444E+01	4.0609339652E+01	1.3607119501E+03	1.7178745589E+03	1.0459648342E+03	0.000E+00	0.0
	1000022	2	5	5	0	0	6.2164588444E+01	-4.0609339652E+01	1.3781361914E+03	1.6349585827E+03	8.7653673653E+02	0.000E+00	0.0
	14	1	6	6	0	0	-1.7351573547E+02	-1.4168387497E+02	9.9678702068E+02	1.0720967286E+03	3.2500000000E+02	0.000E+00	0.0
	-14	1	6	6	0	0	2.3568032391E+02	1.0107453532E+02	3.8134917077E+02	5.6286185411E+02	3.2500000000E+02	0.000E+00	0.0
	25	2	5	5	0	0	-6.2164588444E+01	4.0609339652E+01	1.0314520828E+02	1.7839108562E+02	1.2518342907E+02	0.000E+00	0.0
	-5	1	9	9	0	501	-3.4188298118E+01	-3.2438071613E+01	-1.9038358335E+00	4.7351506935E+01	4.1800000000E+00	0.000E+00	0.0
	5	1	9	9	501	0	-2.7976290326E+01	7.3047411264E+01	1.0504904412E+02	1.3103957869E+02	4.1800000000E+00	0.000E+00	0.0
</event>
<event>
    11  -1  1.0000000E+00  1.0000000E+00  -1.0000000E+00  -1.0000000E+00
	2212	-1	0	0	0	0	0.0000000000E+00	0.0000000000E+00	6.5000000000E+03	6.5000000000E+03	9.3827000000E-01	0.000E+00	0.0
	2212	-1	0	0	0	0	0.0000000000E+00	0.0000000000E+00	-6.5000000000E+03	6.5000000000E+03	9.3827000000E-01	0.000E+00	0.0
	2212	1	0	0	0	0	0.0000000000E+00	0.0000000000E+00	5.9885304091E+03	5.9885304091E+03	9.3827000000E-01	0.000E+00	0.0
	2212	1	0	0	0	0	0.0000000000E+00	0.0000000000E+00	-5.9539215086E+03	5.9539215086E+03	9.3827000000E-01	0.000E+00	0.0
	51	2	1	2	0	0	-1.1439567667E+02	-6.3224751053E+01	3.6863497033E+01	1.0656701308E+03	1.0569816320E+03	0.000E+00	0.0
	1000022	2	5	5	0	0	1.1439567667E+02	6.3224751053E+01	-1.0004899789E+02	8.6509635419E+02	8.4929274109E+02	0.000E+00	0.0
	14	1	6	6	0	0	-7.4454519647E+01	1.2569750759E+02	1.7321655805E+02	3.9619731813E+02	3.2500000000E+02	0.000E+00	0.0
	-14	1	6	6	0	0	1.8885019632E+02	-6.2472756537E+01	-2.7326555594E+02	4.6889903606E+02	3.2500000000E+02	0.000E+00	0.0
	25	2	5	5	0	0	-1.1439567667E+02	-6.3224751053E+01	6.5440097344E+01	1.9245172809E+02	1.2518594696E+02	0.000E+00	0.0
	-5	1	9	9	0	501	-1.3526062851E+02	-2.7535721573E+01	5.9911370793E+01	1.5053404378E+02	4.1800000000E+00	0.000E+00	0.0
	5	1	9	9	501	0	2.0864951837E+01	-3.5689029480E+01	5.5287265512E+00	4.1917684307E+01	4.1800000000E+00	0.000E+00	0.0
</event>
<event>
    11  -1  1.0000000E+00  1.0000000E+00  -1.0000000E+00  -1.0000000E+00
	2212	-1	0	0	0	0	0.0000000000E+00	0.0000000000E+00	6.5000000000E+03	6.5000000000E+03	9.3827000000E-01	0.000E+00	0.0
	2212	-1	0	0	0	0	0.0000000000E+00	0.0000000000E+00	-6.5000000000E+03	6.5000000000E+03	9.3827000000E-01	0.000E+00	0.0
	2212	1	0	0	0	0	0.0000000000E+00	0.0000000000E+00	4.9920965224E+03	4.9920965224E+03	9.3827000000E-01	0.000E+00	0.0
	2212	1	0	0	0	0	0.0000000000E+00	0.0000000000E+00	-6.3185121804E+03	6.3185121804E+03	9.3827000000E-01	0.000E+00	0.0
	51	2	1	2	0	0	1.2614362558E+02	2.8153624939E+00	1.2455439260E+03	1.6315527174E+03	1.0462621362E+03	0.000E+00	0.0
	1000022	2	5	5	0	0	-1.2614362558E+02	-2.8153624939E+00	1.1821277864E+03	1.4604550095E+03	8.4828214103E+02	0.000E+00	0.0
	14	1	6	6	0	0	1.4691438558E+02	-1.7059609719E+02	6.3391895732E+02	7.4710448367E+02	3.2500000000E+02	0.000E+00	0.0
	-14	1	6	6	0	0	-2.7305801116E+02	1.6778073470E+02	5.4820882907E+02	7.1335052581E+02	3.2500000000E+02	0.000E+00	0.0
	25	2	5	5	0	0	1.2614362558E+02	2.8153624939E+00	1.4428787160E+02	2.2893628781E+02	1.2519062843E+02	0.000E+00	0.0
	-5	1	9	9	0	501	9.7933792236E+01	-4.6127712324E+01	1.3237154580E+02	1.7105113868E+02	4.1800000000E+00	0.000E+00	0.0
	5	1	9	9	501	0	2.8209833345E+01	4.8943074817E+01	1.1916325800E+01	5.7885149136E+01	4.1800000000E+00	0.000E+00	0.0
</event>
<event>
    11  -1  1.0000000E+00  1.0000000E+00  -1.0000000E+00  -1.0000000E+00
	2212	-1	0	0	0	0	0.0000000000E+00	0.0000000000E+00	6.5000000000E+03	6.5000000000E+03	9.3827000000E-01	0.000E+00	0.0
	2212	-1	0	0	0	0	0.0000000000E+00	0.0000000000E+00	-6.5000000000E+03	6.5000000000E+03	9.3827000000E-01	0.000E+00	0.0
	2212	1	0	0	0	0	0.0000000000E+00	0.0000000000E+00	6.3056401309E+03	6.3056401309E+03	9.3827000000E-01	0.000E+00	0.0
	2212	1	0	0	0	0	0.0000000000E+00	0.0000000000E+00	-5.0238537487E+03	5.0238537487E+03	9.3827000000E-01	0.000E+00	0.0
	51	2	1	2	0	0	4.4059367455E+01	-7.0822091859E+01	-1.5390865828E+03	1.8770612335E+03	1.0712676456E+03	0.000E+00	0.0
	1000022	2	5	5	0	0	-4.4059367455E+01	7.0822091859E+01	-7.8387284230E+02	1.1503682905E+03	8.3781476129E+02	0.000E+00	0.0
	14	1	6	6	0	0	5.0196590139E+01	-1.9461412036E+02	-2.1908823117E+02	4.4047588645E+02	3.2500000000E+02	0.000E+00	0.0
	-14	1	6	6	0	0	-9.4255957593E+01	2.6543621221E+02	-5.6478461113E+02	7.0989240401E+02	3.2500000000E+02	0.000E+00	0.0
	25	2	5	5	0	0	4.4059367455E+01	-7.0822091859E+01	-4.9791353990E+02	5.2013782987E+02	1.2517376840E+02	0.000E+00	0.0
	-5	1	9	9	0	501	-2.5391725712E+01	-5.5906677608E+01	-1.1272371266E+02	1.2843054205E+02	4.1800000000E+00	0.000E+00	0.0
	5	1	9	9	501	0	6.9451093167E+01	-1.4915414251E+01	-3.8518982724E+02	3.9170728782E+02	4.1800000000E+00	0.000E+00	0.0
</event>
<event>
    11  -1  1.0000000E+00  1.0000000E+00  -1.0000000E+00  -1.0000000E+00
	2212	-1	0	0	0	0	0.0000000000E+00	0.0000000000E+00	6.5000000000E+03	6.5000000000E+03	9.3827000000E-01	0.000E+00	0.0
	2212	-1	0	0	0	0	0.0000000000E+00	0.0000000000E+00	-6.5000000000E+03	6.5000000000E+03	9.3827000000E-01	0.000E+00	0.0
	2212	1	0	0	0	0	0.0000000000E+00	0.0000000000E+00	5.4720605087E+03	5.4720605087E+03	9.3827000000E-01	0.000E+00	0.0
	2212	1	0	0	0	0	0.0000000000E+00	0.0000000000E+00	-6.2413087558E+03	6.2413087558E+03	9.3827000000E-01	0.000E+00	0.0
	51	2	1	2	0	0	-6.7523305277E+01	3.5704582065E+01	8.8807688992E+02	1.3631546354E+03	1.0313465876E+03	0.000E+00	0.0
	1000022	2	5	5	0	0	6.7523305277E+01	-3.5704582065E+01	5.2672445619E+02	1.0032165630E+03	8.5039438241E+02	0.000E+00	0.0
	14	1	6	6	0	0	-2.2273031140E+02	-1.7400844032E+01	3.6710365720E+02	5.3879650715E+02	3.2500000000E+02	0.000E+00	0.0
	-14	1	6	6	0	0	2.9025361668E+02	-1.8303738033E+01	1.5962079899E+02	4.6442005587E+02	3.2500000000E+02	0.000E+00	0.0
	25	2	5	5	0	0	-6.7523305277E+01	3.5704582065E+01	2.4252379095E+02	2.8341417246E+02	1.2518622142E+02	0.000E+00	0.0
	-5	1	9	9	0	501	3.4655080324E+01	-3.5641855830E+00	8.0718027150E+01	8.8014489251E+01	4.1800000000E+00	0.000E+00	0.0
	5	1	9	9	501	0	-1.0217838560E+02	3.9268767648E+01	1.6180576380E+02	1.9539968321E+02	4.1800000000E+00	0.000E+00	0.0
</event>
<event>
    11  -1  1.0000000E+00  1.0000000E+00  -1.0000000E+00  -1.0000000E+00
	2212	-1	0	0	0	0	0.0000000000E+00	0.0000000000E+00	6.5000000000E+03	6.5000000000E+03	9.3827000000E-01	0.000E+00	0.0
	2212	-1	0	0	0	0	0.0000000000E+00	0.0000000000E+00	-6.5000000000E+03	6.5000000000E+03	9.3827000000E-01	0.000E+00	0.0
	2212	1	0	0	0	0	0.0000000000E+00	0.0000000000E+00	6.3213880695E+03	6.3213880695E+03	9.3827000000E-01	0.000E+00	0.0
	2212	1	0	0	0	0	0.0000000000E+00	0.0000000000E+00	-5.0347831882E+03	5.0347831882E+03	9.3827000000E-01	0.000E+00	0.0
	51	2	1	2	0	0	1.1882822686E+01	4.0647502377E+01	-1.1098384495E+03	1.5100846395E+03	1.0231426164E+03	0.000E+00	0.0
	1000022	2	5	5	0	0	-1.1882822686E+01	-4.0647502377E+01	-1.2517112769E+03	1.5071457264E+03	8.3839948640E+02	0.000E+00	0.0
	14	1	6	6	0	0	7.7989896369E+01	-9.3102188428E+01	-1.0608512882E+03	1.1161455537E+03	3.2500000000E+02	0.000E+00	0.0
	-14	1	6	6	0	0	-8.9872719054E+01	5.2454686051E+01	-1.9085998876E+02	3.9100017267E+02	3.2500000000E+02	0.000E+00	0.0
	25	2	5	5	0	0	1.1882822686E+01	4.0647502377E+01	-3.4893604346E+01	1.3668301591E+02	1.2518491239E+02	0.000E+00	0.0
	-5	1	9	9	0	501	-3.8950969047E+01	6.3616524669E+01	-3.0075821020E+01	8.0537367791E+01	4.1800000000E+00	0.000E+00	0.0
	5	1	9	9	501	0	5.0833791733E+01	-2.2969022292E+01	-4.8177833260E+00	5.6145648123E+01	4.1800000000E+00	0.000E+00	0.0
</event>
<event>
    11  -1  1.0000000E+00  1.0000000E+00  -1.0000000E+00  -1.0000000E+00
	2212	-1	0	0	0	0	0.0000000000E+00	0.0000000000E+00	6.5000000000E+03	6.5000000000E+03	9.3827000000E-01	0.000E+00	0.0
	2212	-1	0	0	0	0	0.0000000000E+00	0.0000000000E+00	-6.5000000000E+03	6.5000000000E+03	9.3827000000E-01	0.000E+00	0.0
	2212	1	0	0	0	0	0.0000000000E+00	0.0000000000E+00	6.2296488119E+03	6.2296488119E+03	9.3827000000E-01	0.000E+00	0.0
	2212	1	0	0	0	0	0.0000000000E+00	0.0000000000E+00	-5.4912085963E+03	5.4912085963E+03	9.3827000000E-01	0.000E+00	0.0
	51	2	1	2	0	0	-7.4571135556E+01	5.1979253370E+01	-6.2470941127E+02	1.2204246654E+03	1.0444672414E+03	0.000E+00	0.0
	1000022	2	5	5	0	0	7.4571135556E+01	-5.1979253370E+01	-7.2881248196E+02	1.1241761108E+03	8.5108260307E+02	0.000E+00	0.0
	14	1	6	6	0	0	-2.1809553840E+02	1.3032520693E+01	-2.1661719125E+02	4.4753046602E+02	3.2500000000E+02	0.000E+00	0.0
	-14	1	6	6	0	0	2.9266667396E+02	-6.5011774063E+01	-5.1219529071E+02	6.7664564481E+02	3.2500000000E+02	0.000E+00	0.0
	25	2	5	5	0	0	-7.4571135556E+01	5.1979253370E+01	-9.6277336316E+00	1.5496648105E+02	1.2513680496E+02	0.000E+00	0.0
	-5	1	9	9	0	501	-3.8350032294E+01	2.2745344984E+01	-6.7236448414E+01	8.0785444795E+01	4.1800000000E+00	0.000E+00	0.0
	5	1	9	9	501	0	-3.6221103262E+01	2.9233908387E+01	5.7608714782E+01	7.4181036255E+01	4.1800000000E+00	0.000E+00	0.0
</event>
<event>
    11  -1  1.0000000E+00  1.0000000E+00  -1.0000000E+00  -1.0000000E+00
	2212	-1	0	0	0	0	0.0000000000E+00	0.0000000000E+00	6.5000000000E+03	6.5000000000E+03	9.3827000000E-01	0.000E+00	0.0
	2212	-1	0	0	0	0	0.0000000000E+00	0.0000000000E+00	-6.5000000000E+03	6.5000000000E+03	9.3827000000E-01	0.000E+00	0.0
	2212	1	0	0	0	0	0.0000000000E+00	0.0000000000E+00	6.3274475723E+03	6.3274475723E+03	9.3827000000E-01	0.000E+00	0.0
	2212	1	0	0	0	0	0.0000000000E+00	0.0000000000E+00	-4.8812047630E+03	4.8812047630E+03	9.3827000000E-01	0.000E+00	0.0
	51	2	1	2	0	0	-2.2954740115E+01	-8.8783395010E+01	-1.6190746718E+03	1.9357480200E+03	1.0570279999E+03	0.000E+00	0.0
	1000022	2	5	5	0	0	2.2954740115E+01	8.8783395010E+01	-1.0355158871E+03	1.3522853365E+03	8.6485436215E+02	0.000E+00	0.0
	14	1	6	6	0	0	9.8793749962E+00	2.4601826359E+02	-2.2685977324E+02	4.6659719757E+02	3.2500000000E+02	0.000E+00	0.0
	-14	1	6	6	0	0	1.3075365119E+01	-1.5723486858E+02	-8.0865611383E+02	8.8568813896E+02	3.2500000000E+02	0.000E+00	0.0
	25	2	5	5	0	0	-2.2954740115E+01	-8.8783395010E+01	-4.1072692223E+02	4.3906232824E+02	1.2517872067E+02	0.000E+00	0.0
	-5	1	9	9	0	501	-3.8695126150E+01	-6.0023274916E+01	-3.9679967552E+02	4.0319667808E+02	4.1800000000E+00	0.000E+00	0.0
	5	1	9	9	501	0	1.5740386035E+01	-2.8760120094E+01	-1.3927246710E+01	3.5865650158E+01	4.1800000000E+00	0.000E+00	0.0
</event>
<event>
    11  -1  1.0000000E+00  1.0000000E+00  -1.0000000E+00  -1.0000000E+00
	2212	-1	0	0	0	0	0.0000000000E+00	0.0000000000E+00	6.5000000000E+03	6.5000000000E+03	9.3827000000E-01	0.000E+00	0.0
	2212	-1	0	0	0	0	0.0000000000E+00	0.0000000000E+00	-6.5000000000E+03	6.5000000000E+03	9.3827000000E-01	0.000E+00	0.0
	2212	1	0	0	0	0	0.0000000000E+00	0.0000000000E+00	6.2832808414E+03	6.2832808414E+03	9.3827000000E-01	0.000E+00	0.0
	2212	1	0	0	0	0	0.0000000000E+00	0.0000000000E+00	-5.2722589889E+03	5.2722589889E+03	9.3827000000E-01	0.000E+00	0.0
	51	2	1	2	0	0	-9.9973116132E+01	3.2074559262E+01	-9.5006379178E+02	1.4063941857E+03	1.0316491631E+03	0.000E+00	0.0
	1000022	2	5	5	0	0	9.9973116132E+01	-3.2074559262E+01	-9.1139671397E+02	1.2530988327E+03	8.5357443317E+02	0.000E+00	0.0
	14	1	6	6	0	0	1.1871068354E+02	2.0164529037E+02	-6.8322758871E+02	7.9194569731E+02	3.2500000000E+02	0.000E+00	0.0
	-14	1	6	6	0	0	-1.8737567412E+01	-2.3371984963E+02	-2.2816912526E+02	4.6115313537E+02	3.2500000000E+02	0.000E+00	0.0
	25	2	5	5	0	0	-9.9973116132E+01	3.2074559262E+01	-9.9625138528E+01	1.9136133708E+02	1.2518223437E+02	0.000E+00	0.0
	-5	1	9	9	0	501	2.7568241367E+01	1.5238396060E+01	-3.5206633438E+01	4.7425690132E+01	4.1800000000E+00	0.000E+00	0.0
	5	1	9	9	501	0	-1.2754135750E+02	1.6836163203E+01	-6.4418505090E+01	1.4393564695E+02	4.1800000000E+00	0.000E+00	0.0
</event>
<event>
    11  -1  1.0000000E+00  1.0000000E+00  -1.0000000E+00  -1.0000000E+00
	2212	-1	0	0	0	0	0.0000000000E+00	0.0000000000E+00	6.5000000000E+03	6.5000000000E+03	9.3827000000E-01	0.000E+00	0.0
	2212	-1	0	0	0	0	0.0000000000E+00	0.0000000000E+00	-6.5000000000E+03	6.5000000000E+03	9.3827000000E-01	0.000E+00	0.0
	2212	1	0	0	0	0	0.0000000000E+00	0.0000000000E+00	6.2469362198E+03	6.2469362198E+03	9.3827000000E-01	0.000E+00	0.0
	2212	1	0	0	0	0	0.0000000000E+00	0.0000000000E+00	-5.3993177592E+03	5.3993177592E+03	9.3827000000E-01	0.000E+00	0.0
	51	2	1	2	0	0	-7.0999701052E+01	-1.2063076776E+02	-8.2381548043E+02	1.3462674029E+03	1.0555430994E+03	0.000E+00	0.0
	1000022	2	5	5	0	0	7.0999701052E+01	1.2063076776E+02	-7.2699241428E+02	1.1305545569E+03	8.5442547712E+02	0.000E+00	0.0
	14	1	6	6	0	0	5.9595787796E+01	2.3895023064E+02	-6.6340678908E+02	7.7870561731E+02	3.2500000000E+02	0.000E+00	0.0
	-14	1	6	6	0	0	1.1403913256E+01	-1.1831946288E+02	-6.3585625203E+01	3.5184893955E+02	3.2500000000E+02	0.000E+00	0.0
	25	2	5	5	0	0	-7.0999701052E+01	-1.2063076776E+02	-1.2062604638E+02	2.2319146416E+02	1.2518405222E+02	0.000E+00	0.0
	-5	1	9	9	0	501	-8.7050736420E+01	-5.5144907947E+01	-2.5014029691E+01	1.0612240887E+02	4.1800000000E+00	0.000E+00	0.0
	5	1	9	9	501	0	1.6051035368E+01	-6.5485859810E+01	-9.5612016684E+01	1.1706905529E+02	4.1800000000E+00	0.000E+00	0.0
</event>
<event>
    11  -1  1.0000000E+00  1.0000000E+00  -1.0000000E+00  -1.0000000E+00
	2212	-1	0	0	0	0	0.0000000000E+00	0.0000000000E+00	6.5000000000E+03	6.5000000000E+03	9.3827000000E-01	0.000E+00	0.0
	2212	-1	0	0	0	0	0.0000000000E+00	0.0000000000E+00	-6.5000000000E+03	6.5000000000E+03	9.3827000000E-01	0.000E+00	0.0
	2212	1	0	0	0	0	0.0000000000E+00	0.0000000000E+00	5.7472588056E+03	5.7472588056E+03	9.3827000000E-01	0.000E+00	0.0
	2212	1	0	0	0	0	0.0000000000E+00	0.0000000000E+00	-6.1299579971E+03	6.1299579971E+03	9.3827000000E-01	0.000E+00	0.0
	51	2	1	2	0	0	-1.4335156447E+02	8.2125119768E+01	3.9153066528E+02	1.1378813229E+03	1.0555488794E+03	0.000E+00	0.0
	1000022	2	5	5	0	0	1.4335156447E+02	-8.2125119768E+01	3.0337696714E+02	9.0087556638E+02	8.3201261744E+02	0.000E+00	0.0
	14	1	6	6	0	0	-3.1343497624E+01	-1.0014027190E+02	3.9308680779E+02	5.2072327330E+02	3.2500000000E+02	0.000E+00	0.0
	-14	1	6	6	0	0	1.7469506209E+02	1.8015152131E+01	-8.9709840649E+01	3.8015229308E+02	3.2500000000E+02	0.000E+00	0.0
	25	2	5	5	0	0	-1.4335156447E+02	8.2125119768E+01	7.9322224427E+01	2.2190763090E+02	1.2512703557E+02	0.000E+00	0.0
	-5	1	9	9	0	501	2.8429183375E+00	5.8852216765E+01	1.9796571077E+01	6.2298011439E+01	4.1800000000E+00	0.000E+00	0.0
	5	1	9	9	501	0	-1.4619448281E+02	2.3272903003E+01	5.9525653350E+01	1.5960961946E+02	4.1800000000E+00	0.000E+00	0.0
</event>
<event>
    11  -1  1.0000000E+00  1.0000000E+00  -1.0000000E+00  -1.0000000E+00
	2212	-1	0	0	0	0	0.0000000000E+00	0.0000000000E+00	6.5000000000E+03	6.5000000000E+03	9.3827000000E-01	0.000E+00	0.0
	2212	-1	0	0	0	0	0.0000000000E+00	0.0000000000E+00	-6.5000000000E+03	6.5000000000E+03	9.3827000000E-01	0.000E+00	0.0
	2212	1	0	0	0	0	0.0000000000E+00	0.0000000000E+00	6.0060848122E+03	6.0060848122E+03	9.3827000000E-01	0.000E+00	0.0
	2212	1	0	0	0	0	0.0000000000E+00	0.0000000000E+00	-5.9566028839E+03	5.9566028839E+03	9.3827000000E-01	0.000E+00	0.0
	51	2	1	2	0	0	-4.1435619716E+01	-7.7798040773E+01	-1.4055685534E+02	1.0493302769E+03	1.0361314369E+03	0.000E+00	0.0
	1000022	2	5	5	0	0	4.1435619716E+01	7.7798040773E+01	4.9723348310E+01	8.5485409093E+02	8.4884254116E+02	0.000E+00	0.0
	14	1	6	6	0	0	1.7345903074E+01	3.0882447440E+02	7.3639288478E+01	4.5466601055E+02	3.2500000000E+02	0.000E+00	0.0
	-14	1	6	6	0	0	2.4089716642E+01	-2.3102643363E+02	-2.3915940168E+01	4.0018808038E+02	3.2500000000E+02	0.000E+00	0.0
	25	2	5	5	0	0	-4.1435619716E+01	-7.7798040773E+01	-9.9205276659E+01	1.8245821298E+02	1.2521927502E+02	0.000E+00	0.0
	-5	1	9	9	0	501	-4.6445809623E+01	-9.6622240476E+01	-3.1401744676E+01	1.1178824873E+02	4.1800000000E+00	0.000E+00	0.0
	5	1	9	9	501	0	5.0101899069E+00	1.8824199703E+01	-6.7803531983E+01	7.0669964247E+01	4.1800000000E+00	0.000E+00	0.0
</event>
<event>
    11  -1  1.0000000E+00  1.0000000E+00  -1.0000000E+00  -1.0000000E+00
	2212	-1	0	0	0	0	0.0000000000E+00	0.0000000000E+00	6.5000000000E+03	6.5000000000E+03	9.3827000000E-01	0.000E+00	0.0
	2212	-1	0	0	0	0	0.0000000000E+00	0.0000000000E+00	-6.5000000000E+03	6.5000000000E+03	9.3827000000E-01	0.000E+00	0.0
	2212	1	0	0	0	0	0.0000000000E+00	0.0000000000E+00	5.6889480349E+03	5.6889480349E+03	9.3827000000E-01	0.000E+00	0.0
	2212	1	0	0	0	0	0.0000000000E+00	0.0000000000E+00	-6.1576733586E+03	6.1576733586E+03	9.3827000000E-01	0.000E+00	0.0
	51	2	1	2	0	0	5.3516379926E+01	-9.4212518237E+01	5.7702358345E+02	1.2063477932E+03	1.0538400167E+03	0.000E+00	0.0
	1000022	2	5	5	0	0	-5.3516379926E+01	9.4212518237E+01	2.7989788443E+02	9.0225363828E+02	8.5086943803E+02	0.000E+00	0.0
	14	1	6	6	0	0	-1.5523489844E+02	-6.2284639023E-01	3.9109258656E+02	5.3167346454E+02	3.2500000000E+02	0.000E+00	0.0
	-14	1	6	6	0	0	1.0171851851E+02	9.4835364627E+01	-1.1119470213E+02	3.7058017375E+02	3.2500000000E+02	0.000E+00	0.0
	25	2	5	5	0	0	5.3516379926E+01	-9.4212518237E+01	1.8882743924E+02	2.5112496819E+02	1.2517166742E+02	0.000E+00	0.0
	-5	1	9	9	0	501	3.3624902035E+01	2.4735948083E+01	2.9628860292E+01	5.1359935033E+01	4.1800000000E+00	0.000E+00	0.0
	5	1	9	9	501	0	1.9891477891E+01	-1.1894846632E+02	1.5919857895E+02	1.9976503316E+02	4.1800000000E+00	0.000E+00	0.0
</event>
<event>
    11  -1  1.0000000E+00  1.0000000E+00  -1.0000000E+00  -1.0000000E+00
	2212	-1	0	0	0	0	0.0000000000E+00	0.0000000000E+00	6.5000000000E+03	6.5000000000E+03	9.3827000000E-01	0.000E+00	0.0
	2212	-1	0	0	0	0	0.0000000000E+00	0.0000000000E+00	-6.5000000000E+03	6.5000000000E+03	9.3827000000E-01	0.000E+00	0.0
	2212	1	0	0	0	0	0.0000000000E+00	0.0000000000E+00	5.7268419774E+03	5.7268419774E+03	9.3827000000E-01	0.000E+00	0.0
	2212	1	0	0	0	0	0.0000000000E+00	0.0000000000E+00	-6.1325378926E+03	6.1325378926E+03	9.3827000000E-01	0.000E+00	0.0
	51	2	1	2	0	0	4.3118292260E+01	1.2151202655E+02	5.0378513336E+02	1.1861066249E+03	1.0660324129E+03	0.000E+00	0.0
	1000022	2	5	5	0	0	-4.3118292260E+01	-1.2151202655E+02	2.3582697702E+02	8.9332387916E+02	8.5193240945E+02	0.000E+00	0.0
	14	1	6	6	0	0	-1.9033117447E+02	1.3151758675E+02	5.4701204450E+00	3.9897086838E+02	3.2500000000E+02	0.000E+00	0.0
	-14	1	6	6	0	0	1.4721288221E+02	-2.5302961330E+02	2.3035685657E+02	4.9435301078E+02	3.2500000000E+02	0.000E+00	0.0
	25	2	5	5	0	0	4.3118292260E+01	1.2151202655E+02	1.6986893821E+02	2.4729625085E+02	1.2520231545E+02	0.000E+00	0.0
	-5	1	9	9	0	501	-4.0644963312E+01	3.9337167567E+01	2.8344250466E+01	6.3405794130E+01	4.1800000000E+00	0.000E+00	0.0
	5	1	9	9	501	0	8.3763255571E+01	8.2174858981E+01	1.4152468774E+02	1.8389045672E+02	4.1800000000E+00	0.000E+00	0.0
</event>
<event>
    11  -1  1.0000000E+00  1.0000000E+00  -1.0000000E+00  -1.0000000E+00
	2212	-1	0	0	0	0	0.0000000000E+00	0.0000000000E+00	6.5000000000E+03	6.5000000000E+03	9.3827000000E-01	0.000E+00	0.0
	2212	-1	0	0	0	0	0.0000000000E+00	0.0000000000E+00	-6.5000000000E+03	6.5000000000E+03	9.3827000000E-01	0.000E+00	0.0
	2212	1	0	0	0	0	0.0000000000E+00	0.0000000000E+00	5.7186672744E+03	5.7186672744E+03	9.3827000000E-01	0.000E+00	0.0
	2212	1	0	0	0	0	0.0000000000E+00	0.0000000000E+00	-6.1471805629E+03	6.1471805629E+03	9.3827000000E-01	0.000E+00	0.0
	51	2	1	2	0	0	-1.1175494998E+02	9.0108806279E+01	4.6410491336E+02	1.1570132351E+03	1.0500845156E+03	0.000E+00	0.0
	1000022	2	5	5	0	0	1.1175494998E+02	-9.0108806279E+01	3.1844922575E+02	9.1418383894E+02	8.4481561076E+02	0.000E+00	0.0
	14	1	6	6	0	0	6.1690793774E+01	2.1165211448E+02	5.6719410237E+01	3.9679272057E+02	3.2500000000E+02	0.000E+00	0.0
	-14	1	6	6	0	0	5.0064156202E+01	-3.0176092076E+02	2.6172981552E+02	5.1739111837E+02	3.2500000000E+02	0.000E+00	0.0
	25	2	5	5	0	0	-1.1175494998E+02	9.0108806279E+01	1.1006406275E+02	2.1996832380E+02	1.2515270573E+02	0.000E+00	0.0
	-5	1	9	9	0	501	-4.5840341495E+01	1.1136749263E+02	6.1621867898E+01	1.3534689626E+02	4.1800000000E+00	0.000E+00	0.0
	5	1	9	9	501	0	-6.5914608481E+01	-2.1258686354E+01	4.8442194848E+01	8.4621427537E+01	4.1800000000E+00	0.000E+00	0.0
</event>
<event>
    11  -1  1.0000000E+00  1.0000000E+00  -1.0000000E+00  -1.0000000E+00
	2212	-1	0	0	0	0	0.0000000000E+00	0.0000000000E+00	6.5000000000E+03	6.5000000000E+03	9.3827000000E-01	0.000E+00	0.0
	2212	-1	0	0	0	0	0.0000000000E+00	0.0000000000E+00	-6.5000000000E+03	6.5000000000E+03	9.3827000000E-01	0.000E+00	0.0
	2212	1	0	0	0	0	0.0000000000E+00	0.0000000000E+00	5.0585870104E+03	5.0585870104E+03	9.3827000000E-01	0.000E+00	0.0
	2212	1	0	0	0	0	0.0000000000E+00	0.0000000000E+00	-6.3113688784E+03	6.3113688784E+03	9.3827000000E-01	0.000E+00	0.0
	51	2	1	2	0	0	2.8516128551E+01	-1.3346569655E+02	1.2064284321E+03	1.6005240452E+03	1.0428717063E+03	0.000E+00	0.0
	1000022	2	5	5	0	0	-2.8516128551E+01	1.3346569655E+02	1.0837389952E+03	1.3793035082E+03	8.4223612851E+02	0.000E+00	0.0
	14	1	6	6	0	0	-2.0379247529E+02	-8.8096942827E+01	6.9726849949E+02	8.0068770735E+02	3.2500000000E+02	0.000E+00	0.0
	-14	1	6	6	0	0	1.7527634674E+02	2.2156263938E+02	3.8647049571E+02	5.7861580081E+02	3.2500000000E+02	0.000E+00	0.0
	25	2	5	5	0	0	2.8516128551E+01	-1.3346569655E+02	1.6904287278E+02	2.5074060304E+02	1.2517625746E+02	0.000E+00	0.0
	-5	1	9	9	0	501	-1.2566929311E+00	7.3467741116E+00	-1.4880727570E+01	1.7159918997E+01	4.1800000000E+00	0.000E+00	0.0
	5	1	9	9	501	0	2.9772821482E+01	-1.4081247066E+02	1.8392360035E+02	2.3358068405E+02	4.1800000000E+00	0.000E+00	0.0
</event>
<event>
    11  -1  1.0000000E+00  1.0000000E+00  -1.0000000E+00  -1.0000000E+00
	2212	-1	0	0	0	0	0.0000000000E+00	0.0000000000E+00	6.5000000000E+03	6.5000000000E+03	9.3827000000E-01	0.000E+00	0.0
	2212	-1	0	0	0	0	0.0000000000E+00	0.0000000000E+00	-6.5000000000E+03	6.5000000000E+03	9.3827000000E-01	0.000E+00	0.0
	2212	1	0	0	0	0	0.0000000000E+00	0.0000000000E+00	5.4933583086E+03	5.4933583086E+03	9.3827000000E-01	0.000E+00	0.0
	2212	1	0	0	0	0	0.0000000000E+00	0.0000000000E+00	-6.2269052809E+03	6.2269052809E+03	9.3827000000E-01	0.000E+00	0.0
	51	2	1	2	0	0	-1.6242578859E+01	1.3377041265E+02	7.3859616188E+02	1.2896963808E+03	1.0486344071E+03	0.000E+00	0.0
	1000022	2	5	5	0	0	1.6242578859E+01	-1.3377041265E+02	6.0587069688E+02	1.0558428373E+03	8.5414662152E+02	0.000E+00	0.0
	14	1	6	6	0	0	-2.2081525577E+02	-8.4089553540E+01	1.1238336897E+02	4.1723548724E+02	3.2500000000E+02	0.000E+00	0.0
	-14	1	6	6	0	0	2.3705783463E+02	-4.9680859111E+01	4.9348732791E+02	6.3860735005E+02	3.2500000000E+02	0.000E+00	0.0
	25	2	5	5	0	0	-1.6242578859E+01	1.3377041265E+02	1.2767627539E+02	2.2389357316E+02	1.2517490218E+02	0.000E+00	0.0
	-5	1	9	9	0	501	5.1010956734E+00	2.6076026876E+01	1.0922301272E+02	1.1248608475E+02	4.1800000000E+00	0.000E+00	0.0
	5	1	9	9	501	0	-2.1343674532E+01	1.0769438577E+02	1.8453262669E+01	1.1140748841E+02	4.1800000000E+00	0.000E+00	0.0
</event>
<event>
    11  -1  1.0000000E+00  1.0000000E+00  -1.0000000E+00  -1.0000000E+00
	2212	-1	0	0	0	0	0.0000000000E+00	0.0000000000E+00	6.5000000000E+03	6.5000000000E+03	9.3827000000E-01	0.000E+00	0.0
	2212	-1	0	0	0	0	0.0000000000E+00	0.0000000000E+00	-6.5000000000E+03	6.5000000000E+03	9.3827000000E-01	0.000E+00	0.0
	2212	1	0	0	0	0	0.0000000000E+00	0.0000000000E+00	6.2567150489E+03	6.2567150489E+03	9.3827000000E-01	0.000E+00	0.0
	2212	1	0	0	0	0	0.0000000000E+00	0.0000000000E+00	-5.3583248750E+03	5.3583248750E+03	9.3827000000E-01	0.000E+00	0.0
	51	2	1	2	0	0	6.8086304033E+00	1.2675636531E+02	-8.0365383181E+02	1.3315338985E+03	1.0540443576E+03	0.000E+00	0.0
	1000022	2	5	5	0	0	-6.8086304033E+00	-1.2675636531E+02	-8.3593617811E+02	1.1960613167E+03	8.4596681127E+02	0.000E+00	0.0
	14	1	6	6	0	0	2.4377056388E+02	4.3569793687E+01	-4.4638155864E+02	6.0514784196E+02	3.2500000000E+02	0.000E+00	0.0
	-14	1	6	6	0	0	-2.5057919428E+02	-1.7032615900E+02	-3.8955461947E+02	5.9091347471E+02	3.2500000000E+02	0.000E+00	0.0
	25	2	5	5	0	0	6.8086304033E+00	1.2675636531E+02	-6.2453995797E+01	1.8889875943E+02	1.2517470243E+02	0.000E+00	0.0
	-5	1	9	9	0	501	4.4231188131E+01	1.3185790548E+02	-4.0068357510E+01	1.4479589398E+02	4.1800000000E+00	0.000E+00	0.0
	5	1	9	9	501	0	-3.7422557728E+01	-5.1015401668E+00	-2.2385638288E+01	4.4102865446E+01	4.1800000000E+00	0.000E+00	0.0
</event>
<event>
    11  -1  1.0000000E+00  1.0000000E+00  -1.0000000E+00  -1.0000000E+00
	2212	-1	0	0	0	0	0.0000000000E+00	0.0000000000E+00	6.5000000000E+03	6.5000000000E+03	9.3827000000E-01	0.000E+00	0.0
	2212	-1	0	0	0	0	0.0000000000E+00	0.0000000000E+00	-6.5000000000E+03	6.5000000000E+03	9.3827000000E-01	0.000E+00	0.0
	2212	1	0	0	0	0	0.0000000000E+00	0.0000000000E+00	5.9477517573E+03	5.9477517573E+03	9.3827000000E-01	0.000E+00	0.0
	2212	1	0	0	0	0	0.0000000000E+00	0.0000000000E+00	-6.0010629860E+03	6.0010629860E+03	9.3827000000E-01	0.000E+00	0.0
	51	2	1	2	0	0	-2.7794864994E+01	5.5798549265E+01	1.6232662808E+02	1.0641354818E+03	1.0498325375E+03	0.000E+00	0.0
	1000022	2	5	5	0	0	2.7794864994E+01	-5.5798549265E+01	-6.4315221712E+01	8.6844322205E+02	8.6381198739E+02	0.000E+00	0.0
	14	1	6	6	0	0	-1.5798962448E+02	6.2232271181E+00	1.9323751199E+02	4.0983555976E+02	3.2500000000E+02	0.000E+00	0.0
	-14	1	6	6	0	0	1.8578448948E+02	-6.2021776383E+01	-2.5755273371E+02	4.5860766229E+02	3.2500000000E+02	0.000E+00	0.0
	25	2	5	5	0	0	-2.7794864994E+01	5.5798549265E+01	1.1762645046E+02	1.8274203461E+02	1.2519040197E+02	0.000E+00	0.0
	-5	1	9	9	0	501	-5.7924447123E+01	7.2019737914E+01	4.6156129350E+01	1.0339218975E+02	4.1800000000E+00	0.000E+00	0.0
	5	1	9	9	501	0	3.0129582129E+01	-1.6221188650E+01	7.1470321114E+01	7.9349844868E+01	4.1800000000E+00	0.000E+00	0.0
</event>
<event>
    11  -1  1.0000000E+00  1.0000000E+00  -1.0000000E+00  -1.0000000E+00
	2212	-1	0	0	0	0	0.0000000000E+00	0.0000000000E+00	6.5000000000E+03	6.5000000000E+03	9.3827000000E-01	0.000E+00	0.0
	2212	-1	0	0	0	0	0.0000000000E+00	0.0000000000E+00	-6.5000000000E+03	6.5000000000E+03	9.3827000000E-01	0.000E+00	0.0
	2212	1	0	0	0	0	0.0000000000E+00	0.0000000000E+00	6.3262786957E+03	6.3262786957E+03	9.3827000000E-01	0.000E+00	0.0
	2212	1	0	0	0	0	0.0000000000E+00	0.0000000000E+00	-4.9101413581E+03	4.9101413581E+03	9.3827000000E-01	0.000E+00	0.0
	51	2	1	2	0	0	-1.0170023270E+02	-9.5151851586E+01	-1.3983390185E+03	1.7548555754E+03	1.0510800481E+03	0.000E+00	0.0
	1000022	2	5	5	0	0	1.0170023270E+02	9.5151851586E+01	-1.1929968787E+03	1.4722523474E+03	8.5140390515E+02	0.000E+00	0.0
	14	1	6	6	0	0	-1.9102727144E+02	7.2336572896E+00	-3.3136742745E+02	5.0196923831E+02	3.2500000000E+02	0.000E+00	0.0
	-14	1	6	6	0	0	2.9272750414E+02	8.7918194296E+01	-8.6162945121E+02	9.7028310908E+02	3.2500000000E+02	0.000E+00	0.0
	25	2	5	5	0	0	-1.0170023270E+02	-9.5151851586E+01	-2.2314045902E+02	2.9132759881E+02	1.2523295565E+02	0.000E+00	0.0
	-5	1	9	9	0	501	-5.8922057982E+01	-1.2212344684E+02	-1.4924123920E+02	2.0168382449E+02	4.1800000000E+00	0.000E+00	0.0
	5	1	9	9	501	0	-4.2778174717E+01	2.6971595252E+01	-7.3899219822E+01	8.9643774312E+01	4.1800000000E+00	0.000E+00	0.0
</event>
<event>
    11  -1  1.0000000E+00  1.0000000E+00  -1.0000000E+00  -1.0000000E+00
	2212	-1	0	0	0	0	0.0000000000E+00	0.0000000000E+00	6.5000000000E+03	6.5000000000E+03	9.3827000000E-01	0.000E+00	0.0
	2212	-1	0	0	0	0	0.0000000000E+00	0.0000000000E+00	-6.5000000000E+03	6.5000000000E+03	9.3827000000E-01	0.000E+00	0.0
	2212	1	0	0	0	0	0.0000000000E+00	0.0000000000E+00	5.7680458912E+03	5.7680458912E+03	9.3827000000E-01	0.000E+00	0.0
	2212	1	0	0	0	0	0.0000000000E+00	0.0000000000E+00	-6.1241654643E+03	6.1241654643E+03	9.3827000000E-01	0.000E+00	0.0
	51	2	1	2	0	0	-1.0448505416E+01	5.2924917548E+01	4.9782464665E+02	1.1623743491E+03	1.0489873833E+03	0.000E+00	0.0
	1000022	2	5	5	0	0	1.0448505416E+01	-5.2924917548E+01	1.5344536474E+02	8.6354497003E+02	8.4808856680E+02	0.000E+00	0.0
	14	1	6	6	0	0	-1.0318818266E+01	2.3705968232E+02	3.4786480420E+00	4.0241877688E+02	3.2500000000E+02	0.000E+00	0.0
	-14	1	6	6	0	0	2.0767323682E+01	-2.8998459987E+02	1.4996671670E+02	4.6112619315E+02	3.2500000000E+02	0.000E+00	0.0
	25	2	5	5	0	0	-1.0448505416E+01	5.2924917548E+01	2.0267420838E+02	2.4424367442E+02	1.2517156062E+02	0.000E+00	0.0
	-5	1	9	9	0	501	-6.0266203964E+01	4.9002053944E+01	7.9367021236E+01	1.1112971291E+02	4.1800000000E+00	0.000E+00	0.0
	5	1	9	9	501	0	4.9817698548E+01	3.9228636033E+00	1.2330718714E+02	1.3311396151E+02	4.1800000000E+00	0.000E+00	0.0
</event>
<event>
    11  -1  1.0000000E+00  1.0000000E+00  -1.0000000E+00  -1.0000000E+00
	2212	-1	0	0	0	0	0.0000000000E+00	0.0000000000E+00	6.5000000000E+03	6.5000000000E+03	9.3827000000E-01	0.000E+00	0.0
	2212	-1	0	0	0	0	0.0000000000E+00	0.0000000000E+00	-6.5000000000E+03	6.5000000000E+03	9.3827000000E-01	0.000E+00	0.0
	2212	1	0	0	0	0	0.0000000000E+00	0.0000000000E+00	4.9700084066E+03	4.9700084066E+03	9.3827000000E-01	0.000E+00	0.0
	2212	1	0	0	0	0	0.0000000000E+00	0.0000000000E+00	-6.3184169268E+03	6.3184169268E+03	9.3827000000E-01	0.000E+00	0.0
	51	2	1	2	0	0	-1.3361008315E+02	-5.5572598134E+00	1.3574185995E+03	1.7238764729E+03	1.0541737533E+03	0.000E+00	0.0
	1000022	2	5	5	0	0	1.3361008315E+02	5.5572598134E+00	1.1159033383E+03	1.4155839412E+03	8.6067130577E+02	0.000E+00	0.0
	14	1	6	6	0	0	7.6878842626E+01	2.0155788391E+02	8.8643038233E+02	9.6846257529E+02	3.2500000000E+02	0.000E+00	0.0
	-14	1	6	6	0	0	5.6731240529E+01	-1.9600062409E+02	2.2947295597E+02	4.4712136587E+02	3.2500000000E+02	0.000E+00	0.0
	25	2	5	5	0	0	-1.3361008315E+02	-5.5572598134E+00	2.3250518192E+02	2.9599072551E+02	1.2517712456E+02	0.000E+00	0.0
	-5	1	9	9	0	501	-9.8240755956E+01	-5.9658523708E+01	1.2030567363E+02	1.6643711452E+02	4.1800000000E+00	0.000E+00	0.0
	5	1	9	9	501	0	-3.5369327199E+01	5.4101263894E+01	1.1219950829E+02	1.2955361099E+02	4.1800000000E+00	0.000E+00	0.0
</event>
<event>
    11  -1  1.0000000E+00  1.0000000E+00  -1.0000000E+00  -1.0000000E+00
	2212	-1	0	0	0	0	0.0000000000E+00	0.0000000000E+00	6.5000000000E+03	6.5000000000E+03	9.3827000000E-01	0.000E+00	0.0
	2212	-1	0	0	0	0	0.0000000000E+00	0.0000000000E+00	-6.5000000000E+03	6.5000000000E+03	9.3827000000E-01	0.000E+00	0.0
	2212	1	0	0	0	0	0.0000000000E+00	0.0000000000E+00	6.2668958358E+03	6.2668958358E+03	9.3827000000E-01	0.000E+00	0.0
	2212	1	0	0	0	0	0.0000000000E+00	0.0000000000E+00	-5.3067710451E+03	5.3067710451E+03	9.3827000000E-01	0.000E+00	0.0
	51	2	1	2	0	0	1.2996128639E+02	-4.0486205390E+01	-8.8836324599E+02	1.3857506553E+03	1.0547921847E+03	0.000E+00	0.0
	1000022	2	5	5	0	0	-1.2996128639E+02	4.0486205390E+01	-8.6439610089E+02	1.2180970222E+03	8.4737870366E+02	0.000E+00	0.0
	14	1	6	6	0	0	9.7675309113E+01	2.3539208714E+02	-4.6978678210E+02	6.2551940125E+02	3.2500000000E+02	0.000E+00	0.0
	-14	1	6	6	0	0	-2.2763659550E+02	-1.9490588175E+02	-3.9460931878E+02	5.9257762093E+02	3.2500000000E+02	0.000E+00	0.0
	25	2	5	5	0	0	1.2996128639E+02	-4.0486205390E+01	-9.5728689781E+01	2.0823609690E+02	1.2517675990E+02	0.000E+00	0.0
	-5	1	9	9	0	501	2.0145832520E+00	2.5007232694E+00	2.5939811139E+01	2.6469952106E+01	4.1800000000E+00	0.000E+00	0.0
	5	1	9	9	501	0	1.2794670314E+02	-4.2986928659E+01	-1.2166850092E+02	1.8176614480E+02	4.1800000000E+00	0.000E+00	0.0
</event>
<event>
    11  -1  1.0000000E+00  1.0000000E+00  -1.0000000E+00  -1.0000000E+00
	2212	-1	0	0	0	0	0.0000000000E+00	0.0000000000E+00	6.5000000000E+03	6.5000000000E+03	9.3827000000E-01	0.000E+00	0.0
	2212	-1	0	0	0	0	0.0000000000E+00	0.0000000000E+00	-6.5000000000E+03	6.5000000000E+03	9.3827000000E-01	0.000E+00	0.0
	2212	1	0	0	0	0	0.0000000000E+00	0.0000000000E+00	5.9891687984E+03	5.9891687984E+03	9.3827000000E-01	0.000E+00	0.0
	2212	1	0	0	0	0	0.0000000000E+00	0.0000000000E+00	-5.9647546167E+03	5.9647546167E+03	9.3827000000E-01	0.000E+00	0.0
	51	2	1	2	0	0	-2.7150100619E+01	-9.3730104183E+01	-9.6253726237E+01	1.0547357059E+03	1.0457916471E+03	0.000E+00	0.0
	1000022	2	5	5	0	0	2.7150100619E+01	9.3730104183E+01	5.1328092373E+01	8.7019686828E+02	8.6318338498E+02	0.000E+00	0.0
	14	1	6	6	0	0	-8.4306693319E+00	2.1588999968E+02	2.5491562454E+02	4.6614004739E+02	3.2500000000E+02	0.000E+00	0.0
	-14	1	6	6	0	0	3.5580769951E+01	-1.2215989549E+02	-2.0358753217E+02	4.0405682089E+02	3.2500000000E+02	0.000E+00	0.0
	25	2	5	5	0	0	-2.7150100619E+01	-9.3730104183E+01	-7.5742274082E+01	1.7587971658E+02	1.2519713346E+02	0.000E+00	0.0
	-5	1	9	9	0	501	4.8607175649E+01	-3.4862346010E+01	-4.5260085746E+01	7.5126483051E+01	4.1800000000E+00	0.000E+00	0.0
	5	1	9	9	501	0	-7.5757276268E+01	-5.8867758173E+01	-3.0482188337E+01	1.0075323352E+02	4.1800000000E+00	0.000E+00	0.0
</event>
<event>
    11  -1  1.0000000E+00  1.0000000E+00  -1.0000000E+00  -1.0000000E+00
	2212	-1	0	0	0	0	0.0000000000E+00	0.0000000000E+00	6.5000000000E+03	6.5000000000E+03	9.3827000000E-01	0.000E+00	0.0
	2212	-1	0	0	0	0	0.0000000000E+00	0.0000000000E+00	-6.5000000000E+03	6.5000000000E+03	9.3827000000E-01	0.000E+00	0.0
	2212	1	0	0	0	0	0.0000000000E+00	0.0000000000E+00	5.9481004673E+03	5.9481004673E+03	9.3827000000E-01	0.000E+00	0.0
	2212	1	0	0	0	0	0.0000000000E+00	0.0000000000E+00	-5.9697067338E+03	5.9697067338E+03	9.3827000000E-01	0.000E+00	0.0
	51	2	1	2	0	0	1.5677941725E+02	-6.0814672562E+01	-2.2048072536E+01	1.0951889109E+03	1.0819770899E+03	0.000E+00	0.0
	1000022	2	5	5	0	0	-1.5677941725E+02	6.0814672562E+01	6.1260006857E+01	8.6881875104E+02	8.5018528783E+02	0.000E+00	0.0
	14	1	6	6	0	0	2.6520187304E+01	2.5061685478E+01	-2.2517957833E+02	3.9706706098E+02	3.2500000000E+02	0.000E+00	0.0
	-14	1	6	6	0	0	-1.8329960456E+02	3.5752987084E+01	2.8643958519E+02	4.7175169007E+02	3.2500000000E+02	0.000E+00	0.0
	25	2	5	5	0	0	1.5677941725E+02	-6.0814672562E+01	-3.9653740358E+01	2.1337404776E+02	1.2521124175E+02	0.000E+00	0.0
	-5	1	9	9	0	501	4.9004208078E+01	-7.2295217657E+01	1.9843584097E+01	8.9661871134E+01	4.1800000000E+00	0.000E+00	0.0
	5	1	9	9	501	0	1.0777520918E+02	1.1480545095E+01	-5.9497324456E+01	1.2371217663E+02	4.1800000000E+00	0.000E+00	0.0
</event>
<event>
    11  -1  1.0000000E+00  1.0000000E+00  -1.0000000E+00  -1.0000000E+00
	2212	-1	0	0	0	0	0.0000000000E+00	0.0000000000E+00	6.5000000000E+03	6.5000000000E+03	9.3827000000E-01	0.000E+00	0.0
	2212	-1	0	0	0	0	0.0000000000E+00	0.0000000000E+00	-6.5000000000E+03	6.5000000000E+03	9.3827000000E-01	0.000E+00	0.0
	2212	1	0	0	0	0	0.0000000000E+00	0.0000000000E+00	5.7298459303E+03	5.7298459303E+03	9.3827000000E-01	0.000E+00	0.0
	2212	1	0	0	0	0	0.0000000000E+00	0.0000000000E+00	-6.1348323118E+03	6.1348323118E+03	9.3827000000E-01	0.000E+00	0.0
	51	2	1	2	0	0	-2.7145378631E+01	1.4971230217E+02	4.6100325059E+02	1.1664545283E+03	1.0606326059E+03	0.000E+00	0.0
	1000022	2	5	5	0	0	2.7145378631E+01	-1.4971230217E+02	2.7608371594E+02	8.9986401643E+02	8.4284185044E+02	0.000E+00	0.0
	14	1	6	6	0	0	1.5310261834E+02	-3.0761635755E+02	1.7250537741E+02	5.0343951018E+02	3.2500000000E+02	0.000E+00	0.0
	-14	1	6	6	0	0	-1.2595723971E+02	1.5790405538E+02	1.0357833854E+02	3.9642450625E+02	3.2500000000E+02	0.000E+00	0.0
	25	2	5	5	0	0	-2.7145378631E+01	1.4971230217E+02	1.2890266559E+02	2.3545774142E+02	1.2519507099E+02	0.000E+00	0.0
	-5	1	9	9	0	501	3.6789510619E+01	7.0772388904E+01	1.0336667963E+02	1.3063055531E+02	4.1800000000E+00	0.000E+00	0.0
	5	1	9	9	501	0	-6.3934889250E+01	7.8939913263E+01	2.5535985957E+01	1.0482718611E+02	4.1800000000E+00	0.000E+00	0.0
</event>
<event>
    11  -1  1.0000000E+00  1.0000000E+00  -1.0000000E+00  -1.0000000E+00
	2212	-1	0	0	0	0	0.0000000000E+00	0.0000000000E+00	6.5000000000E+03	6.5000000000E+03	9.3827000000E-01	0.000E+00	0.0
	2212	-1	0	0	0	0	0.0000000000E+00	0.0000000000E+00	-6.5000000000E+03	6.5000000000E+03	9.3827000000E-01	0.000E+00	0.0
	2212	1	0	0	0	0	0.0000000000E+00	0.0000000000E+00	5.3980846611E+03	5.3980846611E+03	9.3827000000E-01	0.000E+00	0.0
	2212	1	0	0	0	0	0.0000000000E+00	0.0000000000E+00	-6.2505765167E+03	6.2505765167E+03	9.3827000000E-01	0.000E+00	0.0
	51	2	1	2	0	0	8.6944009591E+01	3.9116747805E+01	7.5694358591E+02	1.2966985855E+03	1.0485104905E+03	0.000E+00	0.0
	1000022	2	5	5	0	0	-8.6944009591E+01	-3.9116747805E+01	8.1089151469E+02	1.1885761117E+03	8.6375849863E+02	0.000E+00	0.0
	14	1	6	6	0	0	-1.8163126056E+02	5.6479592999E+01	7.3920238455E+02	8.2959328864E+02	3.2500000000E+02	0.000E+00	0.0
	-14	1	6	6	0	0	9.4687250971E+01	-9.5596340804E+01	7.1689130143E+01	3.5898282306E+02	3.2500000000E+02	0.000E+00	0.0
	25	2	5	5	0	0	8.6944009591E+01	3.9116747805E+01	4.1600340929E+01	1.6276271057E+02	1.2518678375E+02	0.000E+00	0.0
	-5	1	9	9	0	501	7.4670534473E+01	4.3564763771E+01	-2.8663940625E+01	9.1173851806E+01	4.1800000000E+00	0.000E+00	0.0
	5	1	9	9	501	0	1.2273475118E+01	-4.4480159657E+00	7.0264281554E+01	7.1588858768E+01	4.1800000000E+00	0.000E+00	0.0
</event>
<event>
    11  -1  1.0000000E+00  1.0000000E+00  -1.0000000E+00  -1.0000000E+00
	2212	-1	0	0	0	0	0.0000000000E+00	0.0000000000E+00	6.5000000000E+03	6.5000000000E+03	9.3827000000E-01	0.000E+00	0.0
	2212	-1	0	0	0	0	0.0000000000E+00	0.0000000000E+00	-6.5000000000E+03	6.5000000000E+03	9.3827000000E-01	0.000E+00	0.0
	2212	1	0	0	0	0	0.0000000000E+00	0.0000000000E+00	6.2556981633E+03	6.2556981633E+03	9.3827000000E-01	0.000E+00	0.0
	2212	1	0	0	0	0	0.0000000000E+00	0.0000000000E+00	-5.3770272324E+03	5.3770272324E+03	9.3827000000E-01	0.000E+00	0.0
	51	2	1	2	0	0	-9.6854087229E+01	4.2587327974E+01	-9.4738011701E+02	1.4163688502E+03	1.0475577497E+03	0.000E+00	0.0
	1000022	2	5	5	0	0	9.6854087229E+01	-4.2587327974E+01	-6.7200115476E+02	1.1035038460E+03	8.6887328853E+02	0.000E+00	0.0
	14	1	6	6	0	0	2.5431980627E+02	1.7787704845E+02	-3.0200226034E+02	5.4143251978E+02	3.2500000000E+02	0.000E+00	0.0
	-14	1	6	6	0	0	-1.5746571904E+02	-2.2046437642E+02	-3.6999889442E+02	5.6207132627E+02	3.2500000000E+02	0.000E+00	0.0
	25	2	5	5	0	0	-9.6854087229E+01	4.2587327974E+01	-2.0666977611E+02	2.6377075831E+02	1.2517276808E+02	0.000E+00	0.0
	-5	1	9	9	0	501	-2.3006532625E+01	-3.3540023354E+01	-1.1988475738E+02	1.2666515370E+02	4.1800000000E+00	0.000E+00	0.0
	5	1	9	9	501	0	-7.3847554604E+01	7.6127351329E+01	-8.6785018724E+01	1.3710560461E+02	4.1800000000E+00	0.000E+00	0.0
</event>
<event>
    11  -1  1.0000000E+00  1.0000000E+00  -1.0000000E+00  -1.0000000E+00
	2212	-1	0	0	0	0	0.0000000000E+00	0.0000000000E+00	6.5000000000E+03	6.5000000000E+03	9.3827000000E-01	0.000E+00	0.0
	2212	-1	0	0	0	0	0.0000000000E+00	0.0000000000E+00	-6.5000000000E+03	6.5000000000E+03	9.3827000000E-01	0.000E+00	0.0
	2212	1	0	0	0	0	0.0000000000E+00	0.0000000000E+00	5.3141148917E+03	5.3141148917E+03	9.3827000000E-01	0.000E+00	0.0
	2212	1	0	0	0	0	0.0000000000E+00	0.0000000000E+00	-6.2719995014E+03	6.2719995014E+03	9.3827000000E-01	0.000E+00	0.0
	51	2	1	2	0	0	4.3102616408E+01	7.6698161897E+00	1.1086544420E+03	1.5207106620E+03	1.0399661456E+03	0.000E+00	0.0
	1000022	2	5	5	0	0	-4.3102616408E+01	-7.6698161897E+00	6.5628050140E+02	1.0844216143E+03	8.6217717407E+02	0.000E+00	0.0
	14	1	6	6	0	0	-6.7857176934E+01	-1.7020028130E+02	6.1304124741E+02	7.1764706036E+02	3.2500000000E+02	0.000E+00	0.0
	-14	1	6	6	0	0	2.4754560526E+01	1.6253046511E+02	4.3239253991E+01	3.6677455397E+02	3.2500000000E+02	0.000E+00	0.0
	25	2	5	5	0	0	4.3102616408E+01	7.6698161897E+00	3.0160410830E+02	3.2946399263E+02	1.2515918935E+02	0.000E+00	0.0
	-5	1	9	9	0	501	4.3284151709E+01	1.8862882747E+01	3.1079496317E+02	3.1438878426E+02	4.1800000000E+00	0.000E+00	0.0
	5	1	9	9	501	0	-1.8153530117E-01	-1.1193066557E+01	-9.1908548780E+00	1.5075208370E+01	4.1800000000E+00	0.000E+00	0.0
</event>
<event>
    11  -1  1.0000000E+00  1.0000000E+00  -1.0000000E+00  -1.0000000E+00
	2212	-1	0	0	0	0	0.0000000000E+00	0.0000000000E+00	6.5000000000E+03	6.5000000000E+03	9.3827000000E-01	0.000E+00	0.0
	2212	-1	0	0	0	0	0.0000000000E+00	0.0000000000E+00	-6.5000000000E+03	6.5000000000E+03	9.3827000000E-01	0.000E+00	0.0
	2212	1	0	0	0	0	0.0000000000E+00	0.0000000000E+00	5.2495550881E+03	5.2495550881E+03	9.3827000000E-01	0.000E+00	0.0
	2212	1	0	0	0	0	0.0000000000E+00	0.0000000000E+00	-6.3059077035E+03	6.3059077035E+03	9.3827000000E-01	0.000E+00	0.0
	51	2	1	2	0	0	1.7777247534E+01	1.0056901525E+01	9.9529697138E+02	1.4006570357E+03	9.8529533571E+02	0.000E+00	0.0
	1000022	2	5	5	0	0	-1.7777247534E+01	-1.0056901525E+01	9.7521340708E+02	1.2939692850E+03	8.5023417328E+02	0.000E+00	0.0
	14	1	6	6	0	0	2.1000095528E+02	-1.6824029140E+02	4.4870488090E+02	6.1592716047E+02	3.2500000000E+02	0.000E+00	0.0
	-14	1	6	6	0	0	-2.2777820281E+02	1.5818338988E+02	5.2650852618E+02	6.7804212454E+02	3.2500000000E+02	0.000E+00	0.0
	25	2	5	5	0	0	1.7777247534E+01	1.0056901525E+01	8.1139208281E+01	1.5056792341E+02	1.2517969741E+02	0.000E+00	0.0
	-5	1	9	9	0	501	-8.1246652153E+00	-5.5472151638E+01	3.7576543070E+01	6.7621289409E+01	4.1800000000E+00	0.000E+00	0.0
	5	1	9	9	501	0	2.5901912750E+01	6.5529053164E+01	4.3562665211E+01	8.2946634006E+01	4.1800000000E+00	0.000E+00	0.0
</event>
<event>
    11  -1  1.0000000E+00  1.0000000E+00  -1.0000000E+00  -1.0000000E+00
	2212	-1	0	0	0	0	0.0000000000E+00	0.0000000000E+00	6.5000000000E+03	6.5000000000E+03	9.3827000000E-01	0.000E+00	0.0
	2212	-1	0	0	0	0	0.0000000000E+00	0.0000000000E+00	-6.5000000000E+03	6.5000000000E+03	9.3827000000E-01	0.000E+00	0.0
	2212	1	0	0	0	0	0.0000000000E+00	0.0000000000E+00	6.2036419040E+03	6.2036419040E+03	9.3827000000E-01	0.000E+00	0.0
	2212	1	0	0	0	0	0.0000000000E+00	0.0000000000E+00	-5.5714895851E+03	5.5714895851E+03	9.3827000000E-01	0.000E+00	0.0
	51	2	1	2	0	0	1.0724449012E+02	6.0973882943E+01	-5.4801519768E+02	1.1900530100E+03	1.0491359848E+03	0.000E+00	0.0
	1000022	2	5	5	0	0	-1.0724449012E+02	-6.0973882943E+01	-6.0666420081E+02	1.0472723829E+03	8.4470041815E+02	0.000E+00	0.0
	14	1	6	6	0	0	1.9123549383E+02	5.9817722774E+01	-1.8162944768E+02	4.2280424587E+02	3.2500000000E+02	0.000E+00	0.0
	-14	1	6	6	0	0	-2.9847998395E+02	-1.2079160572E+02	-4.2503475313E+02	6.2446813705E+02	3.2500000000E+02	0.000E+00	0.0
	25	2	5	5	0	0	1.0724449012E+02	6.0973882943E+01	-2.5488118146E+01	1.7759612796E+02	1.2518604330E+02	0.000E+00	0.0
	-5	1	9	9	0	501	2.7361083734E+01	-3.4923714264E+01	1.3852455436E+01	4.6665379487E+01	4.1800000000E+00	0.000E+00	0.0
	5	1	9	9	501	0	7.9883406385E+01	9.5897597207E+01	-3.9340573582E+01	1.3093074847E+02	4.1800000000E+00	0.000E+00	0.0
</event>
<event>
    11  -1  1.0000000E+00  1.0000000E+00  -1.0000000E+00  -1.0000000E+00
	2212	-1	0	0	0	0	0.0000000000E+00	0.0000000000E+00	6.5000000000E+03	6.5000000000E+03	9.3827000000E-01	0.000E+00	0.0
	2212	-1	0	0	0	0	0.0000000000E+00	0.0000000000E+00	-6.5000000000E+03	6.5000000000E+03	9.3827000000E-01	0.000E+00	0.0
	2212	1	0	0	0	0	0.0000000000E+00	0.0000000000E+00	6.2994951040E+03	6.2994951040E+03	9.3827000000E-01	0.000E+00	0.0
	2212	1	0	0	0	0	0.0000000000E+00	0.0000000000E+00	-5.1129743487E+03	5.1129743487E+03	9.3827000000E-01	0.000E+00	0.0
	51	2	1	2	0	0	-1.3222723865E+02	1.6611002200E+01	-1.3318982855E+03	1.7041522076E+03	1.0547140540E+03	0.000E+00	0.0
	1000022	2	5	5	0	0	1.3222723865E+02	-1.6611002200E+01	-8.2653644839E+02	1.1837712097E+03	8.3689414401E+02	0.000E+00	0.0
	14	1	6	6	0	0	2.4537997844E+02	-1.7618269651E+02	-5.8435970820E+02	7.3372538795E+02	3.2500000000E+02	0.000E+00	0.0
	-14	1	6	6	0	0	-1.1315273979E+02	1.5957169431E+02	-2.4217674019E+02	4.5004582171E+02	3.2500000000E+02	0.000E+00	0.0
	25	2	5	5	0	0	-1.3222723865E+02	1.6611002200E+01	-3.5998430690E+02	4.0375933756E+02	1.2519158684E+02	0.000E+00	0.0
	-5	1	9	9	0	501	-1.2598981769E+02	4.7151502360E+01	-2.0237487218E+02	2.4304271152E+02	4.1800000000E+00	0.000E+00	0.0
	5	1	9	9	501	0	-6.2374209596E+00	-3.0540500160E+01	-1.5760943473E+02	1.6071662604E+02	4.1800000000E+00	0.000E+00	0.0
</event>
<event>
    11  -1  1.0000000E+00  1.0000000E+00  -1.0000000E+00  -1.0000000E+00
	2212	-1	0	0	0	0	0.0000000000E+00	0.0000000000E+00	6.5000000000E+03	6.5000000000E+03	9.3827000000E-01	0.000E+00	0.0
	2212	-1	0	0	0	0	0.0000000000E+00	0.0000000000E+00	-6.5000000000E+03	6.5000000000E+03	9.3827000000E-01	0.000E+00	0.0
	2212	1	0	0	0	0	0.0000000000E+00	0.0000000000E+00	6.1152825288E+03	6.1152825288E+03	9.3827000000E-01	0.000E+00	0.0
	2212	1	0	0	0	0	0.0000000000E+00	0.0000000000E+00	-5.7933128408E+03	5.7933128408E+03	9.3827000000E-01	0.000E+00	0.0
	51	2	1	2	0	0	6.9333305517E+01	-4.9438869752E+01	-2.3561544527E+02	1.0725043284E+03	1.0428324828E+03	0.000E+00	0.0
	1000022	2	5	5	0	0	-6.9333305517E+01	4.9438869752E+01	-3.5691074731E+02	9.3602583586E+02	8.6110845703E+02	0.000E+00	0.0
	14	1	6	6	0	0	2.3820994687E+02	-3.6538772347E+00	-9.1997737238E+01	4.1333511012E+02	3.2500000000E+02	0.000E+00	0.0
	-14	1	6	6	0	0	-3.0754325238E+02	5.3092746987E+01	-2.6491301007E+02	5.2269072574E+02	3.2500000000E+02	0.000E+00	0.0
	25	2	5	5	0	0	6.9333305517E+01	-4.9438869752E+01	3.4941059370E+01	1.5537879451E+02	1.2518140061E+02	0.000E+00	0.0
	-5	1	9	9	0	501	7.9574423747E+01	-5.5213826568E+01	-2.0045061129E+01	9.8994608109E+01	4.1800000000E+00	0.000E+00	0.0
	5	1	9	9	501	0	-1.0241118230E+01	5.7749568158E+00	5.4986120499E+01	5.6384186403E+01	4.1800000000E+00	0.000E+00	0.0
</event>
<event>
    11  -1  1.0000000E+00  1.0000000E+00  -1.0000000E+00  -1.0000000E+00
	2212	-1	0	0	0	0	0.0000000000E+00	0.0000000000E+00	6.5000000000E+03	6.5000000000E+03	9.3827000000E-01	0.000E+00	0.0
	2212	-1	0	0	0	0	0.0000000000E+00	0.0000000000E+00	-6.5000000000E+03	6.5000000000E+03	9.3827000000E-01	0.000E+00	0.0
	2212	1	0	0	0	0	0.0000000000E+00	0.0000000000E+00	4.8546288045E+03	4.8546288045E+03	9.3827000000E-01	0.000E+00	0.0
	2212	1	0	0	0	0	0.0000000000E+00	0.0000000000E+00	-6.3401362927E+03	6.3401362927E+03	9.3827000000E-01	0.000E+00	0.0
	51	2	1	2	0	0	7.6173754392E+01	-6.0958578639E+01	1.4116607634E+03	1.7476970724E+03	1.0257390295E+03	0.000E+00	0.0
	1000022	2	5	5	0	0	-7.6173754392E+01	6.0958578639E+01	1.3280206866E+03	1.5816490367E+03	8.5349653910E+02	0.000E+00	0.0
	14	1	6	6	0	0	2.9938279092E+01	-6.5032161314E+01	1.1059785941E+03	1.1549628276E+03	3.2500000000E+02	0.000E+00	0.0
	-14	1	6	6	0	0	-1.0611203348E+02	1.2599073995E+02	2.2204209243E+02	4.2668620908E+02	3.2500000000E+02	0.000E+00	0.0
	25	2	5	5	0	0	7.6173754392E+01	-6.0958578639E+01	1.5748680168E+02	2.2358586605E+02	1.2518050018E+02	0.000E+00	0.0
	-5	1	9	9	0	501	1.1803862932E+01	2.0408883005E+01	-1.0462769281E+01	2.6130358334E+01	4.1800000000E+00	0.000E+00	0.0
	5	1	9	9	501	0	6.4369891460E+01	-8.1367461644E+01	1.6794957096E+02	1.9745550772E+02	4.1800000000E+00	0.000E+00	0.0
</event>
<event>
    11  -1  1.0000000E+00  1.0000000E+00  -1.0000000E+00  -1.0000000E+00
	2212	-1	0	0	0	0	0.0000000000E+00	0.0000000000E+00	6.5000000000E+03	6.5000000000E+03	9.3827000000E-01	0.000E+00	0.0
	2212	-1	0	0	0	0	0.0000000000E+00	0.0000000000E+00	-6.5000000000E+03	6.5000000000E+03	9.3827000000E-01	0.000E+00	0.0
	2212	1	0	0	0	0	0.0000000000E+00	0.0000000000E+00	5.2926435589E+03	5.2926435589E+03	9.3827000000E-01	0.000E+00	0.0
	2212	1	0	0	0	0	0.0000000000E+00	0.0000000000E+00	-6.2698001980E+03	6.2698001980E+03	9.3827000000E-01	0.000E+00	0.0
	51	2	1	2	0	0	-5.4379657181E+01	3.7291021283E+00	8.6778648489E+02	1.3666591716E+03	1.0543874310E+03	0.000E+00	0.0
	1000022	2	5	5	0	0	5.4379657181E+01	-3.7291021283E+00	9.4257757430E+02	1.2966806158E+03	8.8879529850E+02	0.000E+00	0.0
	14	1	6	6	0	0	3.5080698782E+01	-1.0060121619E+01	9.1288119999E+02	9.6969528552E+02	3.2500000000E+02	0.000E+00	0.0
	-14	1	6	6	0	0	1.9298958400E+01	6.3310194903E+00	2.9696374310E+01	3.2698533033E+02	3.2500000000E+02	0.000E+00	0.0
	25	2	5	5	0	0	-5.4379657181E+01	3.7291021283E+00	3.4579064804E+01	1.4087562719E+02	1.2521652166E+02	0.000E+00	0.0
	-5	1	9	9	0	501	-4.6788495800E+01	-4.0450397563E+00	8.0614995571E+01	9.3390447032E+01	4.1800000000E+00	0.000E+00	0.0
	5	1	9	9	501	0	-7.5911613812E+00	7.7741418846E+00	-4.6035930767E+01	4.7485180159E+01	4.1800000000E+00	0.000E+00	0.0
</event>
<event>
    11  -1  1.0000000E+00  1.0000000E+00  -1.0000000E+00  -1.0000000E+00
	2212	-1	0	0	0	0	0.0000000000E+00	0.0000000000E+00	6.5000000000E+03	6.5000000000E+03	9.3827000000E-01	0.000E+00	0.0
	2212	-1	0	0	0	0	0.0000000000E+00	0.0000000000E+00	-6.5000000000E+03	6.5000000000E+03	9.3827000000E-01	0.000E+00	0.0
	2212	1	0	0	0	0	0.0000000000E+00	0.0000000000E+00	5.5935955498E+03	5.5935955498E+03	9.3827000000E-01	0.000E+00	0.0
	2212	1	0	0	0	0	0.0000000000E+00	0.0000000000E+00	-6.1983936283E+03	6.1983936283E+03	9.3827000000E-01	0.000E+00	0.0
	51	2	1	2	0	0	1.1960871897E+01	1.2482084577E+02	5.8316812713E+02	1.2038761566E+03	1.0457100123E+03	0.000E+00	0.0
	1000022	2	5	5	0	0	-1.1960871897E+01	-1.2482084577E+02	5.2759954468E+02	1.0147475721E+03	8.5768761769E+02	0.000E+00	0.0
	14	1	6	6	0	0	-1.3366619337E+02	1.7239595317E+02	3.4815600160E+02	5.2385553101E+02	3.2500000000E+02	0.000E+00	0.0
	-14	1	6	6	0	0	1.2170532148E+02	-2.9721679894E+02	1.7944354308E+02	4.9089204109E+02	3.2500000000E+02	0.000E+00	0.0
	25	2	5	5	0	0	1.1960871897E+01	1.2482084577E+02	7.7198533857E+01	1.9326324975E+02	1.2517093944E+02	0.000E+00	0.0
	-5	1	9	9	0	501	4.0700532037E+01	1.0621636983E+01	-1.3708230261E+01	4.4438051905E+01	4.1800000000E+00	0.000E+00	0.0
	5	1	9	9	501	0	-2.8739660140E+01	1.1419920879E+02	9.0906764118E+01	1.4882519785E+02	4.1800000000E+00	0.000E+00	0.0
</event>
<event>
    11  -1  1.0000000E+00  1.0000000E+00  -1.0000000E+00  -1.0000000E+00
	2212	-1	0	0	0	0	0.0000000000E+00	0.0000000000E+00	6.5000000000E+03	6.5000000000E+03	9.3827000000E-01	0.000E+00	0.0
	2212	-1	0	0	0	0	0.0000000000E+00	0.0000000000E+00	-6.5000000000E+03	6.5000000000E+03	9.3827000000E-01	0.000E+00	0.0
	2212	1	0	0	0	0	0.0000000000E+00	0.0000000000E+00	6.2878486114E+03	6.2878486114E+03	9.3827000000E-01	0.000E+00	0.0
	2212	1	0	0	0	0	0.0000000000E+00	0.0000000000E+00	-5.2196143465E+03	5.2196143465E+03	9.3827000000E-01	0.000E+00	0.0
	51	2	1	2	0	0	-1.2856881481E+01	1.1248381589E+02	-9.8746363150E+02	1.4402932720E+03	1.0423734348E+03	0.000E+00	0.0
	1000022	2	5	5	0	0	1.2856881481E+01	-1.1248381589E+02	-9.7286236218E+02	1.2986744400E+03	8.5280491149E+02	0.000E+00	0.0
	14	1	6	6	0	0	4.8440572211E+01	-1.7825237163E+02	-1.3597424998E+02	3.9778686967E+02	3.2500000000E+02	0.000E+00	0.0
	-14	1	6	6	0	0	-3.5583690730E+01	6.5768555745E+01	-8.3688811221E+02	9.0088757030E+02	3.2500000000E+02	0.000E+00	0.0
	25	2	5	5	0	0	-1.2856881481E+01	1.1248381589E+02	-9.5371902670E+01	1.9386260216E+02	1.2517587811E+02	0.000E+00	0.0
	-5	1	9	9	0	501	1.9477323868E+01	1.1498290511E+02	-2.9569943606E+01	1.2038392159E+02	4.1800000000E+00	0.000E+00	0.0
	5	1	9	9	501	0	-3.2334205349E+01	-2.4990892205E+00	-6.5801959064E+01	7.3478680576E+01	4.1800000000E+00	0.000E+00	0.0
</event>
<event>
    11  -1  1.0000000E+00  1.0000000E+00  -1.0000000E+00  -1.0000000E+00
	2212	-1	0	0	0	0	0.0000000000E+00	0.0000000000E+00	6.5000000000E+03	6.5000000000E+03	9.3827000000E-01	0.000E+00	0.0
	2212	-1	0	0	0	0	0.0000000000E+00	0.0000000000E+00	-6.5000000000E+03	6.5000000000E+03	9.3827000000E-01	0.000E+00	0.0
	2212	1	0	0	0	0	0.0000000000E+00	0.0000000000E+00	6.1315386950E+03	6.1315386950E+03	9.3827000000E-01	0.000E+00	0.0
	2212	1	0	0	0	0	0.0000000000E+00	0.0000000000E+00	-5.7460526883E+03	5.7460526883E+03	9.3827000000E-01	0.000E+00	0.0
	51	2	1	2	0	0	4.2591610518E+01	-9.3379117848E+01	-5.0870852426E+02	1.1749551944E+03	1.0541354948E+03	0.000E+00	0.0
	1000022	2	5	5	0	0	-4.2591610518E+01	9.3379117848E+01	-1.9426362654E+02	8.7186877721E+02	8.4373165351E+02	0.000E+00	0.0
	14	1	6	6	0	0	6.9015462694E+01	6.2612633876E+01	-3.5588922909E+02	4.9088249041E+02	3.2500000000E+02	0.000E+00	0.0
	-14	1	6	6	0	0	-1.1160707321E+02	3.0766483972E+01	1.6162560255E+02	3.8098628680E+02	3.2500000000E+02	0.000E+00	0.0
	25	2	5	5	0	0	4.2591610518E+01	-9.3379117848E+01	-1.9122238020E+02	2.5053983944E+02	1.2518189774E+02	0.000E+00	0.0
	-5	1	9	9	0	501	-1.7228200229E+01	-9.9872534424E+01	-1.1507597517E+02	1.5339910846E+02	4.1800000000E+00	0.000E+00	0.0
	5	1	9	9	501	0	5.9819810747E+01	6.4934165761E+00	-7.6146405030E+01	9.7140730982E+01	4.1800000000E+00	0.000E+00	0.0
</event>
<event>
    11  -1  1.0000000E+00  1.0000000E+00  -1.0000000E+00  -1.0000000E+00
	2212	-1	0	0	0	0	0.0000000000E+00	0.0000000000E+00	6.5000000000E+03	6.5000000000E+03	9.3827000000E-01	0.000E+00	0.0
	2212	-1	0	0	0	0	0.0000000000E+00	0.0000000000E+00	-6.5000000000E+03	6.5000000000E+03	9.3827000000E-01	0.000E+00	0.0
	2212	1	0	0	0	0	0.0000000000E+00	0.0000000000E+00	5.5535146498E+03	5.5535146498E+03	9.3827000000E-01	0.000E+00	0.0
	2212	1	0	0	0	0	0.0000000000E+00	0.0000000000E+00	-6.2064335250E+03	6.2064335250E+03	9.3827000000E-01	0.000E+00	0.0
	51	2	1	2	0	0	8.3692923556E+01	1.3960735803E+02	6.7066409990E+02	1.2600438588E+03	1.0542416570E+03	0.000E+00	0.0
	1000022	2	5	5	0	0	-8.3692923556E+01	-1.3960735803E+02	5.1564847179E+02	9.9305239178E+02	8.3292555879E+02	0.000E+00	0.0
	14	1	6	6	0	0	-1.1177137835E+02	1.1501083401E+02	4.4391137415E+02	5.7306425561E+02	3.2500000000E+02	0.000E+00	0.0
	-14	1	6	6	0	0	2.8078454797E+01	-2.5461819204E+02	7.1737097637E+01	4.1998813616E+02	3.2500000000E+02	0.000E+00	0.0
	25	2	5	5	0	0	8.3692923556E+01	1.3960735803E+02	1.3727040343E+02	2.4699943335E+02	1.2518321194E+02	0.000E+00	0.0
	-5	1	9	9	0	501	6.0181569191E+01	1.1551901822E+02	2.8959044079E+01	1.3350117406E+02	4.1800000000E+00	0.000E+00	0.0
	5	1	9	9	501	0	2.3511354366E+01	2.4088339803E+01	1.0831135935E+02	1.1349825929E+02	4.1800000000E+00	0.000E+00	0.0
</event>
<event>
    11  -1  1.0000000E+00  1.0000000E+00  -1.0000000E+00  -1.0000000E+00
	2212	-1	0	0	0	0	0.0000000000E+00	0.0000000000E+00	6.5000000000E+03	6.5000000000E+03	9.3827000000E-01	0.000E+00	0.0
	2212	-1	0	0	0	0	0.0000000000E+00	0.0000000000E+00	-6.5000000000E+03	6.5000000000E+03	9.3827000000E-01	0.000E+00	0.0
	2212	1	0	0	0	0	0.0000000000E+00	0.0000000000E+00	-2.6743089342E+02	-2.6743089342E+02	9.3827000000E-01	0.000E+00	0.0
	2212	1	0	0	0	0	0.0000000000E+00	0.0000000000E+00	-3.9583594418E+02	3.9583594418E+02	9.3827000000E-01	0.000E+00	0.0
	51	2	1	2	0	0	-4.5281742406E+03	3.8404534699E+03	3.1293095335E+03	1.4501174318E+04	1.2854494686E+04	0.000E+00	0.0
	1000022	2	5	5	0	0	4.5281742406E+03	-3.8404534699E+03	-2.0553677834E+03	6.3401257775E+03	8.4806446808E+02	0.000E+00	0.0
	14	1	6	6	0	0	1.0538624598E+03	-1.0203709428E+03	-6.6500912813E+02	1.6430596720E+03	3.2500000000E+02	0.000E+00	0.0
	-14	1	6	6	0	0	3.4743117808E+03	-2.8200825271E+03	-1.3903586553E+03	4.6970661056E+03	3.2500000000E+02	0.000E+00	0.0
	25	2	5	5	0	0	-4.5281742406E+03	3.8404534699E+03	2.7186346210E+03	6.5314691717E+03	1.2518198862E+02	0.000E+00	0.0
	-5	1	9	9	0	501	-1.9365800267E+03	1.6892020736E+03	1.1209816064E+03	2.8036339061E+03	4.1799999999E+00	0.000E+00	0.0
	5	1	9	9	501	0	-2.5915942139E+03	2.1512513964E+03	1.5976530147E+03	3.7278352656E+03	4.1800000007E+00	0.000E+00	0.0
</event>
<event>
    11  -1  1.0000000E+00  1.0000000E+00  -1.0000000E+00  -1.0000000E+00
	2212	-1	0	0	0	0	0.0000000000E+00	0.0000000000E+00	6.5000000000E+03	6.5000000000E+03	9.3827000000E-01	0.000E+00	0.0
	2212	-1	0	0	0	0	0.0000000000E+00	0.0000000000E+00	-6.5000000000E+03	6.5000000000E+03	9.3827000000E-01	0.000E+00	0.0
	2212	1	0	0	0	0	0.0000000000E+00	0.0000000000E+00	6.2498553558E+03	6.2498553558E+03	9.3827000000E-01	0.000E+00	0.0
	2212	1	0	0	0	0	0.0000000000E+00	0.0000000000E+00	-5.4044443532E+03	5.4044443532E+03	9.3827000000E-01	0.000E+00	0.0
	51	2	1	2	0	0	-1.1386335753E+02	-7.1498127119E+01	-8.5179596124E+02	1.3564006472E+03	1.0469906924E+03	0.000E+00	0.0
	1000022	2	5	5	0	0	1.1386335753E+02	7.1498127119E+01	-6.9763707453E+02	1.1099411447E+03	8.5275729874E+02	0.000E+00	0.0
	14	1	6	6	0	0	-1.4101792198E+02	4.0064207347E+01	-5.7743029794E+02	6.7863240713E+02	3.2500000000E+02	0.000E+00	0.0
	-14	1	6	6	0	0	2.5488127950E+02	3.1433919773E+01	-1.2020677658E+02	4.3130873755E+02	3.2500000000E+02	0.000E+00	0.0
	25	2	5	5	0	0	-1.1386335753E+02	-7.1498127119E+01	-1.4777392811E+02	2.3575914634E+02	1.2517345919E+02	0.000E+00	0.0
	-5	1	9	9	0	501	-1.4085592082E+02	-6.1818932417E+01	-1.1564406793E+02	1.9249154185E+02	4.1800000000E+00	0.000E+00	0.0
	5	1	9	9	501	0	2.6992563296E+01	-9.6791947021E+00	-3.2129860173E+01	4.3267604488E+01	4.1800000000E+00	0.000E+00	0.0
</event>
<event>
    11  -1  1.0000000E+00  1.0000000E+00  -1.0000000E+00  -1.0000000E+00
	2212	-1	0	0	0	0	0.0000000000E+00	0.0000000000E+00	6.5000000000E+03	6.5000000000E+03	9.3827000000E-01	0.000E+00	0.0
	2212	-1	0	0	0	0	0.0000000000E+00	0.0000000000E+00	-6.5000000000E+03	6.5000000000E+03	9.3827000000E-01	0.000E+00	0.0
	2212	1	0	0	0	0	0.0000000000E+00	0.0000000000E+00	6.3047998706E+03	6.3047998706E+03	9.3827000000E-01	0.000E+00	0.0
	2212	1	0	0	0	0	0.0000000000E+00	0.0000000000E+00	-5.0798891941E+03	5.0798891941E+03	9.3827000000E-01	0.000E+00	0.0
	51	2	1	2	0	0	6.6217087844E+01	7.5836146454E+01	-1.4159568162E+03	1.7674537566E+03	1.0530067676E+03	0.000E+00	0.0
	1000022	2	5	5	0	0	-6.6217087844E+01	-7.5836146454E+01	-8.1628107072E+02	1.1762370270E+03	8.4088223520E+02	0.000E+00	0.0
	14	1	6	6	0	0	6.0287466862E+01	1.8075222873E+02	-2.1026920837E+02	4.3144418740E+02	3.2500000000E+02	0.000E+00	0.0
	-14	1	6	6	0	0	-1.2650455471E+02	-2.5658837518E+02	-6.0601186235E+02	7.4479283962E+02	3.2500000000E+02	0.000E+00	0.0
	25	2	5	5	0	0	6.6217087844E+01	7.5836146454E+01	-4.0862960576E+02	4.3907390835E+02	1.2518753316E+02	0.000E+00	0.0
	-5	1	9	9	0	501	8.7811237613E+01	7.5793403273E+01	-3.9812261443E+02	4.1469813353E+02	4.1800000000E+00	0.000E+00	0.0
	5	1	9	9	501	0	-2.1594149769E+01	4.2743180790E-02	-1.0506991324E+01	2.4375774816E+01	4.1800000000E+00	0.000E+00	0.0
</event>
<event>
    11  -1  1.0000000E+00  1.0000000E+00  -1.0000000E+00  -1.0000000E+00
	2212	-1	0	0	0	0	0.0000000000E+00	0.0000000000E+00	6.5000000000E+03	6.5000000000E+03	9.3827000000E-01	0.000E+00	0.0
	2212	-1	0	0	0	0	0.0000000000E+00	0.0000000000E+00	-6.5000000000E+03	6.5000000000E+03	9.3827000000E-01	0.000E+00	0.0
	2212	1	0	0	0	0	0.0000000000E+00	0.0000000000E+00	6.2850599872E+03	6.2850599872E+03	9.3827000000E-01	0.000E+00	0.0
	2212	1	0	0	0	0	0.0000000000E+00	0.0000000000E+00	-5.1733696448E+03	5.1733696448E+03	9.3827000000E-01	0.000E+00	0.0
	51	2	1	2	0	0	1.3669660235E+02	3.4776295268E+01	-1.0194625329E+03	1.4831665415E+03	1.0679811712E+03	0.000E+00	0.0
	1000022	2	5	5	0	0	-1.3669660235E+02	-3.4776295268E+01	-1.0058423321E+03	1.3253043490E+03	8.5136212549E+02	0.000E+00	0.0
	14	1	6	6	0	0	8.5595605102E+01	-1.6817026809E+02	-2.1789359918E+02	4.3440818046E+02	3.2500000000E+02	0.000E+00	0.0
	-14	1	6	6	0	0	-2.2229220746E+02	1.3339397282E+02	-7.8794873290E+02	8.9089616856E+02	3.2500000000E+02	0.000E+00	0.0
	25	2	5	5	0	0	1.3669660235E+02	3.4776295268E+01	-1.0584801035E+02	2.1626601897E+02	1.2518721124E+02	0.000E+00	0.0
	-5	1	9	9	0	501	1.3894367893E+02	-9.9064076931E+00	-9.8691139596E+01	1.7076561791E+02	4.1800000000E+00	0.000E+00	0.0
	5	1	9	9	501	0	-2.2470765708E+00	4.4682702961E+01	-7.1568707511E+00	4.5500401053E+01	4.1800000000E+00	0.000E+00	0.0
</event>
<event>
    11  -1  1.0000000E+00  1.0000000E+00  -1.0000000E+00  -1.0000000E+00
	2212	-1	0	0	0	0	0.0000000000E+00	0.0000000000E+00	6.5000000000E+03	6.5000000000E+03	9.3827000000E-01	0.000E+00	0.0
	2212	-1	0	0	0	0	0.0000000000E+00	0.0000000000E+00	-6.5000000000E+03	6.5000000000E+03	9.3827000000E-01	0.000E+00	0.0
	2212	1	0	0	0	0	0.0000000000E+00	0.0000000000E+00	5.0672758232E+03	5.0672758232E+03	9.3827000000E-01	0.000E+00	0.0
	2212	1	0	0	0	0	0.0000000000E+00	0.0000000000E+00	-6.3136030446E+03	6.3136030446E+03	9.3827000000E-01	0.000E+00	0.0
	51	2	1	2	0	0	7.2974880037E+00	1.3011752980E+02	1.3092994856E+03	1.6731618767E+03	1.0335481110E+03	0.000E+00	0.0
	1000022	2	5	5	0	0	-7.2974880037E+00	-1.3011752980E+02	9.7225595185E+02	1.2908387160E+03	8.3904656005E+02	0.000E+00	0.0
	14	1	6	6	0	0	-1.2346265795E+02	-2.5860126339E+02	3.0896489585E+02	5.3216721827E+02	3.2500000000E+02	0.000E+00	0.0
	-14	1	6	6	0	0	1.1616516995E+02	1.2848373358E+02	6.6329105600E+02	7.5867149773E+02	3.2500000000E+02	0.000E+00	0.0
	25	2	5	5	0	0	7.2974880037E+00	1.3011752980E+02	2.7407126954E+02	3.2828241611E+02	1.2518170412E+02	0.000E+00	0.0
	-5	1	9	9	0	501	5.4070317724E+01	1.7062049362E+01	6.8486450852E+01	8.9008871117E+01	4.1800000000E+00	0.000E+00	0.0
	5	1	9	9	501	0	-4.6772829720E+01	1.1305548044E+02	2.0558481869E+02	2.3927354499E+02	4.1800000000E+00	0.000E+00	0.0
</event>
<event>
    11  -1  1.0000000E+00  1.0000000E+00  -1.0000000E+00  -1.0000000E+00
	2212	-1	0	0	0	0	0.0000000000E+00	0.0000000000E+00	6.5000000000E+03	6.5000000000E+03	9.3827000000E-01	0.000E+00	0.0
	2212	-1	0	0	0	0	0.0000000000E+00	0.0000000000E+00	-6.5000000000E+03	6.5000000000E+03	9.3827000000E-01	0.000E+00	0.0
	2212	1	0	0	0	0	0.0000000000E+00	0.0000000000E+00	5.3141970489E+03	5.3141970489E+03	9.3827000000E-01	0.000E+00	0.0
	2212	1	0	0	0	0	0.0000000000E+00	0.0000000000E+00	-6.2671995017E+03	6.2671995017E+03	9.3827000000E-01	0.000E+00	0.0
	51	2	1	2	0	0	3.3874147261E+01	8.8253462237E+01	9.6002128186E+02	1.4264638322E+03	1.0508197141E+03	0.000E+00	0.0
	1000022	2	5	5	0	0	-3.3874147261E+01	-8.8253462237E+01	8.0756123678E+02	1.2046927305E+03	8.8892817048E+02	0.000E+00	0.0
	14	1	6	6	0	0	4.8400556368E+01	-3.6610409627E+00	7.9326999544E+02	8.5863746875E+02	3.2500000000E+02	0.000E+00	0.0
	-14	1	6	6	0	0	-8.2274703629E+01	-8.4592421274E+01	1.4291241349E+01	3.4605526173E+02	3.2500000000E+02	0.000E+00	0.0
	25	2	5	5	0	0	3.3874147261E+01	8.8253462237E+01	1.4544121607E+02	2.1391071895E+02	1.2517394658E+02	0.000E+00	0.0
	-5	1	9	9	0	501	2.1518693448E+01	9.7192215161E+00	1.3078222232E+02	1.3296232365E+02	4.1800000000E+00	0.000E+00	0.0
	5	1	9	9	501	0	1.2355453812E+01	7.8534240721E+01	1.4658993745E+01	8.0948395303E+01	4.1800000000E+00	0.000E+00	0.0
</event>
<event>
    11  -1  1.0000000E+00  1.0000000E+00  -1.0000000E+00  -1.0000000E+00
	2212	-1	0	0	0	0	0.0000000000E+00	0.0000000000E+00	6.5000000000E+03	6.5000000000E+03	9.3827000000E-01	0.000E+00	0.0
	2212	-1	0	0	0	0	0.0000000000E+00	0.0000000000E+00	-6.5000000000E+03	6.5000000000E+03	9.3827000000E-01	0.000E+00	0.0
	2212	1	0	0	0	0	0.0000000000E+00	0.0000000000E+00	5.7991369664E+03	5.7991369664E+03	9.3827000000E-01	0.000E+00	0.0
	2212	1	0	0	0	0	0.0000000000E+00	0.0000000000E+00	-6.1166280806E+03	6.1166280806E+03	9.3827000000E-01	0.000E+00	0.0
	51	2	1	2	0	0	-1.1540161080E+02	-2.0898378648E+01	3.4736505102E+02	1.0996279273E+03	1.0367086504E+03	0.000E+00	0.0
	1000022	2	5	5	0	0	1.1540161080E+02	2.0898378648E+01	2.3658983894E+02	8.9458316865E+02	8.5472218863E+02	0.000E+00	0.0
	14	1	6	6	0	0	-6.6162307560E+01	1.1418940595E+02	3.4885320508E+02	4.9471226998E+02	3.2500000000E+02	0.000E+00	0.0
	-14	1	6	6	0	0	1.8156391836E+02	-9.3291027305E+01	-1.1226336614E+02	3.9987089867E+02	3.2500000000E+02	0.000E+00	0.0
	25	2	5	5	0	0	-1.1540161080E+02	-2.0898378648E+01	8.0901275201E+01	1.8965178438E+02	1.2517391495E+02	0.000E+00	0.0
	-5	1	9	9	0	501	1.5618161432E+01	2.7246109914E+01	1.8583759008E+01	3.6730177931E+01	4.1800000000E+00	0.000E+00	0.0
	5	1	9	9	501	0	-1.3101977223E+02	-4.8144488563E+01	6.2317516193E+01	1.5292160645E+02	4.1800000000E+00	0.000E+00	0.0
</event>
<event>
    11  -1  1.0000000E+00  1.0000000E+00  -1.0000000E+00  -1.0000000E+00
	2212	-1	0	0	0	0	0.0000000000E+00	0.0000000000E+00	6.5000000000E+03	6.5000000000E+03	9.3827000000E-01	0.000E+00	0.0
	2212	-1	0	0	0	0	0.0000000000E+00	0.0000000000E+00	-6.5000000000E+03	6.5000000000E+03	9.3827000000E-01	0.000E+00	0.0
	2212	1	0	0	0	0	0.0000000000E+00	0.0000000000E+00	5.8607375800E+03	5.8607375800E+03	9.3827000000E-01	0.000E+00	0.0
	2212	1	0	0	0	0	0.0000000000E+00	0.0000000000E+00	-6.0776240408E+03	6.0776240408E+03	9.3827000000E-01	0.000E+00	0.0
	51	2	1	2	0	0	1.0320111711E+02	3.9282928649E+01	2.8634181398E+02	1.0836150445E+03	1.0392479547E+03	0.000E+00	0.0
	1000022	2	5	5	0	0	-1.0320111711E+02	-3.9282928649E+01	1.1160200549E+02	8.6428170282E+02	8.4990248567E+02	0.000E+00	0.0
	14	1	6	6	0	0	1.4886774243E+02	1.6836480224E+02	7.4032236519E+01	4.0201254136E+02	3.2500000000E+02	0.000E+00	0.0
	-14	1	6	6	0	0	-2.5206885954E+02	-2.0764773089E+02	3.7569768968E+01	4.6226916146E+02	3.2500000000E+02	0.000E+00	0.0
	25	2	5	5	0	0	1.0320111711E+02	3.9282928649E+01	1.0528445529E+02	1.9735667635E+02	1.2518475193E+02	0.000E+00	0.0
	-5	1	9	9	0	501	4.9130315779E+01	-4.2730123343E+01	2.3116404736E+01	6.9220603416E+01	4.1800000000E+00	0.000E+00	0.0
	5	1	9	9	501	0	5.4070801329E+01	8.2013051992E+01	8.2168050559E+01	1.2813607293E+02	4.1800000000E+00	0.000E+00	0.0
</event>
<event>
    11  -1  1.0000000E+00  1.0000000E+00  -1.0000000E+00  -1.0000000E+00
	2212	-1	0	0	0	0	0.0000000000E+00	0.0000000000E+00	6.5000000000E+03	6.5000000000E+03	9.3827000000E-01	0.000E+00	0.0
	2212	-1	0	0	0	0	0.0000000000E+00	0.0000000000E+00	-6.5000000000E+03	6.5000000000E+03	9.3827000000E-01	0.000E+00	0.0
	2212	1	0	0	0	0	0.0000000000E+00	0.0000000000E+00	5.8288246631E+03	5.8288246631E+03	9.3827000000E-01	0.000E+00	0.0
	2212	1	0	0	0	0	0.0000000000E+00	0.0000000000E+00	-6.0924815178E+03	6.0924815178E+03	9.3827000000E-01	0.000E+00	0.0
	51	2	1	2	0	0	-1.2578877248E+02	-4.5096652776E+01	2.4644438928E+02	1.0828927827E+03	1.0459758211E+03	0.000E+00	0.0
	1000022	2	5	5	0	0	1.2578877248E+02	4.5096652776E+01	2.3665854335E+02	8.9361622236E+02	8.5128500713E+02	0.000E+00	0.0
	14	1	6	6	0	0	-1.3251431906E+02	-1.7399169969E+02	9.1595908297E+01	4.0230332677E+02	3.2500000000E+02	0.000E+00	0.0
	-14	1	6	6	0	0	2.5830309154E+02	2.1908835247E+02	1.4506263505E+02	4.9131289559E+02	3.2500000000E+02	0.000E+00	0.0
	25	2	5	5	0	0	-1.2578877248E+02	-4.5096652776E+01	2.6998311282E+01	1.8507759673E+02	1.2517301876E+02	0.000E+00	0.0
	-5	1	9	9	0	501	-1.0356292698E+02	-2.6652411928E+01	7.3746738485E+01	1.2996801431E+02	4.1800000000E+00	0.000E+00	0.0
	5	1	9	9	501	0	-2.2225845492E+01	-1.8444240848E+01	-4.6748427203E+01	5.5109582418E+01	4.1800000000E+00	0.000E+00	0.0
</event>
<event>
    11  -1  1.0000000E+00  1.0000000E+00  -1.0000000E+00  -1.0000000E+00
	2212	-1	0	0	0	0	0.0000000000E+00	0.0000000000E+00	6.5000000000E+03	6.5000000000E+03	9.3827000000E-01	0.000E+00	0.0
	2212	-1	0	0	0	0	0.0000000000E+00	0.0000000000E+00	-6.5000000000E+03	6.5000000000E+03	9.3827000000E-01	0.000E+00	0.0
	2212	1	0	0	0	0	0.0000000000E+00	0.0000000000E+00	6.2306551058E+03	6.2306551058E+03	9.3827000000E-01	0.000E+00	0.0
	2212	1	0	0	0	0	0.0000000000E+00	0.0000000000E+00	-5.4491268117E+03	5.4491268117E+03	9.3827000000E-01	0.000E+00	0.0
	51	2	1	2	0	0	1.0742287328E+02	2.0200855258E+01	-9.2271486217E+02	1.4126357549E+03	1.0640438482E+03	0.000E+00	0.0
	1000022	2	5	5	0	0	-1.0742287328E+02	-2.0200855258E+01	-5.0315893537E+02	9.9606062261E+02	8.5265473751E+02	0.000E+00	0.0
	14	1	6	6	0	0	-3.0444130556E+01	2.5500323116E+02	-3.3131678488E+02	5.3042370321E+02	3.2500000000E+02	0.000E+00	0.0
	-14	1	6	6	0	0	-7.6978742725E+01	-2.7520408642E+02	-1.7184215049E+02	4.6563691939E+02	3.2500000000E+02	0.000E+00	0.0
	25	2	5	5	0	0	1.0742287328E+02	2.0200855258E+01	-2.7836935872E+02	3.2415745991E+02	1.2506322676E+02	0.000E+00	0.0
	-5	1	9	9	0	501	-8.2782144463E+00	3.8269385144E+01	-1.2557518133E+02	1.3160422956E+02	4.1800000000E+00	0.000E+00	0.0
	5	1	9	9	501	0	1.1570108773E+02	-1.8068529886E+01	-1.5279417739E+02	1.9255323035E+02	4.1800000000E+00	0.000E+00	0.0
</event>
<event>
    11  -1  1.0000000E+00  1.0000000E+00  -1.0000000E+00  -1.0000000E+00
	2212	-1	0	0	0	0	0.0000000000E+00	0.0000000000E+00	6.5000000000E+03	6.5000000000E+03	9.3827000000E-01	0.000E+00	0.0
	2212	-1	0	0	0	0	0.0000000000E+00	0.0000000000E+00	-6.5000000000E+03	6.5000000000E+03	9.3827000000E-01	0.000E+00	0.0
	2212	1	0	0	0	0	0.0000000000E+00	0.0000000000E+00	5.8590237934E+03	5.8590237934E+03	9.3827000000E-01	0.000E+00	0.0
	2212	1	0	0	0	0	0.0000000000E+00	0.0000000000E+00	-6.0665039259E+03	6.0665039259E+03	9.3827000000E-01	0.000E+00	0.0
	51	2	1	2	0	0	3.8795337693E+01	-1.5502006203E+02	1.9899260066E+02	1.0847013550E+03	1.0542498170E+03	0.000E+00	0.0
	1000022	2	5	5	0	0	-3.8795337693E+01	1.5502006203E+02	1.7834384546E+02	8.6940165627E+02	8.3577294456E+02	0.000E+00	0.0
	14	1	6	6	0	0	-1.4701493312E+02	-1.0385357363E+01	3.0400823696E+02	4.6879340263E+02	3.2500000000E+02	0.000E+00	0.0
	-14	1	6	6	0	0	1.0821959543E+02	1.6540541939E+02	-1.2566439150E+02	4.0060825365E+02	3.2500000000E+02	0.000E+00	0.0
	25	2	5	5	0	0	3.8795337693E+01	-1.5502006203E+02	2.9136287117E+01	2.0507062443E+02	1.2517483740E+02	0.000E+00	0.0
	-5	1	9	9	0	501	-8.9627165377E+00	-1.3201784658E+02	5.8037419166E+01	1.4455053278E+02	4.1800000000E+00	0.000E+00	0.0
	5	1	9	9	501	0	4.7758054231E+01	-2.3002215443E+01	-2.8901132049E+01	6.0520091647E+01	4.1800000000E+00	0.000E+00	0.0
</event>
<event>
    11  -1  1.0000000E+00  1.0000000E+00  -1.0000000E+00  -1.0000000E+00
	2212	-1	0	0	0	0	0.0000000000E+00	0.0000000000E+00	6.5000000000E+03	6.5000000000E+03	9.3827000000E-01	0.000E+00	0.0
	2212	-1	0	0	0	0	0.0000000000E+00	0.0000000000E+00	-6.5000000000E+03	6.5000000000E+03	9.3827000000E-01	0.000E+00	0.0
	2212	1	0	0	0	0	0.0000000000E+00	0.0000000000E+00	5.4951820851E+03	5.4951820851E+03	9.3827000000E-01	0.000E+00	0.0
	2212	1	0	0	0	0	0.0000000000E+00	0.0000000000E+00	-6.2250673057E+03	6.2250673057E+03	9.3827000000E-01	0.000E+00	0.0
	51	2	1	2	0	0	-1.1916552276E+01	-5.8394516840E+00	9.1881376732E+02	1.3962177584E+03	1.0512036846E+03	0.000E+00	0.0
	1000022	2	5	5	0	0	1.1916552276E+01	5.8394516840E+00	4.1281484075E+02	9.3860486086E+02	8.4284452224E+02	0.000E+00	0.0
	14	1	6	6	0	0	-1.2454121419E+02	1.6466111934E+02	3.9495654453E+02	5.5157906987E+02	3.2500000000E+02	0.000E+00	0.0
	-14	1	6	6	0	0	1.3645776647E+02	-1.5882166766E+02	1.7858296218E+01	3.8702579099E+02	3.2500000000E+02	0.000E+00	0.0
	25	2	5	5	0	0	-1.1916552276E+01	-5.8394516840E+00	3.1707037978E+02	3.4114574833E+02	1.2518263640E+02	0.000E+00	0.0
	-5	1	9	9	0	501	9.8607187576E-01	-5.4099100458E+01	6.7599860067E+01	8.6688514171E+01	4.1800000000E+00	0.000E+00	0.0
	5	1	9	9	501	0	-1.2902624152E+01	4.8259648774E+01	2.4947051972E+02	2.5445723416E+02	4.1800000000E+00	0.000E+00	0.0
</event>
<event>
    11  -1  1.0000000E+00  1.0000000E+00  -1.0000000E+00  -1.0000000E+00
	2212	-1	0	0	0	0	0.0000000000E+00	0.0000000000E+00	6.5000000000E+03	6.5000000000E+03	9.3827000000E-01	0.000E+00	0.0
	2212	-1	0	0	0	0	0.0000000000E+00	0.0000000000E+00	-6.5000000000E+03	6.5000000000E+03	9.3827000000E-01	0.000E+00	0.0
	2212	1	0	0	0	0	0.0000000000E+00	0.0000000000E+00	6.1242522938E+03	6.1242522938E+03	9.3827000000E-01	0.000E+00	0.0
	2212	1	0	0	0	0	0.0000000000E+00	0.0000000000E+00	-5.7445308906E+03	5.7445308906E+03	9.3827000000E-01	0.000E+00	0.0
	51	2	1	2	0	0	-1.9475324516E+01	-1.4814556430E+02	-4.3174614661E+02	1.1593939242E+03	1.0655811278E+03	0.000E+00	0.0
	1000022	2	5	5	0	0	1.9475324516E+01	1.4814556430E+02	-2.6044308862E+02	9.0268658016E+02	8.5128494824E+02	0.000E+00	0.0
	14	1	6	6	0	0	-1.7350152977E+02	-1.3307124285E+02	-9.2018643430E+01	4.0237192651E+02	3.2500000000E+02	0.000E+00	0.0
	-14	1	6	6	0	0	1.9297685429E+02	2.8121680715E+02	-1.6842444519E+02	5.0031465364E+02	3.2500000000E+02	0.000E+00	0.0
	25	2	5	5	0	0	-1.9475324516E+01	-1.4814556430E+02	-1.1927831450E+02	2.2853023544E+02	1.2518927954E+02	0.000E+00	0.0
	-5	1	9	9	0	501	2.1711549345E+01	-1.4644691762E+02	-6.9032596058E+01	1.6340459839E+02	4.1800000000E+00	0.000E+00	0.0
	5	1	9	9	501	0	-4.1186873861E+01	-1.6986466743E+00	-5.0245718441E+01	6.5125637046E+01	4.1800000000E+00	0.000E+00	0.0
</event>
<event>
    11  -1  1.0000000E+00  1.0000000E+00  -1.0000000E+00  -1.0000000E+00
	2212	-1	0	0	0	0	0.0000000000E+00	0.0000000000E+00	6.5000000000E+03	6.5000000000E+03	9.3827000000E-01	0.000E+00	0.0
	2212	-1	0	0	0	0	0.0000000000E+00	0.0000000000E+00	-6.5000000000E+03	6.5000000000E+03	9.3827000000E-01	0.000E+00	0.0
	2212	1	0	0	0	0	0.0000000000E+00	0.0000000000E+00	6.3337757130E+03	6.3337757130E+03	9.3827000000E-01	0.000E+00	0.0
	2212	1	0	0	0	0	0.0000000000E+00	0.0000000000E+00	-4.8495032926E+03	4.8495032926E+03	9.3827000000E-01	0.000E+00	0.0
	51	2	1	2	0	0	6.5263562923E+01	2.0509742766E+01	-1.2644513159E+03	1.6434499280E+03	1.0475736506E+03	0.000E+00	0.0
	1000022	2	5	5	0	0	-6.5263562923E+01	-2.0509742766E+01	-1.4406500477E+03	1.6675422939E+03	8.3698551941E+02	0.000E+00	0.0
	14	1	6	6	0	0	-1.5013771332E+02	1.9963375397E+02	-9.4167428503E+02	1.0270201691E+03	3.2500000000E+02	0.000E+00	0.0
	-14	1	6	6	0	0	8.4874150395E+01	-2.2014349673E+02	-4.9897576266E+02	6.4052212474E+02	3.2500000000E+02	0.000E+00	0.0
	25	2	5	5	0	0	6.5263562923E+01	2.0509742766E+01	-4.3622372713E+01	1.4917870049E+02	1.2518542681E+02	0.000E+00	0.0
	-5	1	9	9	0	501	-2.9262752887E+01	3.6166711530E+01	-1.2572774644E+01	4.8372376329E+01	4.1800000000E+00	0.000E+00	0.0
	5	1	9	9	501	0	9.4526315810E+01	-1.5656968764E+01	-3.1049598068E+01	1.0080632417E+02	4.1800000000E+00	0.000E+00	0.0
</event>
<event>
    11  -1  1.0000000E+00  1.0000000E+00  -1.0000000E+00  -1.0000000E+00
	2212	-1	0	0	0	0	0.0000000000E+00	0.0000000000E+00	6.5000000000E+03	6.5000000000E+03	9.3827000000E-01	0.000E+00	0.0
	2212	-1	0	0	0	0	0.0000000000E+00	0.0000000000E+00	-6.5000000000E+03	6.5000000000E+03	9.3827000000E-01	0.000E+00	0.0
	2212	1	0	0	0	0	0.0000000000E+00	0.0000000000E+00	6.1594876791E+03	6.1594876791E+03	9.3827000000E-01	0.000E+00	0.0
	2212	1	0	0	0	0	0.0000000000E+00	0.0000000000E+00	-5.6862632180E+03	5.6862632180E+03	9.3827000000E-01	0.000E+00	0.0
	51	2	1	2	0	0	-1.3271070902E+02	-4.3062865767E+01	-4.9652258935E+02	1.1723270982E+03	1.0527818392E+03	0.000E+00	0.0
	1000022	2	5	5	0	0	1.3271070902E+02	4.3062865767E+01	-3.6951209148E+02	9.4003148757E+02	8.5302606594E+02	0.000E+00	0.0
	14	1	6	6	0	0	1.7576386726E+02	9.8381717339E+01	-4.5737402879E+02	5.9614419527E+02	3.2500000000E+02	0.000E+00	0.0
	-14	1	6	6	0	0	-4.3053158243E+01	-5.5318851572E+01	8.7861937317E+01	3.4388729230E+02	3.2500000000E+02	0.000E+00	0.0
	25	2	5	5	0	0	-1.3271070902E+02	-4.3062865767E+01	-1.0371236960E+02	2.1421761527E+02	1.2516544407E+02	0.000E+00	0.0
	-5	1	9	9	0	501	-4.7769592261E-01	-4.4794032089E+01	1.7398395174E+00	4.5024803672E+01	4.1800000000E+00	0.000E+00	0.0
	5	1	9	9	501	0	-1.3223301310E+02	1.7311663225E+00	-1.0545220912E+02	1.6919281160E+02	4.1800000000E+00	0.000E+00	0.0
</event>
<event>
    11  -1  1.0000000E+00  1.0000000E+00  -1.0000000E+00  -1.0000000E+00
	2212	-1	0	0	0	0	0.0000000000E+00	0.0000000000E+00	6.5000000000E+03	6.5000000000E+03	9.3827000000E-01	0.000E+00	0.0
	2212	-1	0	0	0	0	0.0000000000E+00	0.0000000000E+00	-6.5000000000E+03	6.5000000000E+03	9.3827000000E-01	0.000E+00	0.0
	2212	1	0	0	0	0	0.0000000000E+00	0.0000000000E+00	6.2231398672E+03	6.2231398672E+03	9.3827000000E-01	0.000E+00	0.0
	2212	1	0	0	0	0	0.0000000000E+00	0.0000000000E+00	-5.4641630501E+03	5.4641630501E+03	9.3827000000E-01	0.000E+00	0.0
	51	2	1	2	0	0	-3.7921235744E+01	1.5941852779E+02	-6.4598452725E+02	1.2614579337E+03	1.0710405323E+03	0.000E+00	0.0
	1000022	2	5	5	0	0	3.7921235744E+01	-1.5941852779E+02	-7.2114836081E+02	1.1030824755E+03	8.1846423404E+02	0.000E+00	0.0
	14	1	6	6	0	0	1.5576537981E+02	-7.8538450120E+01	-6.4031184332E+02	7.3895561328E+02	3.2500000000E+02	0.000E+00	0.0
	-14	1	6	6	0	0	-1.1784414407E+02	-8.0880077671E+01	-8.0836517488E+01	3.6412686225E+02	3.2500000000E+02	0.000E+00	0.0
	25	2	5	5	0	0	-3.7921235744E+01	1.5941852779E+02	-3.7828456320E+01	2.0961460712E+02	1.2511995959E+02	0.000E+00	0.0
	-5	1	9	9	0	501	-7.4077610652E+01	8.2459309178E+01	1.1006152074E+01	1.1147034518E+02	4.1800000000E+00	0.000E+00	0.0
	5	1	9	9	501	0	3.6156374909E+01	7.6959218613E+01	-4.8834608394E+01	9.8144261947E+01	4.1800000000E+00	0.000E+00	0.0
</event>
<event>
    11  -1  1.0000000E+00  1.0000000E+00  -1.0000000E+00  -1.0000000E+00
	2212	-1	0	0	0	0	0.0000000000E+00	0.0000000000E+00	6.5000000000E+03	6.5000000000E+03	9.3827000000E-01	0.000E+00	0.0
	2212	-1	0	0	0	0	0.0000000000E+00	0.0000000000E+00	-6.5000000000E+03	6.5000000000E+03	9.3827000000E-01	0.000E+00	0.0
	2212	1	0	0	0	0	0.0000000000E+00	0.0000000000E+00	5.6596672894E+03	5.6596672894E+03	9.3827000000E-01	0.000E+00	0.0
	2212	1	0	0	0	0	0.0000000000E+00	0.0000000000E+00	-6.1878309013E+03	6.1878309013E+03	9.3827000000E-01	0.000E+00	0.0
	51	2	1	2	0	0	6.7747262139E+01	-6.2276767675E+01	5.0188562405E+02	1.1444041621E+03	1.0243552213E+03	0.000E+00	0.0
	1000022	2	5	5	0	0	-6.7747262139E+01	6.2276767675E+01	4.7556028936E+02	9.8847314762E+02	8.6165740722E+02	0.000E+00	0.0
	14	1	6	6	0	0	-2.4369886889E+02	-1.4885340324E+02	3.0790354102E+02	5.3101418524E+02	3.2500000000E+02	0.000E+00	0.0
	-14	1	6	6	0	0	1.7595160675E+02	2.1113017092E+02	1.6765674834E+02	4.5745896237E+02	3.2500000000E+02	0.000E+00	0.0
	25	2	5	5	0	0	6.7747262139E+01	-6.2276767675E+01	5.2603322526E+01	1.6402866161E+02	1.2518068928E+02	0.000E+00	0.0
	-5	1	9	9	0	501	4.0857548255E+01	-1.9426228305E+01	-3.8622400365E+01	5.9631198257E+01	4.1800000000E+00	0.000E+00	0.0
	5	1	9	9	501	0	2.6889713885E+01	-4.2850539370E+01	9.1225722891E+01	1.0439746335E+02	4.1800000000E+00	0.000E+00	0.0
</event>
<event>
    11  -1  1.0000000E+00  1.0000000E+00  -1.0000000E+00  -1.0000000E+00
	2212	-1	0	0	0	0	0.0000000000E+00	0.0000000000E+00	6.5000000000E+03	6.5000000000E+03	9.3827000000E-01	0.000E+00	0.0
	2212	-1	0	0	0	0	0.0000000000E+00	0.0000000000E+00	-6.5000000000E+03	6.5000000000E+03	9.3827000000E-01	0.000E+00	0.0
	2212	1	0	0	0	0	0.0000000000E+00	0.0000000000E+00	5.1212932319E+03	5.1212932319E+03	9.3827000000E-01	0.000E+00	0.0
	2212	1	0	0	0	0	0.0000000000E+00	0.0000000000E+00	-6.3001248092E+03	6.3001248092E+03	9.3827000000E-01	0.000E+00	0.0
	51	2	1	2	0	0	2.9153794118E+01	-1.3566154157E+02	1.1386556235E+03	1.5550137427E+03	1.0498938581E+03	0.000E+00	0.0
	1000022	2	5	5	0	0	-2.9153794118E+01	1.3566154157E+02	1.0166064395E+03	1.3311133979E+03	8.4800956810E+02	0.000E+00	0.0
	14	1	6	6	0	0	4.5964932698E+01	2.5951693619E+02	2.5377104381E+02	4.8937363832E+02	3.2500000000E+02	0.000E+00	0.0
	-14	1	6	6	0	0	-7.5118726816E+01	-1.2385539462E+02	7.6283539567E+02	8.4173975954E+02	3.2500000000E+02	0.000E+00	0.0
	25	2	5	5	0	0	2.9153794118E+01	-1.3566154157E+02	1.6222513782E+02	2.4746856105E+02	1.2517865551E+02	0.000E+00	0.0
	-5	1	9	9	0	501	6.3458487590E+01	-7.0074542172E+01	3.6324076027E+01	1.0136237964E+02	4.1800000000E+00	0.000E+00	0.0
	5	1	9	9	501	0	-3.4304693472E+01	-6.5586999395E+01	1.2590106179E+02	1.4610618140E+02	4.1800000000E+00	0.000E+00	0.0
</event>
<event>
    11  -1  1.0000000E+00  1.0000000E+00  -1.0000000E+00  -1.0000000E+00
	2212	-1	0	0	0	0	0.0000000000E+00	0.0000000000E+00	6.5000000000E+03	6.5000000000E+03	9.3827000000E-01	0.000E+00	0.0
	2212	-1	0	0	0	0	0.0000000000E+00	0.0000000000E+00	-6.5000000000E+03	6.5000000000E+03	9.3827000000E-01	0.000E+00	0.0
	2212	1	0	0	0	0	0.0000000000E+00	0.0000000000E+00	6.1953295360E+03	6.1953295360E+03	9.3827000000E-01	0.000E+00	0.0
	2212	1	0	0	0	0	0.0000000000E+00	0.0000000000E+00	-5.6126736293E+03	5.6126736293E+03	9.3827000000E-01	0.000E+00	0.0
	51	2	1	2	0	0	-5.2716787305E+01	-3.1142218916E+01	-5.7275110815E+02	1.1887646015E+03	1.0398887193E+03	0.000E+00	0.0
	1000022	2	5	5	0	0	5.2716787305E+01	3.1142218916E+01	-5.1533603145E+02	1.0372429125E+03	8.9808281172E+02	0.000E+00	0.0
	14	1	6	6	0	0	2.3753233454E+02	-1.9775573508E+02	-3.4929521797E+02	5.6847259389E+02	3.2500000000E+02	0.000E+00	0.0
	-14	1	6	6	0	0	-1.8481554724E+02	2.2889795399E+02	-1.6604081348E+02	4.6877031858E+02	3.2500000000E+02	0.000E+00	0.0
	25	2	5	5	0	0	-5.2716787305E+01	-3.1142218916E+01	-6.7319875224E+01	1.5475392227E+02	1.2517153588E+02	0.000E+00	0.0
	-5	1	9	9	0	501	-8.2084702424E+01	-4.6341879560E+01	-1.9314881748E+01	9.6312020175E+01	4.1800000000E+00	0.000E+00	0.0
	5	1	9	9	501	0	2.9367915119E+01	1.5199660644E+01	-4.8004993477E+01	5.8441902098E+01	4.1800000000E+00	0.000E+00	0.0
</event>
<event>
    11  -1  1.0000000E+00  1.0000000E+00  -1.0000000E+00  -1.0000000E+00
	2212	-1	0	0	0	0	0.0000000000E+00	0.0000000000E+00	6.5000000000E+03	6.5000000000E+03	9.3827000000E-01	0.000E+00	0.0
	2212	-1	0	0	0	0	0.0000000000E+00	0.0000000000E+00	-6.5000000000E+03	6.5000000000E+03	9.3827000000E-01	0.000E+00	0.0
	2212	1	0	0	0	0	0.0000000000E+00	0.0000000000E+00	5.5831794383E+03	5.5831794383E+03	9.3827000000E-01	0.000E+00	0.0
	2212	1	0	0	0	0	0.0000000000E+00	0.0000000000E+00	-6.1997445466E+03	6.1997445466E+03	9.3827000000E-01	0.000E+00	0.0
	51	2	1	2	0	0	1.2629877952E+02	-3.9078945914E+01	6.8652401998E+02	1.2609184229E+03	1.0493433630E+03	0.000E+00	0.0
	1000022	2	5	5	0	0	-1.2629877952E+02	3.9078945914E+01	4.4051296109E+02	9.6380960534E+02	8.4699394375E+02	0.000E+00	0.0
	14	1	6	6	0	0	1.8239350272E+01	-9.7887190402E+01	-4.8981319715E+01	3.4342210998E+02	3.2500000000E+02	0.000E+00	0.0
	-14	1	6	6	0	0	-1.4453812980E+02	1.3696613632E+02	4.8949428080E+02	6.2038749536E+02	3.2500000000E+02	0.000E+00	0.0
	25	2	5	5	0	0	1.2629877952E+02	-3.9078945914E+01	1.7605214721E+02	2.5326640967E+02	1.2518374498E+02	0.000E+00	0.0
	-5	1	9	9	0	501	9.5546442688E+01	-2.5521703182E+01	1.9186182381E+02	2.1589097221E+02	4.1800000000E+00	0.000E+00	0.0
	5	1	9	9	501	0	3.0752336836E+01	-1.3557242732E+01	-1.5809676601E+01	3.7375437463E+01	4.1800000000E+00	0.000E+00	0.0
</event>
<event>
    11  -1  1.0000000E+00  1.0000000E+00  -1.0000000E+00  -1.0000000E+00
	2212	-1	0	0	0	0	0.0000000000E+00	0.0000000000E+00	6.5000000000E+03	6.5000000000E+03	9.3827000000E-01	0.000E+00	0.0
	2212	-1	0	0	0	0	0.0000000000E+00	0.0000000000E+00	-6.5000000000E+03	6.5000000000E+03	9.3827000000E-01	0.000E+00	0.0
	2212	1	0	0	0	0	0.0000000000E+00	0.0000000000E+00	5.5378817336E+03	5.5378817336E+03	9.3827000000E-01	0.000E+00	0.0
	2212	1	0	0	0	0	0.0000000000E+00	0.0000000000E+00	-6.1949301378E+03	6.1949301378E+03	9.3827000000E-01	0.000E+00	0.0
	51	2	1	2	0	0	-1.3781202949E+02	3.2141185355E+01	7.7724779955E+02	1.3409670021E+03	1.0835373310E+03	0.000E+00	0.0
	1000022	2	5	5	0	0	1.3781202949E+02	-3.2141185355E+01	4.1650477731E+02	9.6131253177E+02	8.5476332570E+02	0.000E+00	0.0
	14	1	6	6	0	0	-6.5936190134E+01	-1.5859958276E+02	-1.8056861049E+01	3.6803866516E+02	3.2500000000E+02	0.000E+00	0.0
	-14	1	6	6	0	0	2.0374821962E+02	1.2645839741E+02	4.3456163836E+02	5.9327386661E+02	3.2500000000E+02	0.000E+00	0.0
	25	2	5	5	0	0	-1.3781202949E+02	3.2141185355E+01	2.4054362691E+02	3.0587559677E+02	1.2519358206E+02	0.000E+00	0.0
	-5	1	9	9	0	501	-1.4308706780E+02	-3.9578498801E+00	2.2338151960E+02	2.6534194777E+02	4.1800000000E+00	0.000E+00	0.0
	5	1	9	9	501	0	5.2750383173E+00	3.6099035235E+01	1.7162107308E+01	4.0533649002E+01	4.1800000000E+00	0.000E+00	0.0
</event>
<event>
    11  -1  1.0000000E+00  1.0000000E+00  -1.0000000E+00  -1.0000000E+00
	2212	-1	0	0	0	0	0.0000000000E+00	0.0000000000E+00	6.5000000000E+03	6.5000000000E+03	9.3827000000E-01	0.000E+00	0.0
	2212	-1	0	0	0	0	0.0000000000E+00	0.0000000000E+00	-6.5000000000E+03	6.5000000000E+03	9.3827000000E-01	0.000E+00	0.0
	2212	1	0	0	0	0	0.0000000000E+00	0.0000000000E+00	5.7881173731E+03	5.7881173731E+03	9.3827000000E-01	0.000E+00	0.0
	2212	1	0	0	0	0	0.0000000000E+00	0.0000000000E+00	-6.1113375069E+03	6.1113375069E+03	9.3827000000E-01	0.000E+00	0.0
	51	2	1	2	0	0	-1.0841322269E+02	-3.5672103820E+01	4.3708448508E+02	1.1449004670E+03	1.0520115524E+03	0.000E+00	0.0
	1000022	2	5	5	0	0	1.0841322269E+02	3.5672103820E+01	1.5155088985E+02	8.5936758951E+02	8.3816409840E+02	0.000E+00	0.0
	14	1	6	6	0	0	1.8753529951E+02	-7.5588504047E+01	2.9043924440E+02	4.8048211746E+02	3.2500000000E+02	0.000E+00	0.0
	-14	1	6	6	0	0	-7.9122076827E+01	1.1126060787E+02	-1.3888835455E+02	3.7888547205E+02	3.2500000000E+02	0.000E+00	0.0
	25	2	5	5	0	0	-1.0841322269E+02	-3.5672103820E+01	1.7166924393E+02	2.4117753049E+02	1.2518125282E+02	0.000E+00	0.0
	-5	1	9	9	0	501	-8.3930042851E+01	-8.1626837620E+01	1.1994242364E+02	1.6766290616E+02	4.1800000000E+00	0.000E+00	0.0
	5	1	9	9	501	0	-2.4483179836E+01	4.5954733801E+01	5.1726820295E+01	7.3514624337E+01	4.1800000000E+00	0.000E+00	0.0
</event>
<event>
    11  -1  1.0000000E+00  1.0000000E+00  -1.0000000E+00  -1.0000000E+00
	2212	-1	0	0	0	0	0.0000000000E+00	0.0000000000E+00	6.5000000000E+03	6.5000000000E+03	9.3827000000E-01	0.000E+00	0.0
	2212	-1	0	0	0	0	0.0000000000E+00	0.0000000000E+00	-6.5000000000E+03	6.5000000000E+03	9.3827000000E-01	0.000E+00	0.0
	2212	1	0	0	0	0	0.0000000000E+00	0.0000000000E+00	4.9979106946E+03	4.9979106946E+03	9.3827000000E-01	0.000E+00	0.0
	2212	1	0	0	0	0	0.0000000000E+00	0.0000000000E+00	-6.3160301013E+03	6.3160301013E+03	9.3827000000E-01	0.000E+00	0.0
	51	2	1	2	0	0	-6.2688800535E+01	1.2268662340E+02	1.2831629506E+03	1.6645858106E+03	1.0513595340E+03	0.000E+00	0.0
	1000022	2	5	5	0	0	6.2688800535E+01	-1.2268662340E+02	1.1286110083E+03	1.4204106330E+03	8.5136458989E+02	0.000E+00	0.0
	14	1	6	6	0	0	-9.3514972111E+01	4.3873080878E+01	1.6642175638E+02	3.7946158993E+02	3.2500000000E+02	0.000E+00	0.0
	-14	1	6	6	0	0	1.5620377265E+02	-1.6655970428E+02	9.6218925197E+02	1.0409490431E+03	3.2500000000E+02	0.000E+00	0.0
	25	2	5	5	0	0	-6.2688800535E+01	1.2268662340E+02	1.8950839836E+02	2.6564857119E+02	1.2519519582E+02	0.000E+00	0.0
	-5	1	9	9	0	501	8.8056899840E-01	1.1251560138E+02	1.5756096972E+02	1.9365812024E+02	4.1800000000E+00	0.000E+00	0.0
	5	1	9	9	501	0	-6.3569369534E+01	1.0171022016E+01	3.1947428638E+01	7.1990450953E+01	4.1800000000E+00	0.000E+00	0.0
</event>
<event>
    11  -1  1.0000000E+00  1.0000000E+00  -1.0000000E+00  -1.0000000E+00
	2212	-1	0	0	0	0	0.0000000000E+00	0.0000000000E+00	6.5000000000E+03	6.5000000000E+03	9.3827000000E-01	0.000E+00	0.0
	2212	-1	0	0	0	0	0.0000000000E+00	0.0000000000E+00	-6.5000000000E+03	6.5000000000E+03	9.3827000000E-01	0.000E+00	0.0
	2212	1	0	0	0	0	0.0000000000E+00	0.0000000000E+00	4.8714606408E+03	4.8714606408E+03	9.3827000000E-01	0.000E+00	0.0
	2212	1	0	0	0	0	0.0000000000E+00	0.0000000000E+00	-6.3272243980E+03	6.3272243980E+03	9.3827000000E-01	0.000E+00	0.0
	51	2	1	2	0	0	1.5141383368E+01	-8.4110962972E+01	1.6894373224E+03	1.9967448146E+03	1.0608899436E+03	0.000E+00	0.0
	1000022	2	5	5	0	0	-1.5141383368E+01	8.4110962972E+01	9.6467270242E+02	1.2873650368E+03	8.4818123038E+02	0.000E+00	0.0
	14	1	6	6	0	0	-6.1639179564E+01	-1.7976488098E+02	2.3194252460E+02	4.4219581139E+02	3.2500000000E+02	0.000E+00	0.0
	-14	1	6	6	0	0	4.6497796196E+01	2.6387584395E+02	7.3273017782E+02	8.4516922540E+02	3.2500000000E+02	0.000E+00	0.0
	25	2	5	5	0	0	1.5141383368E+01	-8.4110962972E+01	4.9109105481E+02	5.1394992438E+02	1.2518060982E+02	0.000E+00	0.0
	-5	1	9	9	0	501	5.3581981384E+01	4.2283462005E+00	1.4586250073E+02	1.5550642803E+02	4.1800000000E+00	0.000E+00	0.0
	5	1	9	9	501	0	-3.8440598016E+01	-8.8339309173E+01	3.4522855408E+02	3.5844349635E+02	4.1800000000E+00	0.000E+00	0.0
</event>
<event>
    11  -1  1.0000000E+00  1.0000000E+00  -1.0000000E+00  -1.0000000E+00
	2212	-1	0	0	0	0	0.0000000000E+00	0.0000000000E+00	6.5000000000E+03	6.5000000000E+03	9.3827000000E-01	0.000E+00	0.0
	2212	-1	0	0	0	0	0.0000000000E+00	0.0000000000E+00	-6.5000000000E+03	6.5000000000E+03	9.3827000000E-01	0.000E+00	0.0
	2212	1	0	0	0	0	0.0000000000E+00	0.0000000000E+00	5.6963982684E+03	5.6963982684E+03	9.3827000000E-01	0.000E+00	0.0
	2212	1	0	0	0	0	0.0000000000E+00	0.0000000000E+00	-6.1583735449E+03	6.1583735449E+03	9.3827000000E-01	0.000E+00	0.0
	51	2	1	2	0	0	1.6497551744E+01	8.6064685591E+01	3.5532219142E+02	1.1099818028E+03	1.0479152845E+03	0.000E+00	0.0
	1000022	2	5	5	0	0	-1.6497551744E+01	-8.6064685591E+01	4.9163137282E+02	9.8960045619E+02	8.5435844751E+02	0.000E+00	0.0
	14	1	6	6	0	0	-9.8503994827E+01	9.8364276517E+00	-5.2083352670E+01	3.4371131481E+02	3.2500000000E+02	0.000E+00	0.0
	-14	1	6	6	0	0	8.2006443083E+01	-9.5901113242E+01	5.4371472549E+02	6.4588914138E+02	3.2500000000E+02	0.000E+00	0.0
	25	2	5	5	0	0	1.6497551744E+01	8.6064685591E+01	-2.9656096354E+01	1.5562773046E+02	1.2514474466E+02	0.000E+00	0.0
	-5	1	9	9	0	501	-3.4762353637E+01	-1.5446901700E+01	-1.4048172878E+01	4.0765813664E+01	4.1800000000E+00	0.000E+00	0.0
	5	1	9	9	501	0	5.1259905380E+01	1.0151158729E+02	-1.5607923476E+01	1.1486191679E+02	4.1800000000E+00	0.000E+00	0.0
</event>
<event>
    11  -1  1.0000000E+00  1.0000000E+00  -1.0000000E+00  -1.0000000E+00
	2212	-1	0	0	0	0	0.0000000000E+00	0.0000000000E+00	6.5000000000E+03	6.5000000000E+03	9.3827000000E-01	0.000E+00	0.0
	2212	-1	0	0	0	0	0.0000000000E+00	0.0000000000E+00	-6.5000000000E+03	6.5000000000E+03	9.3827000000E-01	0.000E+00	0.0
	2212	1	0	0	0	0	0.0000000000E+00	0.0000000000E+00	5.3684697397E+03	5.3684697397E+03	9.3827000000E-01	0.000E+00	0.0
	2212	1	0	0	0	0	0.0000000000E+00	0.0000000000E+00	-6.2651214845E+03	6.2651214845E+03	9.3827000000E-01	0.000E+00	0.0
	51	2	1	2	0	0	-3.8184840975E+01	9.7610796408E+00	7.3921694427E+02	1.2692846971E+03	1.0310618754E+03	0.000E+00	0.0
	1000022	2	5	5	0	0	3.8184840975E+01	-9.7610796408E+00	9.0409615237E+02	1.2349622967E+03	8.4035032033E+02	0.000E+00	0.0
	14	1	6	6	0	0	1.9318912718E+02	1.4864618321E+02	6.5047246606E+02	7.6691404717E+02	3.2500000000E+02	0.000E+00	0.0
	-14	1	6	6	0	0	-1.5500428620E+02	-1.5840726285E+02	2.5362368631E+02	4.6804824957E+02	3.2500000000E+02	0.000E+00	0.0
	25	2	5	5	0	0	-3.8184840975E+01	9.7610796408E+00	-7.4444075321E+00	1.3144647902E+02	1.2517746158E+02	0.000E+00	0.0
	-5	1	9	9	0	501	-6.4821869410E+01	-3.3918025214E+01	1.6015637439E+01	7.5008534387E+01	4.1800000000E+00	0.000E+00	0.0
	5	1	9	9	501	0	2.6637028435E+01	4.3679104855E+01	-2.3460044971E+01	5.6437944637E+01	4.1800000000E+00	0.000E+00	0.0
</event>
<event>
    11  -1  1.0000000E+00  1.0000000E+00  -1.0000000E+00  -1.0000000E+00
	2212	-1	0	0	0	0	0.0000000000E+00	0.0000000000E+00	6.5000000000E+03	6.5000000000E+03	9.3827000000E-01	0.000E+00	0.0
	2212	-1	0	0	0	0	0.0000000000E+00	0.0000000000E+00	-6.5000000000E+03	6.5000000000E+03	9.3827000000E-01	0.000E+00	0.0
	2212	1	0	0	0	0	0.0000000000E+00	0.0000000000E+00	6.1941542330E+03	6.1941542330E+03	9.3827000000E-01	0.000E+00	0.0
	2212	1	0	0	0	0	0.0000000000E+00	0.0000000000E+00	-5.6377580466E+03	5.6377580466E+03	9.3827000000E-01	0.000E+00	0.0
	51	2	1	2	0	0	-4.8530087748E+01	-6.7069459515E+01	-4.7328211649E+02	1.1338878472E+03	1.0270599819E+03	0.000E+00	0.0
	1000022	2	5	5	0	0	4.8530087748E+01	6.7069459515E+01	-5.5166451709E+02	1.0178658962E+03	8.5138931245E+02	0.000E+00	0.0
	14	1	6	6	0	0	2.0668133105E+02	8.0341489772E+00	-3.8126917596E+01	3.8711804660E+02	3.2500000000E+02	0.000E+00	0.0
	-14	1	6	6	0	0	-1.5815124331E+02	5.9035310538E+01	-5.1353759950E+02	6.3074784958E+02	3.2500000000E+02	0.000E+00	0.0
	25	2	5	5	0	0	-4.8530087748E+01	-6.7069459515E+01	-4.7316692569E+00	1.5022182425E+02	1.2526262799E+02	0.000E+00	0.0
	-5	1	9	9	0	501	2.8563889171E+01	-4.8259685347E+01	2.9724873973E+01	6.3607653054E+01	4.1800000000E+00	0.000E+00	0.0
	5	1	9	9	501	0	-7.7093976919E+01	-1.8809774168E+01	-3.4456543230E+01	8.6614171201E+01	4.1800000000E+00	0.000E+00	0.0
</event>
<event>
    11  -1  1.0000000E+00  1.0000000E+00  -1.0000000E+00  -1.0000000E+00
	2212	-1	0	0	0	0	0.0000000000E+00	0.0000000000E+00	6.5000000000E+03	6.5000000000E+03	9.3827000000E-01	0.000E+00	0.0
	2212	-1	0	0	0	0	0.0000000000E+00	0.0000000000E+00	-6.5000000000E+03	6.5000000000E+03	9.3827000000E-01	0.000E+00	0.0
	2212	1	0	0	0	0	0.0000000000E+00	0.0000000000E+00	6.1087221865E+03	6.1087221865E+03	9.3827000000E-01	0.000E+00	0.0
	2212	1	0	0	0	0	0.0000000000E+00	0.0000000000E+00	-5.7918070321E+03	5.7918070321E+03	9.3827000000E-01	0.000E+00	0.0
	51	2	1	2	0	0	-3.3534345651E+01	-5.5953028480E+00	-4.6856295944E+02	1.1528694162E+03	1.0528061475E+03	0.000E+00	0.0
	1000022	2	5	5	0	0	3.3534345651E+01	5.5953028480E+00	-1.1035082853E+02	8.5555077416E+02	8.4772280968E+02	0.000E+00	0.0
	14	1	6	6	0	0	-1.1535898493E+02	2.1829769691E+02	4.6916599001E+01	4.1083785992E+02	3.2500000000E+02	0.000E+00	0.0
	-14	1	6	6	0	0	1.4889333058E+02	-2.1270239406E+02	-1.5726742753E+02	4.4471291424E+02	3.2500000000E+02	0.000E+00	0.0
	25	2	5	5	0	0	-3.3534345651E+01	-5.5953028480E+00	-2.0656432593E+02	2.4392000729E+02	1.2518901492E+02	0.000E+00	0.0
	-5	1	9	9	0	501	-7.2696400370E+01	3.8086747738E+00	-6.8516488632E+01	1.0005625540E+02	4.1800000000E+00	0.000E+00	0.0
	5	1	9	9	501	0	3.9162054718E+01	-9.4039776218E+00	-1.3804783729E+02	1.4386375189E+02	4.1800000000E+00	0.000E+00	0.0
</event>
<event>
    11  -1  1.0000000E+00  1.0000000E+00  -1.0000000E+00  -1.0000000E+00
	2212	-1	0	0	0	0	0.0000000000E+00	0.0000000000E+00	6.5000000000E+03	6.5000000000E+03	9.3827000000E-01	0.000E+00	0.0
	2212	-1	0	0	0	0	0.0000000000E+00	0.0000000000E+00	-6.5000000000E+03	6.5000000000E+03	9.3827000000E-01	0.000E+00	0.0
	2212	1	0	0	0	0	0.0000000000E+00	0.0000000000E+00	5.9036495022E+03	5.9036495022E+03	9.3827000000E-01	0.000E+00	0.0
	2212	1	0	0	0	0	0.0000000000E+00	0.0000000000E+00	-6.0335592560E+03	6.0335592560E+03	9.3827000000E-01	0.000E+00	0.0
	51	2	1	2	0	0	-9.9710849018E+01	-2.5019846546E+01	3.8669515603E+01	1.0605245197E+03	1.0548216339E+03	0.000E+00	0.0
	1000022	2	5	5	0	0	9.9710849018E+01	2.5019846546E+01	1.9933036280E+02	8.8655165358E+02	8.5771381871E+02	0.000E+00	0.0
	14	1	6	6	0	0	8.2595869460E+01	-1.9666511915E+02	2.8690105658E+02	4.8315262911E+02	3.2500000000E+02	0.000E+00	0.0
	-14	1	6	6	0	0	1.7114979557E+01	2.2168496570E+02	-8.7570693781E+01	4.0339902448E+02	3.2500000000E+02	0.000E+00	0.0
	25	2	5	5	0	0	-9.9710849018E+01	-2.5019846546E+01	-6.9420609004E+01	1.7623958815E+02	1.2519155460E+02	0.000E+00	0.0
	-5	1	9	9	0	501	-8.8079977651E+01	-2.7277315460E+01	-1.0423453547E+02	1.3922803305E+02	4.1800000000E+00	0.000E+00	0.0
	5	1	9	9	501	0	-1.1630871366E+01	2.2574689144E+00	3.4813926468E+01	3.7011555098E+01	4.1800000000E+00	0.000E+00	0.0
</event>
<event>
    11  -1  1.0000000E+00  1.0000000E+00  -1.0000000E+00  -1.0000000E+00
	2212	-1	0	0	0	0	0.0000000000E+00	0.0000000000E+00	6.5000000000E+03	6.5000000000E+03	9.3827000000E-01	0.000E+00	0.0
	2212	-1	0	0	0	0	0.0000000000E+00	0.0000000000E+00	-6.5000000000E+03	6.5000000000E+03	9.3827000000E-01	0.000E+00	0.0
	2212	1	0	0	0	0	0.0000000000E+00	0.0000000000E+00	6.3067452087E+03	6.3067452087E+03	9.3827000000E-01	0.000E+00	0.0
	2212	1	0	0	0	0	0.0000000000E+00	0.0000000000E+00	-5.0714154019E+03	5.0714154019E+03	9.3827000000E-01	0.000E+00	0.0
	51	2	1	2	0	0	-3.8684336157E+01	-5.0282322206E+01	-1.0395912780E+03	1.4795600997E+03	1.0508678668E+03	0.000E+00	0.0
	1000022	2	5	5	0	0	3.8684336157E+01	5.0282322206E+01	-1.2146463606E+03	1.4799826679E+03	8.4318332903E+02	0.000E+00	0.0
	14	1	6	6	0	0	-1.2214985988E+02	2.3839873784E+02	-4.7346394940E+02	6.3367788178E+02	3.2500000000E+02	0.000E+00	0.0
	-14	1	6	6	0	0	1.6083419604E+02	-1.8811641564E+02	-7.4118241116E+02	8.4630478615E+02	3.2500000000E+02	0.000E+00	0.0
	25	2	5	5	0	0	-3.8684336157E+01	-5.0282322206E+01	-2.0683446251E+01	1.4185672150E+02	1.2518280511E+02	0.000E+00	0.0
	-5	1	9	9	0	501	-5.2333641679E+01	-9.4438735681E+00	4.0463484515E+01	6.6953437391E+01	4.1800000000E+00	0.000E+00	0.0
	5	1	9	9	501	0	1.3649305523E+01	-4.0838448638E+01	-6.1146930767E+01	7.4903284111E+01	4.1800000000E+00	0.000E+00	0.0
</event>
<event>
    11  -1  1.0000000E+00  1.0000000E+00  -1.0000000E+00  -1.0000000E+00
	2212	-1	0	0	0	0	0.0000000000E+00	0.0000000000E+00	6.5000000000E+03	6.5000000000E+03	9.3827000000E-01	0.000E+00	0.0
	2212	-1	0	0	0	0	0.0000000000E+00	0.0000000000E+00	-6.5000000000E+03	6.5000000000E+03	9.3827000000E-01	0.000E+00	0.0
	2212	1	0	0	0	0	0.0000000000E+00	0.0000000000E+00	6.2000621627E+03	6.2000621627E+03	9.3827000000E-01	0.000E+00	0.0
	2212	1	0	0	0	0	0.0000000000E+00	0.0000000000E+00	-5.5384060810E+03	5.5384060810E+03	9.3827000000E-01	0.000E+00	0.0
	51	2	1	2	0	0	-3.1604620862E+00	1.0721929038E+02	-7.6764840323E+02	1.3245616775E+03	1.0740919894E+03	0.000E+00	0.0
	1000022	2	5	5	0	0	3.1604620862E+00	-1.0721929038E+02	-4.4660467545E+02	9.9056677273E+02	8.7764504804E+02	0.000E+00	0.0
	14	1	6	6	0	0	5.2828935411E+01	-3.0208004327E+02	-6.6888768286E+01	4.5182115519E+02	3.2500000000E+02	0.000E+00	0.0
	-14	1	6	6	0	0	-4.9668473325E+01	1.9486075289E+02	-3.7971590717E+02	5.3874561753E+02	3.2500000000E+02	0.000E+00	0.0
	25	2	5	5	0	0	-3.1604620862E+00	1.0721929038E+02	-2.1505140623E+02	2.7096498358E+02	1.2517567758E+02	0.000E+00	0.0
	-5	1	9	9	0	501	-5.2517835978E+01	4.2345393853E+01	-1.5662107704E+02	1.7058396657E+02	4.1800000000E+00	0.000E+00	0.0
	5	1	9	9	501	0	4.9357373892E+01	6.4873896527E+01	-5.8430329186E+01	1.0038101701E+02	4.1800000000E+00	0.000E+00	0.0
</event>
<event>
    11  -1  1.0000000E+00  1.0000000E+00  -1.0000000E+00  -1.0000000E+00
	2212	-1	0	0	0	0	0.0000000000E+00	0.0000000000E+00	6.5000000000E+03	6.5000000000E+03	9.3827000000E-01	0.000E+00	0.0
	2212	-1	0	0	0	0	0.0000000000E+00	0.0000000000E+00	-6.5000000000E+03	6.5000000000E+03	9.3827000000E-01	0.000E+00	0.0
	2212	1	0	0	0	0	0.0000000000E+00	0.0000000000E+00	4.8491974651E+03	4.8491974651E+03	9.3827000000E-01	0.000E+00	0.0
	2212	1	0	0	0	0	0.0000000000E+00	0.0000000000E+00	-6.3329699217E+03	6.3329699217E+03	9.3827000000E-01	0.000E+00	0.0
	51	2	1	2	0	0	1.0956466309E+02	1.2780591744E+02	1.4693869541E+03	1.8139381178E+03	1.0502069827E+03	0.000E+00	0.0
	1000022	2	5	5	0	0	-1.0956466309E+02	-1.2780591744E+02	1.2196931196E+03	1.4805680145E+03	8.2224787734E+02	0.000E+00	0.0
	14	1	6	6	0	0	3.1789538821E+01	-3.0076166254E+02	6.8175454714E+02	8.1356156189E+02	3.2500000000E+02	0.000E+00	0.0
	-14	1	6	6	0	0	-1.4135420191E+02	1.7295574509E+02	5.3793857245E+02	6.6700645266E+02	3.2500000000E+02	0.000E+00	0.0
	25	2	5	5	0	0	1.0956466309E+02	1.2780591744E+02	2.6407933705E+02	3.3726459865E+02	1.2518284750E+02	0.000E+00	0.0
	-5	1	9	9	0	501	1.7352024129E+01	9.6232027471E+01	1.9352805823E+02	2.1686926379E+02	4.1800000000E+00	0.000E+00	0.0
	5	1	9	9	501	0	9.2212638962E+01	3.1573889972E+01	7.0551278821E+01	1.2039533486E+02	4.1800000000E+00	0.000E+00	0.0
</event>
<event>
    11  -1  1.0000000E+00  1.0000000E+00  -1.0000000E+00  -1.0000000E+00
	2212	-1	0	0	0	0	0.0000000000E+00	0.0000000000E+00	6.5000000000E+03	6.5000000000E+03	9.3827000000E-01	0.000E+00	0.0
	2212	-1	0	0	0	0	0.0000000000E+00	0.0000000000E+00	-6.5000000000E+03	6.5000000000E+03	9.3827000000E-01	0.000E+00	0.0
	2212	1	0	0	0	0	0.0000000000E+00	0.0000000000E+00	6.3235837641E+03	6.3235837641E+03	9.3827000000E-01	0.000E+00	0.0
	2212	1	0	0	0	0	0.0000000000E+00	0.0000000000E+00	-4.9644169035E+03	4.9644169035E+03	9.3827000000E-01	0.000E+00	0.0
	51	2	1	2	0	0	-1.0601653530E+02	9.8715034498E+00	-1.5061190779E+03	1.8339407810E+03	1.0409645332E+03	0.000E+00	0.0
	1000022	2	5	5	0	0	1.0601653530E+02	-9.8715034498E+00	-9.8347069746E+02	1.3019332290E+03	8.4645057009E+02	0.000E+00	0.0
	14	1	6	6	0	0	1.2089486195E+02	-1.3186011685E+02	-8.5406752519E+02	9.3116002687E+02	3.2500000000E+02	0.000E+00	0.0
	-14	1	6	6	0	0	-1.4878326648E+01	1.2198861341E+02	-1.2940317227E+02	3.7077320210E+02	3.2500000000E+02	0.000E+00	0.0
	25	2	5	5	0	0	-1.0601653530E+02	9.8715034498E+00	-3.7569616312E+02	4.1006610346E+02	1.2517847212E+02	0.000E+00	0.0
	-5	1	9	9	0	501	2.0232502536E+01	-7.3150040427E-01	-1.4821962532E+02	1.4965433165E+02	4.1800000000E+00	0.000E+00	0.0
	5	1	9	9	501	0	-1.2624903784E+02	1.0603003854E+01	-2.2747653780E+02	2.6041177181E+02	4.1800000000E+00	0.000E+00	0.0
</event>
<event>
    11  -1  1.0000000E+00  1.0000000E+00  -1.0000000E+00  -1.0000000E+00
	2212	-1	0	0	0	0	0.0000000000E+00	0.0000000000E+00	6.5000000000E+03	6.5000000000E+03	9.3827000000E-01	0.000E+00	0.0
	2212	-1	0	0	0	0	0.0000000000E+00	0.0000000000E+00	-6.5000000000E+03	6.5000000000E+03	9.3827000000E-01	0.000E+00	0.0
	2212	1	0	0	0	0	0.0000000000E+00	0.0000000000E+00	6.3250967130E+03	6.3250967130E+03	9.3827000000E-01	0.000E+00	0.0
	2212	1	0	0	0	0	0.0000000000E+00	0.0000000000E+00	-4.9325728282E+03	4.9325728282E+03	9.3827000000E-01	0.000E+00	0.0
	51	2	1	2	0	0	8.4214747150E+01	-9.5021053217E+01	-1.3128961410E+03	1.6841644990E+03	1.0471832018E+03	0.000E+00	0.0
	1000022	2	5	5	0	0	-8.4214747150E+01	9.5021053217E+01	-1.2360881767E+03	1.5051330524E+03	8.4934704377E+02	0.000E+00	0.0
	14	1	6	6	0	0	1.0162357041E+02	2.0258627182E+02	-3.1876341063E+02	5.0853088358E+02	3.2500000000E+02	0.000E+00	0.0
	-14	1	6	6	0	0	-1.8583831756E+02	-1.0756521860E+02	-9.1732476608E+02	9.9660216887E+02	3.2500000000E+02	0.000E+00	0.0
	25	2	5	5	0	0	8.4214747150E+01	-9.5021053217E+01	-1.5643570806E+02	2.3719740642E+02	1.2517729292E+02	0.000E+00	0.0
	-5	1	9	9	0	501	3.4402490685E+01	-5.3709515400E+01	4.1075771962E+00	6.4051448073E+01	4.1800000000E+00	0.000E+00	0.0
	5	1	9	9	501	0	4.9812256465E+01	-4.1311537817E+01	-1.6054328525E+02	1.7314595835E+02	4.1800000000E+00	0.000E+00	0.0
</event>
<event>
    11  -1  1.0000000E+00  1.0000000E+00  -1.0000000E+00  -1.0000000E+00
	2212	-1	0	0	0	0	0.0000000000E+00	0.0000000000E+00	6.5000000000E+03	6.5000000000E+03	9.3827000000E-01	0.000E+00	0.0
	2212	-1	0	0	0	0	0.0000000000E+00	0.0000000000E+00	-6.5000000000E+03	6.5000000000E+03	9.3827000000E-01	0.000E+00	0.0
	2212	1	0	0	0	0	0.0000000000E+00	0.0000000000E+00	4.9334410566E+03	4.9334410566E+03	9.3827000000E-01	0.000E+00	0.0
	2212	1	0	0	0	0	0.0000000000E+00	0.0000000000E+00	-6.3249911207E+03	6.3249911207E+03	9.3827000000E-01	0.000E+00	0.0
	51	2	1	2	0	0	-1.0447695472E+01	2.4850137235E+00	1.6376589055E+03	1.9438850070E+03	1.0472091005E+03	0.000E+00	0.0
	1000022	2	5	5	0	0	1.0447695472E+01	-2.4850137235E+00	9.0755445315E+02	1.2415280095E+03	8.4712536456E+02	0.000E+00	0.0
	14	1	6	6	0	0	-4.5737209477E+01	2.5559990610E+02	5.5814738958E+02	6.9611544504E+02	3.2500000000E+02	0.000E+00	0.0
	-14	1	6	6	0	0	5.6184904949E+01	-2.5808491983E+02	3.4940706357E+02	5.4541256445E+02	3.2500000000E+02	0.000E+00	0.0
	25	2	5	5	0	0	-1.0447695472E+01	2.4850137235E+00	4.8399561094E+02	5.0003981318E+02	1.2519078929E+02	0.000E+00	0.0
	-5	1	9	9	0	501	5.3632108497E+01	-1.5379994663E+01	1.6736546024E+02	1.7646987555E+02	4.1800000000E+00	0.000E+00	0.0
	5	1	9	9	501	0	-6.4079803970E+01	1.7865008387E+01	3.1663015070E+02	3.2356993763E+02	4.1800000000E+00	0.000E+00	0.0
</event>
<event>
    11  -1  1.0000000E+00  1.0000000E+00  -1.0000000E+00  -1.0000000E+00
	2212	-1	0	0	0	0	0.0000000000E+00	0.0000000000E+00	6.5000000000E+03	6.5000000000E+03	9.3827000000E-01	0.000E+00	0.0
	2212	-1	0	0	0	0	0.0000000000E+00	0.0000000000E+00	-6.5000000000E+03	6.5000000000E+03	9.3827000000E-01	0.000E+00	0.0
	2212	1	0	0	0	0	0.0000000000E+00	0.0000000000E+00	6.0018894102E+03	6.0018894102E+03	9.3827000000E-01	0.000E+00	0.0
	2212	1	0	0	0	0	0.0000000000E+00	0.0000000000E+00	-5.9468762305E+03	5.9468762305E+03	9.3827000000E-01	0.000E+00	0.0
	51	2	1	2	0	0	1.3868013746E+02	-3.2199002544E+01	-8.6627107796E+01	1.0629395281E+03	1.0497938980E+03	0.000E+00	0.0
	1000022	2	5	5	0	0	-1.3868013746E+02	3.2199002544E+01	-1.3860133679E+01	8.5724834935E+02	8.4522995266E+02	0.000E+00	0.0
	14	1	6	6	0	0	1.6262976769E+01	2.2500661001E+02	-1.5532593341E+02	4.2502188714E+02	3.2500000000E+02	0.000E+00	0.0
	-14	1	6	6	0	0	-1.5494311423E+02	-1.9280760746E+02	1.4146579973E+02	4.3222646221E+02	3.2500000000E+02	0.000E+00	0.0
	25	2	5	5	0	0	1.3868013746E+02	-3.2199002544E+01	-4.1153046100E+01	1.9398600994E+02	1.2517205183E+02	0.000E+00	0.0
	-5	1	9	9	0	501	-2.1208191631E+01	1.0432044935E+01	-3.8626631237E+00	2.4310646232E+01	4.1800000000E+00	0.000E+00	0.0
	5	1	9	9	501	0	1.5988832909E+02	-4.2631047479E+01	-3.7290382977E+01	1.6967536371E+02	4.1800000000E+00	0.000E+00	0.0
</event>
<event>
    11  -1  1.0000000E+00  1.0000000E+00  -1.0000000E+00  -1.0000000E+00
	2212	-1	0	0	0	0	0.0000000000E+00	0.0000000000E+00	6.5000000000E+03	6.5000000000E+03	9.3827000000E-01	0.000E+00	0.0
	2212	-1	0	0	0	0	0.0000000000E+00	0.0000000000E+00	-6.5000000000E+03	6.5000000000E+03	9.3827000000E-01	0.000E+00	0.0
	2212	1	0	0	0	0	0.0000000000E+00	0.0000000000E+00	5.4783724010E+03	5.4783724010E+03	9.3827000000E-01	0.000E+00	0.0
	2212	1	0	0	0	0	0.0000000000E+00	0.0000000000E+00	-6.2302082837E+03	6.2302082837E+03	9.3827000000E-01	0.000E+00	0.0
	51	2	1	2	0	0	-9.6386621653E+01	2.1008136716E+01	6.3392829486E+02	1.2304891138E+03	1.0500031683E+03	0.000E+00	0.0
	1000022	2	5	5	0	0	9.6386621653E+01	-2.1008136716E+01	7.4128380581E+02	1.1316959194E+03	8.4941288583E+02	0.000E+00	0.0
	14	1	6	6	0	0	1.8775858135E+02	7.5230127484E+01	9.2179593762E+01	3.9374475801E+02	3.2500000000E+02	0.000E+00	0.0
	-14	1	6	6	0	0	-9.1371959697E+01	-9.6238264200E+01	6.4910421205E+02	7.3795116140E+02	3.2500000000E+02	0.000E+00	0.0
	25	2	5	5	0	0	-9.6386621653E+01	2.1008136716E+01	1.0552076854E+01	1.5972339590E+02	1.2517385602E+02	0.000E+00	0.0
	-5	1	9	9	0	501	2.2813366725E+01	2.3870518473E+01	-1.6856903876E+01	3.7307894095E+01	4.1800000000E+00	0.000E+00	0.0
	5	1	9	9	501	0	-1.1919998838E+02	-2.8623817579E+00	2.7408980730E+01	1.2241550181E+02	4.1800000000E+00	0.000E+00	0.0
</event>
<event>
    11  -1  1.0000000E+00  1.0000000E+00  -1.0000000E+00  -1.0000000E+00
	2212	-1	0	0	0	0	0.0000000000E+00	0.0000000000E+00	6.5000000000E+03	6.5000000000E+03	9.3827000000E-01	0.000E+00	0.0
	2212	-1	0	0	0	0	0.0000000000E+00	0.0000000000E+00	-6.5000000000E+03	6.5000000000E+03	9.3827000000E-01	0.000E+00	0.0
	2212	1	0	0	0	0	0.0000000000E+00	0.0000000000E+00	5.3025163601E+03	5.3025163601E+03	9.3827000000E-01	0.000E+00	0.0
	2212	1	0	0	0	0	0.0000000000E+00	0.0000000000E+00	-6.2703744958E+03	6.2703744958E+03	9.3827000000E-01	0.000E+00	0.0
	51	2	1	2	0	0	1.1458468786E+02	6.1078230757E+01	8.6217808224E+02	1.3638557052E+03	1.0487569490E+03	0.000E+00	0.0
	1000022	2	5	5	0	0	-1.1458468786E+02	-6.1078230757E+01	8.9993392999E+02	1.2343826860E+03	8.3484090477E+02	0.000E+00	0.0
	14	1	6	6	0	0	1.3270426237E+02	-4.6671854892E+01	1.5891429553E+02	3.8815903521E+02	3.2500000000E+02	0.000E+00	0.0
	-14	1	6	6	0	0	-2.4728895022E+02	-1.4406375865E+01	7.4101963446E+02	8.4622365083E+02	3.2500000000E+02	0.000E+00	0.0
	25	2	5	5	0	0	1.1458468786E+02	6.1078230757E+01	6.7924205708E+01	1.9272645797E+02	1.2517822861E+02	0.000E+00	0.0
	-5	1	9	9	0	501	6.9275096028E+01	9.5832046960E+01	2.4417143235E+01	1.2081593205E+02	4.1800000000E+00	0.000E+00	0.0
	5	1	9	9	501	0	4.5309591830E+01	-3.4753816204E+01	4.3507062472E+01	7.1910525916E+01	4.1800000000E+00	0.000E+00	0.0
</event>
<event>
    11  -1  1.0000000E+00  1.0000000E+00  -1.0000000E+00  -1.0000000E+00
	2212	-1	0	0	0	0	0.0000000000E+00	0.0000000000E+00	6.5000000000E+03	6.5000000000E+03	9.3827000000E-01	0.000E+00	0.0
	2212	-1	0	0	0	0	0.0000000000E+00	0.0000000000E+00	-6.5000000000E+03	6.5000000000E+03	9.3827000000E-01	0.000E+00	0.0
	2212	1	0	0	0	0	0.0000000000E+00	0.0000000000E+00	5.9598665352E+03	5.9598665352E+03	9.3827000000E-01	0.000E+00	0.0
	2212	1	0	0	0	0	0.0000000000E+00	0.0000000000E+00	-5.9905814047E+03	5.9905814047E+03	9.3827000000E-01	0.000E+00	0.0
	51	2	1	2	0	0	1.2091016936E+02	6.0794336007E+01	-3.6229269605E+00	1.0578017157E+03	1.0491025326E+03	0.000E+00	0.0
	1000022	2	5	5	0	0	-1.2091016936E+02	-6.0794336007E+01	5.9832144479E+01	8.6291294169E+02	8.5013154222E+02	0.000E+00	0.0
	14	1	6	6	0	0	-9.3720400625E+01	-2.8110429764E+02	-7.6473233596E+01	4.4640373554E+02	3.2500000000E+02	0.000E+00	0.0
	-14	1	6	6	0	0	-2.7189768736E+01	2.2030996164E+02	1.3630537807E+02	4.1650920615E+02	3.2500000000E+02	0.000E+00	0.0
	25	2	5	5	0	0	1.2091016936E+02	6.0794336007E+01	-2.9117274980E+01	1.8663911848E+02	1.2518436204E+02	0.000E+00	0.0
	-5	1	9	9	0	501	-4.2922846274E+00	-1.0137699128E+01	-4.0550594046E+01	4.2225818268E+01	4.1800000000E+00	0.000E+00	0.0
	5	1	9	9	501	0	1.2520245399E+02	7.0932035135E+01	1.1433319066E+01	1.4441330021E+02	4.1800000000E+00	0.000E+00	0.0
</event>
<event>
    11  -1  1.0000000E+00  1.0000000E+00  -1.0000000E+00  -1.0000000E+00
	2212	-1	0	0	0	0	0.0000000000E+00	0.0000000000E+00	6.5000000000E+03	6.5000000000E+03	9.3827000000E-01	0.000E+00	0.0
	2212	-1	0	0	0	0	0.0000000000E+00	0.0000000000E+00	-6.5000000000E+03	6.5000000000E+03	9.3827000000E-01	0.000E+00	0.0
	2212	1	0	0	0	0	0.0000000000E+00	0.0000000000E+00	6.3321848150E+03	6.3321848150E+03	9.3827000000E-01	0.000E+00	0.0
	2212	1	0	0	0	0	0.0000000000E+00	0.0000000000E+00	-4.8427137371E+03	4.8427137371E+03	9.3827000000E-01	0.000E+00	0.0
	51	2	1	2	0	0	4.2706700558E+01	1.1642381542E+02	-1.6095943830E+03	1.9283785023E+03	1.0547375044E+03	0.000E+00	0.0
	1000022	2	5	5	0	0	-4.2706700558E+01	-1.1642381542E+02	-1.1183580458E+03	1.4142778281E+03	8.5678392229E+02	0.000E+00	0.0
	14	1	6	6	0	0	-3.9107356495E+01	-7.1981419921E+00	-9.9888210697E+02	1.0511763231E+03	3.2500000000E+02	0.000E+00	0.0
	-14	1	6	6	0	0	-3.5993440631E+00	-1.0922567343E+02	-1.1947593881E+02	3.6310150505E+02	3.2500000000E+02	0.000E+00	0.0
	25	2	5	5	0	0	4.2706700558E+01	1.1642381542E+02	-3.7111303214E+02	4.1082361976E+02	1.2519104147E+02	0.000E+00	0.0
	-5	1	9	9	0	501	2.0063173006E+01	1.2647470953E+02	-1.9761210748E+02	2.3551305799E+02	4.1800000000E+00	0.000E+00	0.0
	5	1	9	9	501	0	2.2643527552E+01	-1.0050894110E+01	-1.7350092466E+02	1.7531056177E+02	4.1800000000E+00	0.000E+00	0.0
</event>
<event>
    11  -1  1.0000000E+00  1.0000000E+00  -1.0000000E+00  -1.0000000E+00
	2212	-1	0	0	0	0	0.0000000000E+00	0.0000000000E+00	6.5000000000E+03	6.5000000000E+03	9.3827000000E-01	0.000E+00	0.0
	2212	-1	0	0	0	0	0.0000000000E+00	0.0000000000E+00	-6.5000000000E+03	6.5000000000E+03	9.3827000000E-01	0.000E+00	0.0
	2212	1	0	0	0	0	0.0000000000E+00	0.0000000000E+00	6.2324289322E+03	6.2324289322E+03	9.3827000000E-01	0.000E+00	0.0
	2212	1	0	0	0	0	0.0000000000E+00	0.0000000000E+00	-5.4541543365E+03	5.4541543365E+03	9.3827000000E-01	0.000E+00	0.0
	51	2	1	2	0	0	-2.7004305601E+01	-1.5521481461E+02	-8.6748610907E+02	1.3772092014E+03	1.0579944063E+03	0.000E+00	0.0
	1000022	2	5	5	0	0	2.7004305601E+01	1.5521481461E+02	-5.4375589530E+02	1.0044037545E+03	8.2965990458E+02	0.000E+00	0.0
	14	1	6	6	0	0	5.0394902089E+01	3.1715602789E+02	-1.8349796773E+02	4.9236581557E+02	3.2500000000E+02	0.000E+00	0.0
	-14	1	6	6	0	0	-2.3390596488E+01	-1.6194121328E+02	-3.6025792757E+02	5.1203793896E+02	3.2500000000E+02	0.000E+00	0.0
	25	2	5	5	0	0	-2.7004305601E+01	-1.5521481461E+02	-2.3451870044E+02	3.0901297678E+02	1.2517638661E+02	0.000E+00	0.0
	-5	1	9	9	0	501	-5.6169137508E+01	-5.6785164464E+01	-4.0923497411E+01	8.9842818032E+01	4.1800000000E+00	0.000E+00	0.0
	5	1	9	9	501	0	2.9164831907E+01	-9.8429650147E+01	-1.9359520303E+02	2.1917015875E+02	4.1800000000E+00	0.000E+00	0.0
</event>
<event>
    11  -1  1.0000000E+00  1.0000000E+00  -1.0000000E+00  -1.0000000E+00
	2212	-1	0	0	0	0	0.0000000000E+00	0.0000000000E+00	6.5000000000E+03	6.5000000000E+03	9.3827000000E-01	0.000E+00	0.0
	2212	-1	0	0	0	0	0.0000000000E+00	0.0000000000E+00	-6.5000000000E+03	6.5000000000E+03	9.3827000000E-01	0.000E+00	0.0
	2212	1	0	0	0	0	0.0000000000E+00	0.0000000000E+00	6.2989675570E+03	6.2989675570E+03	9.3827000000E-01	0.000E+00	0.0
	2212	1	0	0	0	0	0.0000000000E+00	0.0000000000E+00	-5.1336478759E+03	5.1336478759E+03	9.3827000000E-01	0.000E+00	0.0
	51	2	1	2	0	0	9.7676364712E+01	-4.1234536223E+01	-1.0534139045E+03	1.4898477221E+03	1.0482005637E+03	0.000E+00	0.0
	1000022	2	5	5	0	0	-9.7676364712E+01	4.1234536223E+01	-1.0831789256E+03	1.3839238979E+03	8.5482618763E+02	0.000E+00	0.0
	14	1	6	6	0	0	2.0093524142E+02	-5.0716118416E-01	-7.0202739274E+02	7.9927635309E+02	3.2500000000E+02	0.000E+00	0.0
	-14	1	6	6	0	0	-2.9861160613E+02	4.1741697407E+01	-3.8115153283E+02	5.8464754477E+02	3.2500000000E+02	0.000E+00	0.0
	25	2	5	5	0	0	9.7676364712E+01	-4.1234536223E+01	-8.2140755596E+01	1.8346066921E+02	1.2517888886E+02	0.000E+00	0.0
	-5	1	9	9	0	501	9.9760106059E+01	-9.8769545196E-01	-9.5245154089E+00	1.0030574808E+02	4.1800000000E+00	0.000E+00	0.0
	5	1	9	9	501	0	-2.0837413465E+00	-4.0246840771E+01	-7.2616240187E+01	8.3154921135E+01	4.1800000000E+00	0.000E+00	0.0
</event>
<event>
    11  -1  1.0000000E+00  1.0000000E+00  -1.0000000E+00  -1.0000000E+00
	2212	-1	0	0	0	0	0.0000000000E+00	0.0000000000E+00	6.5000000000E+03	6.5000000000E+03	9.3827000000E-01	0.000E+00	0.0
	2212	-1	0	0	0	0	0.0000000000E+00	0.0000000000E+00	-6.5000000000E+03	6.5000000000E+03	9.3827000000E-01	0.000E+00	0.0
	2212	1	0	0	0	0	0.0000000000E+00	0.0000000000E+00	6.1610457373E+03	6.1610457373E+03	9.3827000000E-01	0.000E+00	0.0
	2212	1	0	0	0	0	0.0000000000E+00	0.0000000000E+00	-5.6898563576E+03	5.6898563576E+03	9.3827000000E-01	0.000E+00	0.0
	51	2	1	2	0	0	-1.1825184251E+02	3.7692342970E+01	-4.9913348152E+02	1.1674523576E+03	1.0480489320E+03	0.000E+00	0.0
	1000022	2	5	5	0	0	1.1825184251E+02	-3.7692342970E+01	-3.6675593762E+02	9.4420754059E+02	8.6116998957E+02	0.000E+00	0.0
	14	1	6	6	0	0	-1.8393221454E+02	-1.2466395797E+02	-2.8159291845E+02	4.8403691355E+02	3.2500000000E+02	0.000E+00	0.0
	-14	1	6	6	0	0	3.0218405705E+02	8.6971614996E+01	-8.5163019166E+01	4.6017062703E+02	3.2500000000E+02	0.000E+00	0.0
	25	2	5	5	0	0	-1.1825184251E+02	3.7692342970E+01	-1.0443344207E+02	2.0489036447E+02	1.2517790002E+02	0.000E+00	0.0
	-5	1	9	9	0	501	-1.2961152661E+02	-6.7765096953E+00	-8.2535867137E+01	1.5386588536E+02	4.1800000000E+00	0.000E+00	0.0
	5	1	9	9	501	0	1.1359684099E+01	4.4468852665E+01	-2.1897574937E+01	5.1024479109E+01	4.1800000000E+00	0.000E+00	0.0
</event>
<event>
    11  -1  1.0000000E+00  1.0000000E+00  -1.0000000E+00  -1.0000000E+00
	2212	-1	0	0	0	0	0.0000000000E+00	0.0000000000E+00	6.5000000000E+03	6.5000000000E+03	9.3827000000E-01	0.000E+00	0.0
	2212	-1	0	0	0	0	0.0000000000E+00	0.0000000000E+00	-6.5000000000E+03	6.5000000000E+03	9.3827000000E-01	0.000E+00	0.0
	2212	1	0	0	0	0	0.0000000000E+00	0.0000000000E+00	5.9895374750E+03	5.9895374750E+03	9.3827000000E-01	0.000E+00	0.0
	2212	1	0	0	0	0	0.0000000000E+00	0.0000000000E+00	-5.9557883119E+03	5.9557883119E+03	9.3827000000E-01	0.000E+00	0.0
	51	2	1	2	0	0	-1.3449135102E+01	-1.4798101207E+02	-4.1058873007E+01	1.0653467886E+03	1.0541340948E+03	0.000E+00	0.0
	1000022	2	5	5	0	0	1.3449135102E+01	1.4798101207E+02	-2.0549530861E+01	8.5993931642E+02	8.4675503278E+02	0.000E+00	0.0
	14	1	6	6	0	0	1.0400576354E+01	1.1353280494E+02	-2.7901791690E+02	4.4325372839E+02	3.2500000000E+02	0.000E+00	0.0
	-14	1	6	6	0	0	3.0485587474E+00	3.4448207126E+01	2.5846838604E+02	4.1668558802E+02	3.2500000000E+02	0.000E+00	0.0
	25	2	5	5	0	0	-1.3449135102E+01	-1.4798101207E+02	-1.3199632290E+01	1.9473489671E+02	1.2517264293E+02	0.000E+00	0.0
	-5	1	9	9	0	501	2.7974378028E+01	-3.8647310592E+01	-5.2741035080E+01	7.1240926604E+01	4.1800000000E+00	0.000E+00	0.0
	5	1	9	9	501	0	-4.1423513130E+01	-1.0933370147E+02	3.9541402790E+01	1.2349397011E+02	4.1800000000E+00	0.000E+00	0.0
</event>
<event>
    11  -1  1.0000000E+00  1.0000000E+00  -1.0000000E+00  -1.0000000E+00
	2212	-1	0	0	0	0	0.0000000000E+00	0.0000000000E+00	6.5000000000E+03	6.5000000000E+03	9.3827000000E-01	0.000E+00	0.0
	2212	-1	0	0	0	0	0.0000000000E+00	0.0000000000E+00	-6.5000000000E+03	6.5000000000E+03	9.3827000000E-01	0.000E+00	0.0
	2212	1	0	0	0	0	0.0000000000E+00	0.0000000000E+00	5.1948954674E+03	5.1948954674E+03	9.3827000000E-01	0.000E+00	0.0
	2212	1	0	0	0	0	0.0000000000E+00	0.0000000000E+00	-6.2924101563E+03	6.2924101563E+03	9.3827000000E-01	0.000E+00	0.0
	51	2	1	2	0	0	2.2466818501E+01	-1.2107496374E+02	8.6665637849E+02	1.3601334371E+03	1.0410119037E+03	0.000E+00	0.0
	1000022	2	5	5	0	0	-2.2466818501E+01	1.2107496374E+02	1.0901699967E+03	1.3369423132E+03	7.6405511727E+02	0.000E+00	0.0
	14	1	6	6	0	0	1.5754012612E+01	-1.3707259456E+02	4.3249160938E+02	5.5831091452E+02	3.2500000000E+02	0.000E+00	0.0
	-14	1	6	6	0	0	-3.8220831113E+01	2.5814755830E+02	6.5767838736E+02	7.7863139866E+02	3.2500000000E+02	0.000E+00	0.0
	25	2	5	5	0	0	2.2466818501E+01	-1.2107496374E+02	7.3446922338E+00	1.7575206314E+02	1.2518361879E+02	0.000E+00	0.0
	-5	1	9	9	0	501	-2.1842453475E+01	-6.2887444130E+01	-4.9469510846E+01	8.3045940939E+01	4.1800000000E+00	0.000E+00	0.0
	5	1	9	9	501	0	4.4309271976E+01	-5.8187519608E+01	5.6814203080E+01	9.2706122197E+01	4.1800000000E+00	0.000E+00	0.0
</event>
<event>
    11  -1  1.0000000E+00  1.0000000E+00  -1.0000000E+00  -1.0000000E+00
	2212	-1	0	0	0	0	0.0000000000E+00	0.0000000000E+00	6.5000000000E+03	6.5000000000E+03	9.3827000000E-01	0.000E+00	0.0
	2212	-1	0	0	0	0	0.0000000000E+00	0.0000000000E+00	-6.5000000000E+03	6.5000000000E+03	9.3827000000E-01	0.000E+00	0.0
	2212	1	0	0	0	0	0.0000000000E+00	0.0000000000E+00	5.4448377901E+03	5.4448377901E+03	9.3827000000E-01	0.000E+00	0.0
	2212	1	0	0	0	0	0.0000000000E+00	0.0000000000E+00	-6.2370729261E+03	6.2370729261E+03	9.3827000000E-01	0.000E+00	0.0
	51	2	1	2	0	0	1.5885383719E+01	1.4982130194E+02	7.9269963826E+02	1.3269492581E+03	1.0534338371E+03	0.000E+00	0.0
	1000022	2	5	5	0	0	-1.5885383719E+01	-1.4982130194E+02	6.5247988571E+02	1.0774829073E+03	8.4412122728E+02	0.000E+00	0.0
	14	1	6	6	0	0	-1.2940190634E+02	-3.0203873163E+02	2.4625521466E+02	5.2367822135E+02	3.2500000000E+02	0.000E+00	0.0
	-14	1	6	6	0	0	1.1351652263E+02	1.5221742969E+02	4.0622467105E+02	5.5380468595E+02	3.2500000000E+02	0.000E+00	0.0
	25	2	5	5	0	0	1.5885383719E+01	1.4982130194E+02	1.3975525033E+02	2.4060637647E+02	1.2514443844E+02	0.000E+00	0.0
	-5	1	9	9	0	501	-5.0568063050E+01	3.2019397031E+01	3.4833870441E+01	6.9377530345E+01	4.1800000000E+00	0.000E+00	0.0
	5	1	9	9	501	0	6.6453446769E+01	1.1780190491E+02	1.0492137988E+02	1.7122884613E+02	4.1800000000E+00	0.000E+00	0.0
</event>
<event>
    11  -1  1.0000000E+00  1.0000000E+00  -1.0000000E+00  -1.0000000E+00
	2212	-1	0	0	0	0	0.0000000000E+00	0.0000000000E+00	6.5000000000E+03	6.5000000000E+03	9.3827000000E-01	0.000E+00	0.0
	2212	-1	0	0	0	0	0.0000000000E+00	0.0000000000E+00	-6.5000000000E+03	6.5000000000E+03	9.3827000000E-01	0.000E+00	0.0
	2212	1	0	0	0	0	0.0000000000E+00	0.0000000000E+00	6.0616773620E+03	6.0616773620E+03	9.3827000000E-01	0.000E+00	0.0
	2212	1	0	0	0	0	0.0000000000E+00	0.0000000000E+00	-5.8705967918E+03	5.8705967918E+03	9.3827000000E-01	0.000E+00	0.0
	51	2	1	2	0	0	-1.1484875925E+01	1.0695021551E+02	-3.4014748268E+02	1.1094130247E+03	1.0504887903E+03	0.000E+00	0.0
	1000022	2	5	5	0	0	1.1484875925E+01	-1.0695021551E+02	-4.9525900275E+00	8.1894770158E+02	8.1183776631E+02	0.000E+00	0.0
	14	1	6	6	0	0	3.6348030231E+01	1.6748550547E+02	9.8657723399E+01	3.8043517218E+02	3.2500000000E+02	0.000E+00	0.0
	-14	1	6	6	0	0	-2.4863154306E+01	-2.7443572099E+02	-1.0361031343E+02	4.3851252940E+02	3.2500000000E+02	0.000E+00	0.0
	25	2	5	5	0	0	-1.1484875925E+01	1.0695021551E+02	-1.8612798019E+02	2.4877814468E+02	1.2520658644E+02	0.000E+00	0.0
	-5	1	9	9	0	501	5.1863441228E+01	7.6235513696E+01	-8.4921819202E+01	1.2542271669E+02	4.1800000000E+00	0.000E+00	0.0
	5	1	9	9	501	0	-6.3348317153E+01	3.0714701818E+01	-1.0120616099E+02	1.2335542800E+02	4.1800000000E+00	0.000E+00	0.0
</event>
<event>
    11  -1  1.0000000E+00  1.0000000E+00  -1.0000000E+00  -1.0000000E+00
	2212	-1	0	0	0	0	0.0000000000E+00	0.0000000000E+00	6.5000000000E+03	6.5000000000E+03	9.3827000000E-01	0.000E+00	0.0
	2212	-1	0	0	0	0	0.0000000000E+00	0.0000000000E+00	-6.5000000000E+03	6.5000000000E+03	9.3827000000E-01	0.000E+00	0.0
	2212	1	0	0	0	0	0.0000000000E+00	0.0000000000E+00	6.3010225799E+03	6.3010225799E+03	9.3827000000E-01	0.000E+00	0.0
	2212	1	0	0	0	0	0.0000000000E+00	0.0000000000E+00	-5.1274368670E+03	5.1274368670E+03	9.3827000000E-01	0.000E+00	0.0
	51	2	1	2	0	0	7.9606130441E+01	1.0763573328E+02	-1.0941033170E+03	1.5190197299E+03	1.0451967683E+03	0.000E+00	0.0
	1000022	2	5	5	0	0	-7.9606130441E+01	-1.0763573328E+02	-1.0478665178E+03	1.3492773377E+03	8.3940604459E+02	0.000E+00	0.0
	14	1	6	6	0	0	-7.5712030337E+01	-1.8685849987E+02	-9.1062797183E+02	9.8768249634E+02	3.2500000000E+02	0.000E+00	0.0
	-14	1	6	6	0	0	-3.8941001040E+00	7.9222766590E+01	-1.3723854598E+02	3.6159484131E+02	3.2500000000E+02	0.000E+00	0.0
	25	2	5	5	0	0	7.9606130441E+01	1.0763573328E+02	-1.2571919511E+02	2.2226321543E+02	1.2519198788E+02	0.000E+00	0.0
	-5	1	9	9	0	501	3.0852030529E+01	7.4773424955E+01	2.6165605323E+00	8.1038457885E+01	4.1800000000E+00	0.000E+00	0.0
	5	1	9	9	501	0	4.8754099912E+01	3.2862308325E+01	-1.2833575564E+02	1.4122475754E+02	4.1800000000E+00	0.000E+00	0.0
</event>
<event>
    11  -1  1.0000000E+00  1.0000000E+00  -1.0000000E+00  -1.0000000E+00
	2212	-1	0	0	0	0	0.0000000000E+00	0.0000000000E+00	6.5000000000E+03	6.5000000000E+03	9.3827000000E-01	0.000E+00	0.0
	2212	-1	0	0	0	0	0.0000000000E+00	0.0000000000E+00	-6.5000000000E+03	6.5000000000E+03	9.3827000000E-01	0.000E+00	0.0
	2212	1	0	0	0	0	0.0000000000E+00	0.0000000000E+00	5.8240315711E+03	5.8240315711E+03	9.3827000000E-01	0.000E+00	0.0
	2212	1	0	0	0	0	0.0000000000E+00	0.0000000000E+00	-6.0907799398E+03	6.0907799398E+03	9.3827000000E-01	0.000E+00	0.0
	51	2	1	2	0	0	1.3234052984E+02	7.4772986460E+01	2.8953092423E+02	1.1015500606E+03	1.0518932287E+03	0.000E+00	0.0
	1000022	2	5	5	0	0	-1.3234052984E+02	-7.4772986460E+01	1.9661400824E+02	8.7618981172E+02	8.4020622622E+02	0.000E+00	0.0
	14	1	6	6	0	0	1.8100034516E+02	-2.2833010242E+01	1.9741967255E+02	4.2176059372E+02	3.2500000000E+02	0.000E+00	0.0
	-14	1	6	6	0	0	-3.1334087500E+02	-5.1939976218E+01	-8.0566431265E-01	4.5442921800E+02	3.2500000000E+02	0.000E+00	0.0
	25	2	5	5	0	0	1.3234052984E+02	7.4772986460E+01	7.0134360505E+01	2.0899867738E+02	1.2512634926E+02	0.000E+00	0.0
	-5	1	9	9	0	501	1.2255187709E+02	5.7994282771E+01	-4.7522492570E-01	1.3564659101E+02	4.1800000000E+00	0.000E+00	0.0
	5	1	9	9	501	0	9.7886527460E+00	1.6778703689E+01	7.0609585430E+01	7.3352086369E+01	4.1800000000E+00	0.000E+00	0.0
</event>
<event>
    11  -1  1.0000000E+00  1.0000000E+00  -1.0000000E+00  -1.0000000E+00
	2212	-1	0	0	0	0	0.0000000000E+00	0.0000000000E+00	6.5000000000E+03	6.5000000000E+03	9.3827000000E-01	0.000E+00	0.0
	2212	-1	0	0	0	0	0.0000000000E+00	0.0000000000E+00	-6.5000000000E+03	6.5000000000E+03	9.3827000000E-01	0.000E+00	0.0
	2212	1	0	0	0	0	0.0000000000E+00	0.0000000000E+00	6.0094497035E+03	6.0094497035E+03	9.3827000000E-01	0.000E+00	0.0
	2212	1	0	0	0	0	0.0000000000E+00	0.0000000000E+00	-5.9254942368E+03	5.9254942368E+03	9.3827000000E-01	0.000E+00	0.0
	51	2	1	2	0	0	-1.1502481871E+02	1.1188019416E+02	-1.3085172799E+02	1.0817420909E+03	1.0617419130E+03	0.000E+00	0.0
	1000022	2	5	5	0	0	1.1502481871E+02	-1.1188019416E+02	-2.1595962687E+01	8.5220388099E+02	8.3668224697E+02	0.000E+00	0.0
	14	1	6	6	0	0	-2.4277535244E+01	-3.0729038098E+02	-1.0877766803E+01	4.4806261032E+02	3.2500000000E+02	0.000E+00	0.0
	-14	1	6	6	0	0	1.3930235395E+02	1.9541018682E+02	-1.0718195885E+01	4.0414127066E+02	3.2500000000E+02	0.000E+00	0.0
	25	2	5	5	0	0	-1.1502481871E+02	1.1188019416E+02	-6.2359504060E+01	2.1285217869E+02	1.2517769554E+02	0.000E+00	0.0
	-5	1	9	9	0	501	-1.1393346144E+02	4.7897905282E+01	-3.7379533613E-01	1.2366347516E+02	4.1800000000E+00	0.000E+00	0.0
	5	1	9	9	501	0	-1.0913572670E+00	6.3982288875E+01	-6.1985708724E+01	8.9188703524E+01	4.1800000000E+00	0.000E+00	0.0
</event>
<event>
    11  -1  1.0000000E+00  1.0000000E+00  -1.0000000E+00  -1.0000000E+00
	2212	-1	0	0	0	0	0.0000000000E+00	0.0000000000E+00	6.5000000000E+03	6.5000000000E+03	9.3827000000E-01	0.000E+00	0.0
	2212	-1	0	0	0	0	0.0000000000E+00	0.0000000000E+00	-6.5000000000E+03	6.5000000000E+03	9.3827000000E-01	0.000E+00	0.0
	2212	1	0	0	0	0	0.0000000000E+00	0.0000000000E+00	6.2721343467E+03	6.2721343467E+03	9.3827000000E-01	0.000E+00	0.0
	2212	1	0	0	0	0	0.0000000000E+00	0.0000000000E+00	-5.3057821820E+03	5.3057821820E+03	9.3827000000E-01	0.000E+00	0.0
	51	2	1	2	0	0	1.0235763965E+02	7.6205387475E+01	-9.4687500918E+02	1.4146877831E+03	1.0433047940E+03	0.000E+00	0.0
	1000022	2	5	5	0	0	-1.0235763965E+02	-7.6205387475E+01	-8.2663437635E+02	1.1952079417E+03	8.5376418542E+02	0.000E+00	0.0
	14	1	6	6	0	0	3.1747073027E+01	-3.9100404326E+01	-3.8138860264E+01	3.3108351050E+02	3.2500000000E+02	0.000E+00	0.0
	-14	1	6	6	0	0	-1.3410471268E+02	-3.7104983149E+01	-7.8849551608E+02	8.6412443121E+02	3.2500000000E+02	0.000E+00	0.0
	25	2	5	5	0	0	1.0235763965E+02	7.6205387475E+01	-1.3971778840E+02	2.2687552963E+02	1.2516827902E+02	0.000E+00	0.0
	-5	1	9	9	0	501	5.2326763124E+01	5.8801602503E+01	-1.5299423479E+02	1.7210585950E+02	4.1800000000E+00	0.000E+00	0.0
	5	1	9	9	501	0	5.0030876525E+01	1.7403784972E+01	1.3276446388E+01	5.4769670127E+01	4.1800000000E+00	0.000E+00	0.0
</event>
<event>
    11  -1  1.0000000E+00  1.0000000E+00  -1.0000000E+00  -1.0000000E+00
	2212	-1	0	0	0	0	0.0000000000E+00	0.0000000000E+00	6.5000000000E+03	6.5000000000E+03	9.3827000000E-01	0.000E+00	0.0
	2212	-1	0	0	0	0	0.0000000000E+00	0.0000000000E+00	-6.5000000000E+03	6.5000000000E+03	9.3827000000E-01	0.000E+00	0.0
	2212	1	0	0	0	0	0.0000000000E+00	0.0000000000E+00	6.2657643456E+03	6.2657643456E+03	9.3827000000E-01	0.000E+00	0.0
	2212	1	0	0	0	0	0.0000000000E+00	0.0000000000E+00	-5.2856565613E+03	5.2856565613E+03	9.3827000000E-01	0.000E+00	0.0
	51	2	1	2	0	0	-1.3188623723E+02	-8.7938431733E+01	-9.4157058358E+02	1.4315908743E+03	1.0666630771E+03	0.000E+00	0.0
	1000022	2	5	5	0	0	1.3188623723E+02	8.7938431733E+01	-8.4134866284E+02	1.2035270040E+03	8.4586200387E+02	0.000E+00	0.0
	14	1	6	6	0	0	-9.2774617223E+01	2.5872463021E+02	-3.5674971016E+02	5.5537457592E+02	3.2500000000E+02	0.000E+00	0.0
	-14	1	6	6	0	0	2.2466085445E+02	-1.7078619848E+02	-4.8459895268E+02	6.4815242810E+02	3.2500000000E+02	0.000E+00	0.0
	25	2	5	5	0	0	-1.3188623723E+02	-8.7938431733E+01	-1.3875912143E+02	2.4505208903E+02	1.2517701551E+02	0.000E+00	0.0
	-5	1	9	9	0	501	-1.3786426483E+02	-4.2871980853E+01	-6.5185015316E+01	1.5846488848E+02	4.1800000000E+00	0.000E+00	0.0
	5	1	9	9	501	0	5.9780276018E+00	-4.5066450880E+01	-7.3574106112E+01	8.6587200550E+01	4.1800000000E+00	0.000E+00	0.0
</event>
<event>
    11  -1  1.0000000E+00  1.0000000E+00  -1.0000000E+00  -1.0000000E+00
	2212	-1	0	0	0	0	0.0000000000E+00	0.0000000000E+00	6.5000000000E+03	6.5000000000E+03	9.3827000000E-01	0.000E+00	0.0
	2212	-1	0	0	0	0	0.0000000000E+00	0.0000000000E+00	-6.5000000000E+03	6.5000000000E+03	9.3827000000E-01	0.000E+00	0.0
	2212	1	0	0	0	0	0.0000000000E+00	0.0000000000E+00	5.0006258474E+03	5.0006258474E+03	9.3827000000E-01	0.000E+00	0.0
	2212	1	0	0	0	0	0.0000000000E+00	0.0000000000E+00	-6.3153738962E+03	6.3153738962E+03	9.3827000000E-01	0.000E+00	0.0
	51	2	1	2	0	0	4.5483659365E+01	-1.1806111965E+02	1.4302686751E+03	1.7801601349E+03	1.0522805860E+03	0.000E+00	0.0
	1000022	2	5	5	0	0	-4.5483659365E+01	1.1806111965E+02	9.7454214214E+02	1.3000513448E+03	8.5111334208E+02	0.000E+00	0.0
	14	1	6	6	0	0	-2.8776794111E+02	-8.8334228086E+00	5.3114662748E+02	6.8602489544E+02	3.2500000000E+02	0.000E+00	0.0
	-14	1	6	6	0	0	2.4228428174E+02	1.2689454246E+02	4.4339551467E+02	6.1402644936E+02	3.2500000000E+02	0.000E+00	0.0
	25	2	5	5	0	0	4.5483659365E+01	-1.1806111965E+02	3.4020590664E+02	3.8394891157E+02	1.2517793951E+02	0.000E+00	0.0
	-5	1	9	9	0	501	-5.5993295647E+00	-9.5853493585E+01	1.0560801646E+02	1.4279275284E+02	4.1800000000E+00	0.000E+00	0.0
	5	1	9	9	501	0	5.1082988930E+01	-2.2207626065E+01	2.3459789018E+02	2.4115615873E+02	4.1800000000E+00	0.000E+00	0.0
</event>
<event>
    11  -1  1.0000000E+00  1.0000000E+00  -1.0000000E+00  -1.0000000E+00
	2212	-1	0	0	0	0	0.0000000000E+00	0.0000000000E+00	6.5000000000E+03	6.5000000000E+03	9.3827000000E-01	0.000E+00	0.0
	2212	-1	0	0	0	0	0.0000000000E+00	0.0000000000E+00	-6.5000000000E+03	6.5000000000E+03	9.3827000000E-01	0.000E+00	0.0
	2212	1	0	0	0	0	0.0000000000E+00	0.0000000000E+00	6.0166555016E+03	6.0166555016E+03	9.3827000000E-01	0.000E+00	0.0
	2212	1	0	0	0	0	0.0000000000E+00	0.0000000000E+00	-5.9293431609E+03	5.9293431609E+03	9.3827000000E-01	0.000E+00	0.0
	51	2	1	2	0	0	-8.9105598203E+01	-7.9613688995E+00	-1.0047756244E+01	1.0542293503E+03	1.0503786815E+03	0.000E+00	0.0
	1000022	2	5	5	0	0	8.9105598203E+01	7.9613688995E+00	-1.5080837571E+02	8.8756463664E+02	8.7007162177E+02	0.000E+00	0.0
	14	1	6	6	0	0	4.2068091903E+01	-2.6750724169E+02	-1.7603747168E+02	4.5819650822E+02	3.2500000000E+02	0.000E+00	0.0
	-14	1	6	6	0	0	4.7037506300E+01	2.7546861059E+02	2.5229095963E+01	4.2936812842E+02	3.2500000000E+02	0.000E+00	0.0
	25	2	5	5	0	0	-8.9105598203E+01	-7.9613688995E+00	6.3496034976E+01	1.6643670087E+02	1.2516484296E+02	0.000E+00	0.0
	-5	1	9	9	0	501	-1.1798005511E+02	1.1259964087E+01	4.4466137503E+01	1.2665224032E+02	4.1800000000E+00	0.000E+00	0.0
	5	1	9	9	501	0	2.8874456903E+01	-1.9221332986E+01	1.9029897474E+01	3.9784460548E+01	4.1800000000E+00	0.000E+00	0.0
</event>
<event>
    11  -1  1.0000000E+00  1.0000000E+00  -1.0000000E+00  -1.0000000E+00
	2212	-1	0	0	0	0	0.0000000000E+00	0.0000000000E+00	6.5000000000E+03	6.5000000000E+03	9.3827000000E-01	0.000E+00	0.0
	2212	-1	0	0	0	0	0.0000000000E+00	0.0000000000E+00	-6.5000000000E+03	6.5000000000E+03	9.3827000000E-01	0.000E+00	0.0
	2212	1	0	0	0	0	0.0000000000E+00	0.0000000000E+00	5.4739471743E+03	5.4739471743E+03	9.3827000000E-01	0.000E+00	0.0
	2212	1	0	0	0	0	0.0000000000E+00	0.0000000000E+00	-6.2344002792E+03	6.2344002792E+03	9.3827000000E-01	0.000E+00	0.0
	51	2	1	2	0	0	-1.2525884250E+02	3.5926023475E+01	7.4436386650E+02	1.2888504174E+03	1.0440677066E+03	0.000E+00	0.0
	1000022	2	5	5	0	0	1.2525884250E+02	-3.5926023475E+01	6.5032869815E+02	1.0800769903E+03	8.5244262718E+02	0.000E+00	0.0
	14	1	6	6	0	0	4.6611655118E+01	-2.7152671237E+02	1.9673322675E+02	4.6928495015E+02	3.2500000000E+02	0.000E+00	0.0
	-14	1	6	6	0	0	7.8647187384E+01	2.3560068890E+02	4.5359547140E+02	6.1079204020E+02	3.2500000000E+02	0.000E+00	0.0
	25	2	5	5	0	0	-1.2525884250E+02	3.5926023475E+01	1.1012440682E+02	2.1157555614E+02	1.2512543384E+02	0.000E+00	0.0
	-5	1	9	9	0	501	-8.4155048302E+01	-1.3823060238E+01	1.7853725479E+00	8.5403800292E+01	4.1800000000E+00	0.000E+00	0.0
	5	1	9	9	501	0	-4.1103794199E+01	4.9749083714E+01	1.0833903427E+02	1.2617175585E+02	4.1800000000E+00	0.000E+00	0.0
</event>
<event>
    11  -1  1.0000000E+00  1.0000000E+00  -1.0000000E+00  -1.0000000E+00
	2212	-1	0	0	0	0	0.0000000000E+00	0.0000000000E+00	6.5000000000E+03	6.5000000000E+03	9.3827000000E-01	0.000E+00	0.0
	2212	-1	0	0	0	0	0.0000000000E+00	0.0000000000E+00	-6.5000000000E+03	6.5000000000E+03	9.3827000000E-01	0.000E+00	0.0
	2212	1	0	0	0	0	0.0000000000E+00	0.0000000000E+00	6.2387544999E+03	6.2387544999E+03	9.3827000000E-01	0.000E+00	0.0
	2212	1	0	0	0	0	0.0000000000E+00	0.0000000000E+00	-5.4330743441E+03	5.4330743441E+03	9.3827000000E-01	0.000E+00	0.0
	51	2	1	2	0	0	1.3136020125E+02	2.3163779242E+01	-7.4091293987E+02	1.2967891709E+03	1.0558968256E+03	0.000E+00	0.0
	1000022	2	5	5	0	0	-1.3136020125E+02	-2.3163779242E+01	-7.3172109655E+02	1.1308615991E+03	8.5184513266E+02	0.000E+00	0.0
	14	1	6	6	0	0	-1.1839718045E+02	2.4036589455E+02	-2.3889633891E+02	4.8424179533E+02	3.2500000000E+02	0.000E+00	0.0
	-14	1	6	6	0	0	-1.2963020799E+01	-2.6352967379E+02	-4.9282475765E+02	6.4661980377E+02	3.2500000000E+02	0.000E+00	0.0
	25	2	5	5	0	0	1.3136020125E+02	2.3163779242E+01	-7.3959059202E+01	1.9730955690E+02	1.2517609862E+02	0.000E+00	0.0
	-5	1	9	9	0	501	1.5262826711E+02	3.0897250269E+01	-7.7553366649E+01	1.7401731257E+02	4.1800000000E+00	0.000E+00	0.0
	5	1	9	9	501	0	-2.1268065866E+01	-7.7334710271E+00	3.5943074463E+00	2.3292244328E+01	4.1800000000E+00	0.000E+00	0.0
</event>
<event>
    11  -1  1.0000000E+00  1.0000000E+00  -1.0000000E+00  -1.0000000E+00
	2212	-1	0	0	0	0	0.0000000000E+00	0.0000000000E+00	6.5000000000E+03	6.5000000000E+03	9.3827000000E-01	0.000E+00	0.0
	2212	-1	0	0	0	0	0.0000000000E+00	0.0000000000E+00	-6.5000000000E+03	6.5000000000E+03	9.3827000000E-01	0.000E+00	0.0
	2212	1	0	0	0	0	0.0000000000E+00	0.0000000000E+00	6.3242786897E+03	6.3242786897E+03	9.3827000000E-01	0.000E+00	0.0
	2212	1	0	0	0	0	0.0000000000E+00	0.0000000000E+00	-4.9713143480E+03	4.9713143480E+03	9.3827000000E-01	0.000E+00	0.0
	51	2	1	2	0	0	-2.9923393084E+02	1.3699347068E+02	-1.4546314210E+03	1.8162464895E+03	1.0365763760E+03	0.000E+00	0.0
	1000022	2	5	5	0	0	2.9923393084E+02	-1.3699347068E+02	-8.5774762940E+02	1.0967903376E+03	5.9909088833E+02	0.000E+00	0.0
	14	1	6	6	0	0	0.0000000000E+00	0.0000000000E+00	0.0000000000E+00	0.0000000000E+00	0.0000000000E+00	0.000E+00	0.0
	-14	1	6	6	0	0	0.0000000000E+00	0.0000000000E+00	0.0000000000E+00	0.0000000000E+00	0.0000000000E+00	0.000E+00	0.0
	25	2	5	5	0	0	-2.9923393084E+02	1.3699347068E+02	-4.9521671224E+02	6.0761662469E+02	1.2510081591E+02	0.000E+00	0.0
	-5	1	9	9	0	501	4.7951433461E+00	-4.7930347386E+00	1.6081497668E+00	8.1255847413E+00	4.1800000000E+00	0.000E+00	0.0
	5	1	9	9	501	0	-3.0402907419E+02	1.4178650542E+02	-4.9682486201E+02	5.9949103995E+02	4.1800000000E+00	0.000E+00	0.0
</event>
<event>
    11  -1  1.0000000E+00  1.0000000E+00  -1.0000000E+00  -1.0000000E+00
	2212	-1	0	0	0	0	0.0000000000E+00	0.0000000000E+00	6.5000000000E+03	6.5000000000E+03	9.3827000000E-01	0.000E+00	0.0
	2212	-1	0	0	0	0	0.0000000000E+00	0.0000000000E+00	-6.5000000000E+03	6.5000000000E+03	9.3827000000E-01	0.000E+00	0.0
	2212	1	0	0	0	0	0.0000000000E+00	0.0000000000E+00	6.3181771533E+03	6.3181771533E+03	9.3827000000E-01	0.000E+00	0.0
	2212	1	0	0	0	0	0.0000000000E+00	0.0000000000E+00	-4.9654384749E+03	4.9654384749E+03	9.3827000000E-01	0.000E+00	0.0
	51	2	1	2	0	0	-5.9098000256E+01	-7.0849867637E+01	-1.5464177620E+03	1.8750982779E+03	1.0564437418E+03	0.000E+00	0.0
	1000022	2	5	5	0	0	5.9098000256E+01	7.0849867637E+01	-9.2671050979E+02	1.2628608733E+03	8.5294369044E+02	0.000E+00	0.0
	14	1	6	6	0	0	6.5593464566E+01	2.9492477805E+02	-6.2236550473E+02	7.6436048352E+02	3.2500000000E+02	0.000E+00	0.0
	-14	1	6	6	0	0	-6.4954643103E+00	-2.2407491041E+02	-3.0434500507E+02	4.9850038981E+02	3.2500000000E+02	0.000E+00	0.0
	25	2	5	5	0	0	-5.9098000256E+01	-7.0849867637E+01	-4.2602816866E+02	4.5352349850E+02	1.2518500635E+02	0.000E+00	0.0
	-5	1	9	9	0	501	-5.6557694926E+01	-2.1559012544E+01	-6.4245983175E+01	8.8366184886E+01	4.1800000000E+00	0.000E+00	0.0
	5	1	9	9	501	0	-2.5403053303E+00	-4.9290855092E+01	-3.6178218549E+02	3.6515731361E+02	4.1800000000E+00	0.000E+00	0.0
</event>
<event>
    11  -1  1.0000000E+00  1.0000000E+00  -1.0000000E+00  -1.0000000E+00
	2212	-1	0	0	0	0	0.0000000000E+00	0.0000000000E+00	6.5000000000E+03	6.5000000000E+03	9.3827000000E-01	0.000E+00	0.0
	2212	-1	0	0	0	0	0.0000000000E+00	0.0000000000E+00	-6.5000000000E+03	6.5000000000E+03	9.3827000000E-01	0.000E+00	0.0
	2212	1	0	0	0	0	0.0000000000E+00	0.0000000000E+00	5.2218244366E+03	5.2218244366E+03	9.3827000000E-01	0.000E+00	0.0
	2212	1	0	0	0	0	0.0000000000E+00	0.0000000000E+00	-6.2874566011E+03	6.2874566011E+03	9.3827000000E-01	0.000E+00	0.0
	51	2	1	2	0	0	-5.7739733186E+01	-5.5677070775E+01	1.0895508883E+03	1.5100417431E+03	1.0424351848E+03	0.000E+00	0.0
	1000022	2	5	5	0	0	5.7739733186E+01	5.5677070775E+01	8.9225546100E+02	1.2623185544E+03	8.8932250175E+02	0.000E+00	0.0
	14	1	6	6	0	0	2.9140622694E+02	-8.6787762381E+01	5.9823805087E+02	7.4562957983E+02	3.2500000000E+02	0.000E+00	0.0
	-14	1	6	6	0	0	-2.3366649376E+02	1.4246483316E+02	2.9401741013E+02	5.1668897458E+02	3.2500000000E+02	0.000E+00	0.0
	25	2	5	5	0	0	-5.7739733186E+01	-5.5677070775E+01	1.7337670348E+02	2.2840040787E+02	1.2519365802E+02	0.000E+00	0.0
	-5	1	9	9	0	501	-8.8983613685E+01	-7.3213562437E+00	8.8726158450E+01	1.2594240491E+02	4.1800000000E+00	0.000E+00	0.0
	5	1	9	9	501	0	3.1243880499E+01	-4.8355714531E+01	8.4650545031E+01	1.0245800296E+02	4.1800000000E+00	0.000E+00	0.0
</event>
<event>
    11  -1  1.0000000E+00  1.0000000E+00  -1.0000000E+00  -1.0000000E+00
	2212	-1	0	0	0	0	0.0000000000E+00	0.0000000000E+00	6.5000000000E+03	6.5000000000E+03	9.3827000000E-01	0.000E+00	0.0
	2212	-1	0	0	0	0	0.0000000000E+00	0.0000000000E+00	-6.5000000000E+03	6.5000000000E+03	9.3827000000E-01	0.000E+00	0.0
	2212	1	0	0	0	0	0.0000000000E+00	0.0000000000E+00	4.8911154764E+03	4.8911154764E+03	9.3827000000E-01	0.000E+00	0.0
	2212	1	0	0	0	0	0.0000000000E+00	0.0000000000E+00	-6.3336319822E+03	6.3336319822E+03	9.3827000000E-01	0.000E+00	0.0
	51	2	1	2	0	0	8.9493994086E+01	7.6795547900E+01	1.4465309022E+03	1.7824214145E+03	1.0347307459E+03	0.000E+00	0.0
	1000022	2	5	5	0	0	-8.9493994086E+01	-7.6795547900E+01	1.2080512373E+03	1.4844761710E+03	8.5461978636E+02	0.000E+00	0.0
	14	1	6	6	0	0	2.4701762763E+01	1.9535994980E+02	3.3210722633E+02	5.0467405011E+02	3.2500000000E+02	0.000E+00	0.0
	-14	1	6	6	0	0	-1.1419575685E+02	-2.7215549770E+02	8.7594401095E+02	9.7980212090E+02	3.2500000000E+02	0.000E+00	0.0
	25	2	5	5	0	0	8.9493994086E+01	7.6795547900E+01	2.3446526843E+02	2.9077637039E+02	1.2518068670E+02	0.000E+00	0.0
	-5	1	9	9	0	501	6.0290215844E+01	-1.7848923076E+01	4.6653786432E+01	7.8406264864E+01	4.1800000000E+00	0.000E+00	0.0
	5	1	9	9	501	0	2.9203778242E+01	9.4644470976E+01	1.8781148200E+02	2.1237010553E+02	4.1800000000E+00	0.000E+00	0.0
</event>
<event>
    11  -1  1.0000000E+00  1.0000000E+00  -1.0000000E+00  -1.0000000E+00
	2212	-1	0	0	0	0	0.0000000000E+00	0.0000000000E+00	6.5000000000E+03	6.5000000000E+03	9.3827000000E-01	0.000E+00	0.0
	2212	-1	0	0	0	0	0.0000000000E+00	0.0000000000E+00	-6.5000000000E+03	6.5000000000E+03	9.3827000000E-01	0.000E+00	0.0
	2212	1	0	0	0	0	0.0000000000E+00	0.0000000000E+00	5.9224451751E+03	5.9224451751E+03	9.3827000000E-01	0.000E+00	0.0
	2212	1	0	0	0	0	0.0000000000E+00	0.0000000000E+00	-6.0269497603E+03	6.0269497603E+03	9.3827000000E-01	0.000E+00	0.0
	51	2	1	2	0	0	3.0511618715E+01	5.5952375418E+01	2.4509940299E+00	1.0473382586E+03	1.0453945635E+03	0.000E+00	0.0
	1000022	2	5	5	0	0	-3.0511618715E+01	-5.5952375418E+01	1.8988076019E+02	8.8621053783E+02	8.6328024828E+02	0.000E+00	0.0
	14	1	6	6	0	0	-2.4055969893E+02	1.1220683364E+02	-9.0876510835E+00	4.1972244122E+02	3.2500000000E+02	0.000E+00	0.0
	-14	1	6	6	0	0	2.1004808021E+02	-1.6815920905E+02	1.9896841127E+02	4.6648809661E+02	3.2500000000E+02	0.000E+00	0.0
	25	2	5	5	0	0	3.0511618715E+01	5.5952375418E+01	-8.5376174924E+01	1.6439452676E+02	1.2519920923E+02	0.000E+00	0.0
	-5	1	9	9	0	501	-4.2599154494E+00	7.4513699004E+01	-5.1723260489E+00	7.4931058819E+01	4.1800000000E+00	0.000E+00	0.0
	5	1	9	9	501	0	3.4771534164E+01	-1.8561323586E+01	-8.0203848875E+01	8.9463467939E+01	4.1800000000E+00	0.000E+00	0.0
</event>
<event>
    11  -1  1.0000000E+00  1.0000000E+00  -1.0000000E+00  -1.0000000E+00
	2212	-1	0	0	0	0	0.0000000000E+00	0.0000000000E+00	6.5000000000E+03	6.5000000000E+03	9.3827000000E-01	0.000E+00	0.0
	2212	-1	0	0	0	0	0.0000000000E+00	0.0000000000E+00	-6.5000000000E+03	6.5000000000E+03	9.3827000000E-01	0.000E+00	0.0
	2212	1	0	0	0	0	0.0000000000E+00	0.0000000000E+00	5.2848767014E+03	5.2848767014E+03	9.3827000000E-01	0.000E+00	0.0
	2212	1	0	0	0	0	0.0000000000E+00	0.0000000000E+00	-6.2801645370E+03	6.2801645370E+03	9.3827000000E-01	0.000E+00	0.0
	51	2	1	2	0	0	-6.1319650900E+01	-7.5556151762E+01	1.0904672748E+03	1.5056880423E+03	1.0336869795E+03	0.000E+00	0.0
	1000022	2	5	5	0	0	6.1319650900E+01	7.5556151762E+01	7.4171877801E+02	1.1358708468E+03	8.5474382314E+02	0.000E+00	0.0
	14	1	6	6	0	0	2.8910458929E+02	8.1881462997E+01	2.6636111214E+02	5.1658424249E+02	3.2500000000E+02	0.000E+00	0.0
	-14	1	6	6	0	0	-2.2778493839E+02	-6.3253112342E+00	4.7535766586E+02	6.1928660426E+02	3.2500000000E+02	0.000E+00	0.0
	25	2	5	5	0	0	-6.1319650900E+01	-7.5556151762E+01	2.5356905759E+02	2.9908791480E+02	1.2524967927E+02	0.000E+00	0.0
	-5	1	9	9	0	501	-3.3903248350E+01	-6.6155516898E+01	2.5883883492E+02	2.6933436010E+02	4.1800000000E+00	0.000E+00	0.0
	5	1	9	9	501	0	-2.7416402550E+01	-9.4006348644E+00	-5.2697773289E+00	2.9753554708E+01	4.1800000000E+00	0.000E+00	0.0
</event>
<event>
    11  -1  1.0000000E+00  1.0000000E+00  -1.0000000E+00  -1.0000000E+00
	2212	-1	0	0	0	0	0.0000000000E+00	0.0000000000E+00	6.5000000000E+03	6.5000000000E+03	9.3827000000E-01	0.000E+00	0.0
	2212	-1	0	0	0	0	0.0000000000E+00	0.0000000000E+00	-6.5000000000E+03	6.5000000000E+03	9.3827000000E-01	0.000E+00	0.0
	2212	1	0	0	0	0	0.0000000000E+00	0.0000000000E+00	5.5005742868E+03	5.5005742868E+03	9.3827000000E-01	0.000E+00	0.0
	2212	1	0	0	0	0	0.0000000000E+00	0.0000000000E+00	-6.2264792880E+03	6.2264792880E+03	9.3827000000E-01	0.000E+00	0.0
	51	2	1	2	0	0	-5.2413848123E+01	1.2326215503E+02	6.9902235490E+02	1.2649219555E+03	1.0456837622E+03	0.000E+00	0.0
	1000022	2	5	5	0	0	5.2413848123E+01	-1.2326215503E+02	6.3030629132E+02	1.0661876874E+03	8.4942886315E+02	0.000E+00	0.0
	14	1	6	6	0	0	2.8175527319E+02	-1.3345370137E+02	2.4676776084E+02	5.1353213353E+02	3.2500000000E+02	0.000E+00	0.0
	-14	1	6	6	0	0	-2.2934142506E+02	1.0191546337E+01	3.8353853048E+02	5.5265555388E+02	3.2500000000E+02	0.000E+00	0.0
	25	2	5	5	0	0	-5.2413848123E+01	1.2326215503E+02	9.5598709842E+01	2.0675873775E+02	1.2517704253E+02	0.000E+00	0.0
	-5	1	9	9	0	501	-4.8135667731E+01	5.4014375249E+01	1.1379343641E+02	1.3491113301E+02	4.1800000000E+00	0.000E+00	0.0
	5	1	9	9	501	0	-4.2781803915E+00	6.9247779780E+01	-1.8194726566E+01	7.1847604739E+01	4.1800000000E+00	0.000E+00	0.0
</event>
<event>
    11  -1  1.0000000E+00  1.0000000E+00  -1.0000000E+00  -1.0000000E+00
	2212	-1	0	0	0	0	0.0000000000E+00	0.0000000000E+00	6.5000000000E+03	6.5000000000E+03	9.3827000000E-01	0.000E+00	0.0
	2212	-1	0	0	0	0	0.0000000000E+00	0.0000000000E+00	-6.5000000000E+03	6.5000000000E+03	9.3827000000E-01	0.000E+00	0.0
	2212	1	0	0	0	0	0.0000000000E+00	0.0000000000E+00	5.4544675148E+03	5.4544675148E+03	9.3827000000E-01	0.000E+00	0.0
	2212	1	0	0	0	0	0.0000000000E+00	0.0000000000E+00	-6.2385093963E+03	6.2385093963E+03	9.3827000000E-01	0.000E+00	0.0
	51	2	1	2	0	0	-6.1184862409E+01	3.0105759775E+01	6.6860063579E+02	1.2430866572E+03	1.0457474279E+03	0.000E+00	0.0
	1000022	2	5	5	0	0	6.1184862409E+01	-3.0105759775E+01	7.7546570999E+02	1.1642184884E+03	8.6568335855E+02	0.000E+00	0.0
	14	1	6	6	0	0	1.3440828274E+02	-2.2649344653E+02	1.8273993969E+02	4.5649069360E+02	3.2500000000E+02	0.000E+00	0.0
	-14	1	6	6	0	0	-7.3223420331E+01	1.9638768675E+02	5.9272577030E+02	7.0772779483E+02	3.2500000000E+02	0.000E+00	0.0
	25	2	5	5	0	0	-6.1184862409E+01	3.0105759775E+01	8.5761715666E+00	1.4280460046E+02	1.2517850868E+02	0.000E+00	0.0
	-5	1	9	9	0	501	1.4488915302E+01	2.6703067856E+01	4.8265802777E+01	5.7184286454E+01	4.1800000000E+00	0.000E+00	0.0
	5	1	9	9	501	0	-7.5673777711E+01	3.4026919183E+00	-3.9689631211E+01	8.5620314009E+01	4.1800000000E+00	0.000E+00	0.0
</event>
<event>
    11  -1  1.0000000E+00  1.0000000E+00  -1.0000000E+00  -1.0000000E+00
	2212	-1	0	0	0	0	0.0000000000E+00	0.0000000000E+00	6.5000000000E+03	6.5000000000E+03	9.3827000000E-01	0.000E+00	0.0
	2212	-1	0	0	0	0	0.0000000000E+00	0.0000000000E+00	-6.5000000000E+03	6.5000000000E+03	9.3827000000E-01	0.000E+00	0.0
	2212	1	0	0	0	0	0.0000000000E+00	0.0000000000E+00	6.3023747076E+03	6.3023747076E+03	9.3827000000E-01	0.000E+00	0.0
	2212	1	0	0	0	0	0.0000000000E+00	0.0000000000E+00	-5.1158153285E+03	5.1158153285E+03	9.3827000000E-01	0.000E+00	0.0
	51	2	1	2	0	0	-2.6845340133E+01	-6.3700671009E+01	-1.3710226138E+03	1.7258855863E+03	1.0460399618E+03	0.000E+00	0.0
	1000022	2	5	5	0	0	2.6845340133E+01	6.3700671009E+01	-8.0335624539E+02	1.1727928998E+03	8.5163576785E+02	0.000E+00	0.0
	14	1	6	6	0	0	-7.9248966442E+01	-3.8105077792E+01	-7.3658085866E+02	8.0988194015E+02	3.2500000000E+02	0.000E+00	0.0
	-14	1	6	6	0	0	1.0609430658E+02	1.0180574880E+02	-6.6775386734E+01	3.6291095967E+02	3.2500000000E+02	0.000E+00	0.0
	25	2	5	5	0	0	-2.6845340133E+01	-6.3700671009E+01	-3.8320313371E+02	4.0901706407E+02	1.2518733659E+02	0.000E+00	0.0
	-5	1	9	9	0	501	2.3293297969E+01	2.9040220724E+01	-9.6560336557E+01	1.0357259843E+02	4.1800000000E+00	0.000E+00	0.0
	5	1	9	9	501	0	-5.0138638103E+01	-9.2740891733E+01	-2.8664279715E+02	3.0544446564E+02	4.1800000000E+00	0.000E+00	0.0
</event>
<event>
    11  -1  1.0000000E+00  1.0000000E+00  -1.0000000E+00  -1.0000000E+00
	2212	-1	0	0	0	0	0.0000000000E+00	0.0000000000E+00	6.5000000000E+03	6.5000000000E+03	9.3827000000E-01	0.000E+00	0.0
	2212	-1	0	0	0	0	0.0000000000E+00	0.0000000000E+00	-6.5000000000E+03	6.5000000000E+03	9.3827000000E-01	0.000E+00	0.0
	2212	1	0	0	0	0	0.0000000000E+00	0.0000000000E+00	5.9419762633E+03	5.9419762633E+03	9.3827000000E-01	0.000E+00	0.0
	2212	1	0	0	0	0	0.0000000000E+00	0.0000000000E+00	-6.0128874324E+03	6.0128874324E+03	9.3827000000E-01	0.000E+00	0.0
	51	2	1	2	0	0	1.7381264527E+01	-1.9954727463E+01	1.9658388193E+02	1.0614268806E+03	1.0427279131E+03	0.000E+00	0.0
	1000022	2	5	5	0	0	-1.7381264527E+01	1.9954727463E+01	-6.6388570687E+01	8.5747881869E+02	8.5449527949E+02	0.000E+00	0.0
	14	1	6	6	0	0	1.4156940698E+02	-1.0707642198E+01	1.9999091818E+02	4.0715834506E+02	3.2500000000E+02	0.000E+00	0.0
	-14	1	6	6	0	0	-1.5895067151E+02	3.0662369661E+01	-2.6637948887E+02	4.5032047363E+02	3.2500000000E+02	0.000E+00	0.0
	25	2	5	5	0	0	1.7381264527E+01	-1.9954727463E+01	1.3729973974E+02	1.8765748565E+02	1.2515515924E+02	0.000E+00	0.0
	-5	1	9	9	0	501	5.4111596088E+01	1.2429331685E+01	1.2523245600E+02	1.3705179150E+02	4.1800000000E+00	0.000E+00	0.0
	5	1	9	9	501	0	-3.6730331560E+01	-3.2384059148E+01	1.2067283736E+01	5.0605694148E+01	4.1800000000E+00	0.000E+00	0.0
</event>
<event>
    11  -1  1.0000000E+00  1.0000000E+00  -1.0000000E+00  -1.0000000E+00
	2212	-1	0	0	0	0	0.0000000000E+00	0.0000000000E+00	6.5000000000E+03	6.5000000000E+03	9.3827000000E-01	0.000E+00	0.0
	2212	-1	0	0	0	0	0.0000000000E+00	0.0000000000E+00	-6.5000000000E+03	6.5000000000E+03	9.3827000000E-01	0.000E+00	0.0
	2212	1	0	0	0	0	0.0000000000E+00	0.0000000000E+00	6.2867319808E+03	6.2867319808E+03	9.3827000000E-01	0.000E+00	0.0
	2212	1	0	0	0	0	0.0000000000E+00	0.0000000000E+00	-5.2132774219E+03	5.2132774219E+03	9.3827000000E-01	0.000E+00	0.0
	51	2	1	2	0	0	-6.5425242416E+01	-1.1041430395E+02	-9.8002788996E+02	1.4403449407E+03	1.0476960925E+03	0.000E+00	0.0
	1000022	2	5	5	0	0	6.5425242416E+01	1.1041430395E+02	-9.7926986195E+02	1.2974777096E+03	8.4143161544E+02	0.000E+00	0.0
	14	1	6	6	0	0	6.2340303665E+01	2.6382397714E+02	-7.7772888899E+02	8.8542454740E+02	3.2500000000E+02	0.000E+00	0.0
	-14	1	6	6	0	0	3.0849387506E+00	-1.5340967319E+02	-2.0154097296E+02	4.1205316217E+02	3.2500000000E+02	0.000E+00	0.0
	25	2	5	5	0	0	-6.5425242416E+01	-1.1041430395E+02	-9.4184696895E+01	2.0251288775E+02	1.2517560350E+02	0.000E+00	0.0
	-5	1	9	9	0	501	3.7430819737E+01	-3.3487798789E+01	-2.0754090205E+01	5.4504161255E+01	4.1800000000E+00	0.000E+00	0.0
	5	1	9	9	501	0	-1.0285606215E+02	-7.6926505166E+01	-7.3430606690E+01	1.4800872649E+02	4.1800000000E+00	0.000E+00	0.0
</event>
<event>
    11  -1  1.0000000E+00  1.0000000E+00  -1.0000000E+00  -1.0000000E+00
	2212	-1	0	0	0	0	0.0000000000E+00	0.0000000000E+00	6.5000000000E+03	6.5000000000E+03	9.3827000000E-01	0.000E+00	0.0
	2212	-1	0	0	0	0	0.0000000000E+00	0.0000000000E+00	-6.5000000000E+03	6.5000000000E+03	9.3827000000E-01	0.000E+00	0.0
	2212	1	0	0	0	0	0.0000000000E+00	0.0000000000E+00	6.1715005014E+03	6.1715005014E+03	9.3827000000E-01	0.000E+00	0.0
	2212	1	0	0	0	0	0.0000000000E+00	0.0000000000E+00	-5.6638813588E+03	5.6638813588E+03	9.3827000000E-01	0.000E+00	0.0
	51	2	1	2	0	0	-5.9401038595E+01	-6.5651567798E+01	-6.3686319388E+02	1.2296713208E+03	1.0481689834E+03	0.000E+00	0.0
	1000022	2	5	5	0	0	5.9401038595E+01	6.5651567798E+01	-2.9109706315E+02	8.9932512127E+02	8.4629165294E+02	0.000E+00	0.0
	14	1	6	6	0	0	-8.1808527623E+01	-2.0798120585E+02	-2.0081946879E+02	4.4260849091E+02	3.2500000000E+02	0.000E+00	0.0
	-14	1	6	6	0	0	1.4120956622E+02	2.7363277365E+02	-9.0277594355E+01	4.5671663036E+02	3.2500000000E+02	0.000E+00	0.0
	25	2	5	5	0	0	-5.9401038595E+01	-6.5651567798E+01	-2.1652207938E+02	2.6529301856E+02	1.2513977424E+02	0.000E+00	0.0
	-5	1	9	9	0	501	-8.9993459389E+01	-7.0908508730E+01	-1.9829947498E+02	2.2905674738E+02	4.1800000000E+00	0.000E+00	0.0
	5	1	9	9	501	0	3.0592420794E+01	5.2569409319E+00	-1.8222604402E+01	3.6236271182E+01	4.1800000000E+00	0.000E+00	0.0
</event>
<event>
    11  -1  1.0000000E+00  1.0000000E+00  -1.0000000E+00  -1.0000000E+00
	2212	-1	0	0	0	0	0.0000000000E+00	0.0000000000E+00	6.5000000000E+03	6.5000000000E+03	9.3827000000E-01	0.000E+00	0.0
	2212	-1	0	0	0	0	0.0000000000E+00	0.0000000000E+00	-6.5000000000E+03	6.5000000000E+03	9.3827000000E-01	0.000E+00	0.0
	2212	1	0	0	0	0	0.0000000000E+00	0.0000000000E+00	6.2687996412E+03	6.2687996412E+03	9.3827000000E-01	0.000E+00	0.0
	2212	1	0	0	0	0	0.0000000000E+00	0.0000000000E+00	-5.3003485585E+03	5.3003485585E+03	9.3827000000E-01	0.000E+00	0.0
	51	2	1	2	0	0	1.1505321044E+02	4.8647139413E+00	-1.1212692625E+03	1.5427070495E+03	1.0532992807E+03	0.000E+00	0.0
	1000022	2	5	5	0	0	-1.1505321044E+02	-4.8647139413E+00	-6.4249993257E+02	1.0631987863E+03	8.3924048347E+02	0.000E+00	0.0
	14	1	6	6	0	0	-8.7303417231E+01	-1.1119129821E+02	-6.2643998808E+02	7.1974818521E+02	3.2500000000E+02	0.000E+00	0.0
	-14	1	6	6	0	0	-2.7749793212E+01	1.0632658427E+02	-1.6059944494E+01	3.4345060105E+02	3.2500000000E+02	0.000E+00	0.0
	25	2	5	5	0	0	1.1505321044E+02	4.8647139413E+00	-3.2595115014E+02	3.6765301398E+02	1.2515462332E+02	0.000E+00	0.0
	-5	1	9	9	0	501	6.9732915166E+01	3.2796961709E+01	-6.3837372345E+01	1.0015489335E+02	4.1800000000E+00	0.000E+00	0.0
	5	1	9	9	501	0	4.5320295277E+01	-2.7932247768E+01	-2.6211377779E+02	2.6749812062E+02	4.1800000000E+00	0.000E+00	0.0
</event>
<event>
    11  -1  1.0000000E+00  1.0000000E+00  -1.0000000E+00  -1.0000000E+00
	2212	-1	0	0	0	0	0.0000000000E+00	0.0000000000E+00	6.5000000000E+03	6.5000000000E+03	9.3827000000E-01	0.000E+00	0.0
	2212	-1	0	0	0	0	0.0000000000E+00	0.0000000000E+00	-6.5000000000E+03	6.5000000000E+03	9.3827000000E-01	0.000E+00	0.0
	2212	1	0	0	0	0	0.0000000000E+00	0.0000000000E+00	5.8192760974E+03	5.8192760974E+03	9.3827000000E-01	0.000E+00	0.0
	2212	1	0	0	0	0	0.0000000000E+00	0.0000000000E+00	-6.0970120459E+03	6.0970120459E+03	9.3827000000E-01	0.000E+00	0.0
	51	2	1	2	0	0	1.6882079193E+02	-7.8693608165E+01	2.7493181920E+02	1.0988970744E+03	1.0475180815E+03	0.000E+00	0.0
	1000022	2	5	5	0	0	-1.6882079193E+02	7.8693608165E+01	2.2536201721E+02	8.5322459060E+02	8.0156785080E+02	0.000E+00	0.0
	14	1	6	6	0	0	-3.2211677071E+02	7.4093555862E+01	1.2481726309E+02	4.8005564069E+02	3.2500000000E+02	0.000E+00	0.0
	-14	1	6	6	0	0	1.5329597878E+02	4.6000523028E+00	1.0054475412E+02	3.7316894991E+02	3.2500000000E+02	0.000E+00	0.0
	25	2	5	5	0	0	1.6882079193E+02	-7.8693608165E+01	5.2373931352E+01	2.3048726607E+02	1.2525257436E+02	0.000E+00	0.0
	-5	1	9	9	0	501	8.9109877206E+01	-5.5251646422E+01	-3.4254469754E+01	1.1038186330E+02	4.1800000000E+00	0.000E+00	0.0
	5	1	9	9	501	0	7.9710914722E+01	-2.3441961743E+01	8.6628401106E+01	1.2010540277E+02	4.1800000000E+00	0.000E+00	0.0
</event>
<event>
    11  -1  1.0000000E+00  1.0000000E+00  -1.0000000E+00  -1.0000000E+00
	2212	-1	0	0	0	0	0.0000000000E+00	0.0000000000E+00	6.5000000000E+03	6.5000000000E+03	9.3827000000E-01	0.000E+00	0.0
	2212	-1	0	0	0	0	0.0000000000E+00	0.0000000000E+00	-6.5000000000E+03	6.5000000000E+03	9.3827000000E-01	0.000E+00	0.0
	2212	1	0	0	0	0	0.0000000000E+00	0.0000000000E+00	6.1351911739E+03	6.1351911739E+03	9.3827000000E-01	0.000E+00	0.0
	2212	1	0	0	0	0	0.0000000000E+00	0.0000000000E+00	-5.7680838422E+03	5.7680838422E+03	9.3827000000E-01	0.000E+00	0.0
	51	2	1	2	0	0	-1.5031678258E+02	1.9023946942E+02	-3.8557523587E+02	1.1293769746E+03	1.0334591900E+03	0.000E+00	0.0
	1000022	2	5	5	0	0	1.5031678258E+02	-1.9023946942E+02	-2.6164520739E+02	8.0417969625E+02	7.2073613650E+02	0.000E+00	0.0
	14	1	6	6	0	0	2.9190530230E+01	5.0820007086E+01	-5.8106946025E+01	3.3531504194E+02	3.2500000000E+02	0.000E+00	0.0
	-14	1	6	6	0	0	1.2112625235E+02	-2.4105947651E+02	-2.0353826136E+02	4.6886465431E+02	3.2500000000E+02	0.000E+00	0.0
	25	2	5	5	0	0	-1.5031678258E+02	1.9023946942E+02	-1.0546212436E+02	2.9254528766E+02	1.2519702394E+02	0.000E+00	0.0
	-5	1	9	9	0	501	-1.3318627923E+02	2.0529623682E+02	-1.1094058600E+02	2.6871995804E+02	4.1800000000E+00	0.000E+00	0.0
	5	1	9	9	501	0	-1.7130503349E+01	-1.5056767398E+01	5.4784616345E+00	2.3825329617E+01	4.1800000000E+00	0.000E+00	0.0
</event>
<event>
    11  -1  1.0000000E+00  1.0000000E+00  -1.0000000E+00  -1.0000000E+00
	2212	-1	0	0	0	0	0.0000000000E+00	0.0000000000E+00	6.5000000000E+03	6.5000000000E+03	9.3827000000E-01	0.000E+00	0.0
	2212	-1	0	0	0	0	0.0000000000E+00	0.0000000000E+00	-6.5000000000E+03	6.5000000000E+03	9.3827000000E-01	0.000E+00	0.0
	2212	1	0	0	0	0	0.0000000000E+00	0.0000000000E+00	5.7874890951E+03	5.7874890951E+03	9.3827000000E-01	0.000E+00	0.0
	2212	1	0	0	0	0	0.0000000000E+00	0.0000000000E+00	-6.1149884251E+03	6.1149884251E+03	9.3827000000E-01	0.000E+00	0.0
	51	2	1	2	0	0	1.2484613717E+02	8.1324238559E+01	2.7133836774E+02	1.0923023766E+03	1.0475207790E+03	0.000E+00	0.0
	1000022	2	5	5	0	0	-1.2484613717E+02	-8.1324238559E+01	3.2402137430E+02	9.0287941612E+02	8.2945837708E+02	0.000E+00	0.0
	14	1	6	6	0	0	1.1372743361E+00	-2.8947783167E+02	1.9470748824E+02	4.7679630284E+02	3.2500000000E+02	0.000E+00	0.0
	-14	1	6	6	0	0	-1.2598341151E+02	2.0815359311E+02	1.2931388606E+02	4.2608311329E+02	3.2500000000E+02	0.000E+00	0.0
	25	2	5	5	0	0	1.2484613717E+02	8.1324238559E+01	3.4779557404E+00	1.9464306363E+02	1.2519439404E+02	0.000E+00	0.0
	-5	1	9	9	0	501	1.1081461906E+02	6.1849227893E+01	5.4442100317E+01	1.3815433933E+02	4.1800000000E+00	0.000E+00	0.0
	5	1	9	9	501	0	1.4031518111E+01	1.9475010666E+01	-5.0964144577E+01	5.6488724303E+01	4.1800000000E+00	0.000E+00	0.0
</event>
<event>
    11  -1  1.0000000E+00  1.0000000E+00  -1.0000000E+00  -1.0000000E+00
	2212	-1	0	0	0	0	0.0000000000E+00	0.0000000000E+00	6.5000000000E+03	6.5000000000E+03	9.3827000000E-01	0.000E+00	0.0
	2212	-1	0	0	0	0	0.0000000000E+00	0.0000000000E+00	-6.5000000000E+03	6.5000000000E+03	9.3827000000E-01	0.000E+00	0.0
	2212	1	0	0	0	0	0.0000000000E+00	0.0000000000E+00	6.2438146946E+03	6.2438146946E+03	9.3827000000E-01	0.000E+00	0.0
	2212	1	0	0	0	0	0.0000000000E+00	0.0000000000E+00	-5.4315761802E+03	5.4315761802E+03	9.3827000000E-01	0.000E+00	0.0
	51	2	1	2	0	0	1.0157695090E+01	-1.3136774925E+02	-8.6707989794E+02	1.3653007522E+03	1.0463545910E+03	0.000E+00	0.0
	1000022	2	5	5	0	0	-1.0157695090E+01	1.3136774925E+02	-6.2023476831E+02	1.0602313347E+03	8.4972857485E+02	0.000E+00	0.0
	14	1	6	6	0	0	-5.8038460811E+01	-2.4247691075E+01	1.1667062178E+01	3.3123637149E+02	3.2500000000E+02	0.000E+00	0.0
	-14	1	6	6	0	0	4.7880765721E+01	1.5561544032E+02	-6.3190183049E+02	7.2899496320E+02	3.2500000000E+02	0.000E+00	0.0
	25	2	5	5	0	0	1.0157695090E+01	-1.3136774925E+02	-1.9200374611E+02	2.6437779049E+02	1.2517792645E+02	0.000E+00	0.0
	-5	1	9	9	0	501	-9.0381449238E-01	1.5550120581E+01	6.2848923243E+00	1.7308824404E+01	4.1800000000E+00	0.000E+00	0.0
	5	1	9	9	501	0	1.1061509582E+01	-1.4691786983E+02	-1.9828863844E+02	2.4706896608E+02	4.1800000000E+00	0.000E+00	0.0
</event>
<event>
    11  -1  1.0000000E+00  1.0000000E+00  -1.0000000E+00  -1.0000000E+00
	2212	-1	0	0	0	0	0.0000000000E+00	0.0000000000E+00	6.5000000000E+03	6.5000000000E+03	9.3827000000E-01	0.000E+00	0.0
	2212	-1	0	0	0	0	0.0000000000E+00	0.0000000000E+00	-6.5000000000E+03	6.5000000000E+03	9.3827000000E-01	0.000E+00	0.0
	2212	1	0	0	0	0	0.0000000000E+00	0.0000000000E+00	6.2750360705E+03	6.2750360705E+03	9.3827000000E-01	0.000E+00	0.0
	2212	1	0	0	0	0	0.0000000000E+00	0.0000000000E+00	-5.2726133801E+03	5.2726133801E+03	9.3827000000E-01	0.000E+00	0.0
	51	2	1	2	0	0	-7.2591633002E+01	9.2170422506E+01	-1.1345790195E+03	1.5509691653E+03	1.0509380897E+03	0.000E+00	0.0
	1000022	2	5	5	0	0	7.2591633002E+01	-9.2170422506E+01	-6.9588648345E+02	1.1010833116E+03	8.4519910632E+02	0.000E+00	0.0
	14	1	6	6	0	0	9.2362627146E+01	-1.0550294447E+02	-6.8961563959E+02	7.7514931243E+02	3.2500000000E+02	0.000E+00	0.0
	-14	1	6	6	0	0	-1.9770994144E+01	1.3332521968E+01	-6.2708438582E+00	3.2593399920E+02	3.2500000000E+02	0.000E+00	0.0
	25	2	5	5	0	0	-7.2591633002E+01	9.2170422506E+01	-3.0653620694E+02	3.5126723783E+02	1.2513710176E+02	0.000E+00	0.0
	-5	1	9	9	0	501	-4.1038503982E+01	5.9679084724E+01	-2.9575546194E+02	3.0452342706E+02	4.1800000000E+00	0.000E+00	0.0
	5	1	9	9	501	0	-3.1553129020E+01	3.2491337782E+01	-1.0780745003E+01	4.6743810763E+01	4.1800000000E+00	0.000E+00	0.0
</event>
<event>
    11  -1  1.0000000E+00  1.0000000E+00  -1.0000000E+00  -1.0000000E+00
	2212	-1	0	0	0	0	0.0000000000E+00	0.0000000000E+00	6.5000000000E+03	6.5000000000E+03	9.3827000000E-01	0.000E+00	0.0
	2212	-1	0	0	0	0	0.0000000000E+00	0.0000000000E+00	-6.5000000000E+03	6.5000000000E+03	9.3827000000E-01	0.000E+00	0.0
	2212	1	0	0	0	0	0.0000000000E+00	0.0000000000E+00	6.0100831892E+03	6.0100831892E+03	9.3827000000E-01	0.000E+00	0.0
	2212	1	0	0	0	0	0.0000000000E+00	0.0000000000E+00	-5.9347662236E+03	5.9347662236E+03	9.3827000000E-01	0.000E+00	0.0
	51	2	1	2	0	0	9.2188485195E+00	-1.5016001462E+02	-5.0333705639E+01	1.0643479766E+03	1.0524590805E+03	0.000E+00	0.0
	1000022	2	5	5	0	0	-9.2188485195E+00	1.5016001462E+02	-8.6961955938E+01	8.5909114242E+02	8.4133357953E+02	0.000E+00	0.0
	14	1	6	6	0	0	7.0978453112E+01	-2.7593098153E+01	1.9510095854E+02	3.8663769073E+02	3.2500000000E+02	0.000E+00	0.0
	-14	1	6	6	0	0	-8.0197301631E+01	1.7775311277E+02	-2.8206291448E+02	4.7245345169E+02	3.2500000000E+02	0.000E+00	0.0
	25	2	5	5	0	0	9.2188485195E+00	-1.5016001462E+02	1.1644990358E+01	1.9605944470E+02	1.2518259822E+02	0.000E+00	0.0
	-5	1	9	9	0	501	1.1494856798E+01	-1.2599036992E+02	6.1288990064E+01	1.4063967345E+02	4.1800000000E+00	0.000E+00	0.0
	5	1	9	9	501	0	-2.2760082781E+00	-2.4169644699E+01	-4.9643999706E+01	5.5419771249E+01	4.1800000000E+00	0.000E+00	0.0
</event>
<event>
    11  -1  1.0000000E+00  1.0000000E+00  -1.0000000E+00  -1.0000000E+00
	2212	-1	0	0	0	0	0.0000000000E+00	0.0000000000E+00	6.5000000000E+03	6.5000000000E+03	9.3827000000E-01	0.000E+00	0.0
	2212	-1	0	0	0	0	0.0000000000E+00	0.0000000000E+00	-6.5000000000E+03	6.5000000000E+03	9.3827000000E-01	0.000E+00	0.0
	2212	1	0	0	0	0	0.0000000000E+00	0.0000000000E+00	5.9250288880E+03	5.9250288880E+03	9.3827000000E-01	0.000E+00	0.0
	2212	1	0	0	0	0	0.0000000000E+00	0.0000000000E+00	-5.9957379973E+03	5.9957379973E+03	9.3827000000E-01	0.000E+00	0.0
	51	2	1	2	0	0	1.3996787691E+02	8.4191196051E+01	1.6065939477E+02	1.1010154145E+03	1.0769142666E+03	0.000E+00	0.0
	1000022	2	5	5	0	0	-1.3996787691E+02	-8.4191196051E+01	-3.2909681691E+01	8.4882841895E+02	8.3231452805E+02	0.000E+00	0.0
	14	1	6	6	0	0	6.6586299853E+01	-2.6104626737E+02	1.4771722436E+01	4.2240039396E+02	3.2500000000E+02	0.000E+00	0.0
	-14	1	6	6	0	0	-2.0655417676E+02	1.7685507132E+02	-4.7681404127E+01	4.2642802498E+02	3.2500000000E+02	0.000E+00	0.0
	25	2	5	5	0	0	1.3996787691E+02	8.4191196051E+01	1.0361879100E+02	2.3040469573E+02	1.2518109246E+02	0.000E+00	0.0
	-5	1	9	9	0	501	3.7524942922E+01	-5.4114120258E+00	-2.2938058945E+01	4.4508781938E+01	4.1800000000E+00	0.000E+00	0.0
	5	1	9	9	501	0	1.0244293399E+02	8.9602608077E+01	1.2655684994E+02	1.8589591380E+02	4.1800000000E+00	0.000E+00	0.0
</event>
<event>
    11  -1  1.0000000E+00  1.0000000E+00  -1.0000000E+00  -1.0000000E+00
	2212	-1	0	0	0	0	0.0000000000E+00	0.0000000000E+00	6.5000000000E+03	6.5000000000E+03	9.3827000000E-01	0.000E+00	0.0
	2212	-1	0	0	0	0	0.0000000000E+00	0.0000000000E+00	-6.5000000000E+03	6.5000000000E+03	9.3827000000E-01	0.000E+00	0.0
	2212	1	0	0	0	0	0.0000000000E+00	0.0000000000E+00	5.6449154418E+03	5.6449154418E+03	9.3827000000E-01	0.000E+00	0.0
	2212	1	0	0	0	0	0.0000000000E+00	0.0000000000E+00	-6.1731278699E+03	6.1731278699E+03	9.3827000000E-01	0.000E+00	0.0
	51	2	1	2	0	0	1.1510186093E+02	-8.3083172239E+01	6.0124576204E+02	1.2246064520E+03	1.0573614538E+03	0.000E+00	0.0
	1000022	2	5	5	0	0	-1.1510186093E+02	8.3083172239E+01	3.6153322578E+02	9.2975986647E+02	8.4474604709E+02	0.000E+00	0.0
	14	1	6	6	0	0	1.4919561006E+02	1.0116424462E+02	-6.7346551148E+00	3.7170403553E+02	3.2500000000E+02	0.000E+00	0.0
	-14	1	6	6	0	0	-2.6429747099E+02	-1.8081072385E+01	3.6826788089E+02	5.5805583094E+02	3.2500000000E+02	0.000E+00	0.0
	25	2	5	5	0	0	1.1510186093E+02	-8.3083172239E+01	1.6667920232E+02	2.5219682192E+02	1.2517998483E+02	0.000E+00	0.0
	-5	1	9	9	0	501	7.3347250364E+01	1.4233414199E+01	1.0699632948E+02	1.3056835810E+02	4.1800000000E+00	0.000E+00	0.0
	5	1	9	9	501	0	4.1754610569E+01	-9.7316586439E+01	5.9682872836E+01	1.2162846381E+02	4.1800000000E+00	0.000E+00	0.0
</event>
<event>
    11  -1  1.0000000E+00  1.0000000E+00  -1.0000000E+00  -1.0000000E+00
	2212	-1	0	0	0	0	0.0000000000E+00	0.0000000000E+00	6.5000000000E+03	6.5000000000E+03	9.3827000000E-01	0.000E+00	0.0
	2212	-1	0	0	0	0	0.0000000000E+00	0.0000000000E+00	-6.5000000000E+03	6.5000000000E+03	9.3827000000E-01	0.000E+00	0.0
	2212	1	0	0	0	0	0.0000000000E+00	0.0000000000E+00	6.2895034476E+03	6.2895034476E+03	9.3827000000E-01	0.000E+00	0.0
	2212	1	0	0	0	0	0.0000000000E+00	0.0000000000E+00	-5.1835190578E+03	5.1835190578E+03	9.3827000000E-01	0.000E+00	0.0
	51	2	1	2	0	0	-1.3184455221E+02	2.4304583649E+01	-1.0700336661E+03	1.5071179595E+03	1.0528336994E+03	0.000E+00	0.0
	1000022	2	5	5	0	0	1.3184455221E+02	-2.4304583649E+01	-9.5590610392E+02	1.2899960530E+03	8.5578013440E+02	0.000E+00	0.0
	14	1	6	6	0	0	-1.4523885605E+02	1.2085121543E+02	-2.4722991221E+02	4.4994107510E+02	3.2500000000E+02	0.000E+00	0.0
	-14	1	6	6	0	0	2.7708340826E+02	-1.4515579908E+02	-7.0867619172E+02	8.4005497787E+02	3.2500000000E+02	0.000E+00	0.0
	25	2	5	5	0	0	-1.3184455221E+02	2.4304583649E+01	-1.5007828586E+02	2.3698144163E+02	1.2515195987E+02	0.000E+00	0.0
	-5	1	9	9	0	501	-5.6959624523E+00	-4.0758260714E+01	-3.1892236662E+01	5.2232815011E+01	4.1800000000E+00	0.000E+00	0.0
	5	1	9	9	501	0	-1.2614858975E+02	6.5062844363E+01	-1.1818604920E+02	1.8474862662E+02	4.1800000000E+00	0.000E+00	0.0
</event>
<event>
    11  -1  1.0000000E+00  1.0000000E+00  -1.0000000E+00  -1.0000000E+00
	2212	-1	0	0	0	0	0.0000000000E+00	0.0000000000E+00	6.5000000000E+03	6.5000000000E+03	9.3827000000E-01	0.000E+00	0.0
	2212	-1	0	0	0	0	0.0000000000E+00	0.0000000000E+00	-6.5000000000E+03	6.5000000000E+03	9.3827000000E-01	0.000E+00	0.0
	2212	1	0	0	0	0	0.0000000000E+00	0.0000000000E+00	6.3269189867E+03	6.3269189867E+03	9.3827000000E-01	0.000E+00	0.0
	2212	1	0	0	0	0	0.0000000000E+00	0.0000000000E+00	-4.9088189873E+03	4.9088189873E+03	9.3827000000E-01	0.000E+00	0.0
	51	2	1	2	0	0	-6.7253001522E+01	-1.0082753716E+02	-1.5288978207E+03	1.8584484368E+03	1.0495774806E+03	0.000E+00	0.0
	1000022	2	5	5	0	0	6.7253001522E+01	1.0082753716E+02	-1.0704301732E+03	1.3753825161E+03	8.5508312552E+02	0.000E+00	0.0
	14	1	6	6	0	0	3.1082407744E+02	7.9581662463E+01	-5.5009927246E+02	7.1496787178E+02	3.2500000000E+02	0.000E+00	0.0
	-14	1	6	6	0	0	-2.4357107592E+02	2.1245874699E+01	-5.2033090071E+02	6.6041464434E+02	3.2500000000E+02	0.000E+00	0.0
	25	2	5	5	0	0	-6.7253001522E+01	-1.0082753716E+02	-3.4766982626E+02	3.8887950982E+02	1.2515513016E+02	0.000E+00	0.0
	-5	1	9	9	0	501	-6.2575701611E+01	-1.1808964907E+02	-2.0319406723E+02	2.4324100190E+02	4.1800000000E+00	0.000E+00	0.0
	5	1	9	9	501	0	-4.6772999104E+00	1.7262111910E+01	-1.4447575903E+02	1.4563850792E+02	4.1800000000E+00	0.000E+00	0.0
</event>
<event>
    11  -1  1.0000000E+00  1.0000000E+00  -1.0000000E+00  -1.0000000E+00
	2212	-1	0	0	0	0	0.0000000000E+00	0.0000000000E+00	6.5000000000E+03	6.5000000000E+03	9.3827000000E-01	0.000E+00	0.0
	2212	-1	0	0	0	0	0.0000000000E+00	0.0000000000E+00	-6.5000000000E+03	6.5000000000E+03	9.3827000000E-01	0.000E+00	0.0
	2212	1	0	0	0	0	0.0000000000E+00	0.0000000000E+00	4.9810558876E+03	4.9810558876E+03	9.3827000000E-01	0.000E+00	0.0
	2212	1	0	0	0	0	0.0000000000E+00	0.0000000000E+00	-6.3180811128E+03	6.3180811128E+03	9.3827000000E-01	0.000E+00	0.0
	51	2	1	2	0	0	9.8320999987E+00	1.0887068470E+02	1.5074400438E+03	1.8410930103E+03	1.0513317701E+03	0.000E+00	0.0
	1000022	2	5	5	0	0	-9.8320999987E+00	-1.0887068470E+02	9.3456220453E+02	1.2654387073E+03	8.4615548903E+02	0.000E+00	0.0
	14	1	6	6	0	0	-1.5961974124E+02	-1.4082215522E+01	7.8793263159E+02	8.6725982411E+02	3.2500000000E+02	0.000E+00	0.0
	-14	1	6	6	0	0	1.4978764124E+02	-9.4788469174E+01	1.4662957294E+02	3.9817888319E+02	3.2500000000E+02	0.000E+00	0.0
	25	2	5	5	0	0	9.8320999987E+00	1.0887068470E+02	4.0246302064E+02	4.3542429232E+02	1.2517322074E+02	0.000E+00	0.0
	-5	1	9	9	0	501	-1.1517956106E+01	4.8934107752E+00	-5.1747194147E+00	1.4172469894E+01	4.1800000000E+00	0.000E+00	0.0
	5	1	9	9	501	0	2.1350056104E+01	1.0397727392E+02	4.0763774005E+02	4.2125182243E+02	4.1800000000E+00	0.000E+00	0.0
</event>
<event>
    11  -1  1.0000000E+00  1.0000000E+00  -1.0000000E+00  -1.0000000E+00
	2212	-1	0	0	0	0	0.0000000000E+00	0.0000000000E+00	6.5000000000E+03	6.5000000000E+03	9.3827000000E-01	0.000E+00	0.0
	2212	-1	0	0	0	0	0.0000000000E+00	0.0000000000E+00	-6.5000000000E+03	6.5000000000E+03	9.3827000000E-01	0.000E+00	0.0
	2212	1	0	0	0	0	0.0000000000E+00	0.0000000000E+00	5.4311795118E+03	5.4311795118E+03	9.3827000000E-01	0.000E+00	0.0
	2212	1	0	0	0	0	0.0000000000E+00	0.0000000000E+00	-6.2418433907E+03	6.2418433907E+03	9.3827000000E-01	0.000E+00	0.0
	51	2	1	2	0	0	-1.2210755105E+02	-2.0528812765E+01	7.5218452512E+02	1.2980005927E+03	1.0505676050E+03	0.000E+00	0.0
	1000022	2	5	5	0	0	1.2210755105E+02	2.0528812765E+01	7.3415686626E+02	1.1349941869E+03	8.5667602614E+02	0.000E+00	0.0
	14	1	6	6	0	0	2.8931576738E+02	-1.3748754573E+02	3.0116241827E+02	5.4674513319E+02	3.2500000000E+02	0.000E+00	0.0
	-14	1	6	6	0	0	-1.6720821633E+02	1.5801635850E+02	4.3299444800E+02	5.8824905368E+02	3.2500000000E+02	0.000E+00	0.0
	25	2	5	5	0	0	-1.2210755105E+02	-2.0528812765E+01	7.6507012655E+01	1.9198291060E+02	1.2518957145E+02	0.000E+00	0.0
	-5	1	9	9	0	501	-9.7833199976E+01	-5.8371260224E+01	1.3975604996E+01	1.1485351093E+02	4.1800000000E+00	0.000E+00	0.0
	5	1	9	9	501	0	-2.4274351074E+01	3.7842447460E+01	6.2531407660E+01	7.7129399672E+01	4.1800000000E+00	0.000E+00	0.0
</event>
<event>
    11  -1  1.0000000E+00  1.0000000E+00  -1.0000000E+00  -1.0000000E+00
	2212	-1	0	0	0	0	0.0000000000E+00	0.0000000000E+00	6.5000000000E+03	6.5000000000E+03	9.3827000000E-01	0.000E+00	0.0
	2212	-1	0	0	0	0	0.0000000000E+00	0.0000000000E+00	-6.5000000000E+03	6.5000000000E+03	9.3827000000E-01	0.000E+00	0.0
	2212	1	0	0	0	0	0.0000000000E+00	0.0000000000E+00	6.1468656300E+03	6.1468656300E+03	9.3827000000E-01	0.000E+00	0.0
	2212	1	0	0	0	0	0.0000000000E+00	0.0000000000E+00	-5.7245668410E+03	5.7245668410E+03	9.3827000000E-01	0.000E+00	0.0
	51	2	1	2	0	0	-1.5835120968E+00	-6.4409760050E+01	-5.5738561238E+02	1.1875008404E+03	1.0465793809E+03	0.000E+00	0.0
	1000022	2	5	5	0	0	1.5835120968E+00	6.4409760050E+01	-2.1571744676E+02	8.7856951506E+02	8.4923450899E+02	0.000E+00	0.0
	14	1	6	6	0	0	-1.1889984053E+02	-2.0656398240E+02	-4.0715347092E+01	4.0507849905E+02	3.2500000000E+02	0.000E+00	0.0
	-14	1	6	6	0	0	1.2048335263E+02	2.7097374245E+02	-1.7500209967E+02	4.7349101601E+02	3.2500000000E+02	0.000E+00	0.0
	25	2	5	5	0	0	-1.5835120968E+00	-6.4409760050E+01	-2.0658134227E+02	2.4999801402E+02	1.2518798400E+02	0.000E+00	0.0
	-5	1	9	9	0	501	4.6811048181E+01	-7.1018101750E+01	-9.1969877750E+01	1.2534263369E+02	4.1800000000E+00	0.000E+00	0.0
	5	1	9	9	501	0	-4.8394560278E+01	6.6083417000E+00	-1.1461146452E+02	1.2465538032E+02	4.1800000000E+00	0.000E+00	0.0
</event>
<event>
    11  -1  1.0000000E+00  1.0000000E+00  -1.0000000E+00  -1.0000000E+00
	2212	-1	0	0	0	0	0.0000000000E+00	0.0000000000E+00	6.5000000000E+03	6.5000000000E+03	9.3827000000E-01	0.000E+00	0.0
	2212	-1	0	0	0	0	0.0000000000E+00	0.0000000000E+00	-6.5000000000E+03	6.5000000000E+03	9.3827000000E-01	0.000E+00	0.0
	2212	1	0	0	0	0	0.0000000000E+00	0.0000000000E+00	5.8957490180E+03	5.8957490180E+03	9.3827000000E-01	0.000E+00	0.0
	2212	1	0	0	0	0	0.0000000000E+00	0.0000000000E+00	-6.0251777623E+03	6.0251777623E+03	9.3827000000E-01	0.000E+00	0.0
	51	2	1	2	0	0	-2.7635565668E+01	-1.3116528048E+02	2.0644530164E+02	1.0991974033E+03	1.0712829755E+03	0.000E+00	0.0
	1000022	2	5	5	0	0	2.7635565668E+01	1.3116528048E+02	2.9791964220E+01	8.7035973354E+02	8.5945939366E+02	0.000E+00	0.0
	14	1	6	6	0	0	-2.2424337107E+02	1.6792388746E+02	-9.4249838996E+01	4.3930803953E+02	3.2500000000E+02	0.000E+00	0.0
	-14	1	6	6	0	0	2.5187893674E+02	-3.6758606985E+01	1.2404180322E+02	4.3105169401E+02	3.2500000000E+02	0.000E+00	0.0
	25	2	5	5	0	0	-2.7635565668E+01	-1.3116528048E+02	9.9636780096E+01	2.0871348616E+02	1.2516299799E+02	0.000E+00	0.0
	-5	1	9	9	0	501	9.5410410854E-01	-1.3541958164E+02	1.1316155456E+02	1.7652870372E+02	4.1800000000E+00	0.000E+00	0.0
	5	1	9	9	501	0	-2.8589669777E+01	4.2543011672E+00	-1.3524774464E+01	3.2184782439E+01	4.1800000000E+00	0.000E+00	0.0
</event>
<event>
    11  -1  1.0000000E+00  1.0000000E+00  -1.0000000E+00  -1.0000000E+00
	2212	-1	0	0	0	0	0.0000000000E+00	0.0000000000E+00	6.5000000000E+03	6.5000000000E+03	9.3827000000E-01	0.000E+00	0.0
	2212	-1	0	0	0	0	0.0000000000E+00	0.0000000000E+00	-6.5000000000E+03	6.5000000000E+03	9.3827000000E-01	0.000E+00	0.0
	2212	1	0	0	0	0	0.0000000000E+00	0.0000000000E+00	5.9773892421E+03	5.9773892421E+03	9.3827000000E-01	0.000E+00	0.0
	2212	1	0	0	0	0	0.0000000000E+00	0.0000000000E+00	-5.9814332981E+03	5.9814332981E+03	9.3827000000E-01	0.000E+00	0.0
	51	2	1	2	0	0	7.6788757654E+01	-3.4582098977E+01	1.2844214525E+02	1.0524371563E+03	1.0411696060E+03	0.000E+00	0.0
	1000022	2	5	5	0	0	-7.6788757654E+01	3.4582098977E+01	-1.2107157941E+02	8.4517928065E+02	8.3221226513E+02	0.000E+00	0.0
	14	1	6	6	0	0	1.9549417333E+02	8.7436142474E+01	-1.4956823395E+02	4.1696367638E+02	3.2500000000E+02	0.000E+00	0.0
	-14	1	6	6	0	0	-2.7228293098E+02	-5.2854043497E+01	2.8496654545E+01	4.2821560427E+02	3.2500000000E+02	0.000E+00	0.0
	25	2	5	5	0	0	7.6788757654E+01	-3.4582098977E+01	1.2511563534E+02	1.9599817913E+02	1.2517559323E+02	0.000E+00	0.0
	-5	1	9	9	0	501	5.0081595453E+01	-6.2335402714E+01	1.7969088307E+01	8.2062349279E+01	4.1800000000E+00	0.000E+00	0.0
	5	1	9	9	501	0	2.6707162201E+01	2.7753303737E+01	1.0714654704E+02	1.1393582985E+02	4.1800000000E+00	0.000E+00	0.0
</event>
<event>
    11  -1  1.0000000E+00  1.0000000E+00  -1.0000000E+00  -1.0000000E+00
	2212	-1	0	0	0	0	0.0000000000E+00	0.0000000000E+00	6.5000000000E+03	6.5000000000E+03	9.3827000000E-01	0.000E+00	0.0
	2212	-1	0	0	0	0	0.0000000000E+00	0.0000000000E+00	-6.5000000000E+03	6.5000000000E+03	9.3827000000E-01	0.000E+00	0.0
	2212	1	0	0	0	0	0.0000000000E+00	0.0000000000E+00	5.7230232734E+03	5.7230232734E+03	9.3827000000E-01	0.000E+00	0.0
	2212	1	0	0	0	0	0.0000000000E+00	0.0000000000E+00	-6.1382887739E+03	6.1382887739E+03	9.3827000000E-01	0.000E+00	0.0
	51	2	1	2	0	0	-6.9945647918E+01	1.2444972585E+02	4.9044181704E+02	1.1768934197E+03	1.0602663899E+03	0.000E+00	0.0
	1000022	2	5	5	0	0	6.9945647918E+01	-1.2444972585E+02	2.6596158564E+02	8.9721926443E+02	8.4491817089E+02	0.000E+00	0.0
	14	1	6	6	0	0	1.1056735304E+02	-1.6653735735E+02	-1.0973764621E+02	3.9702289852E+02	3.2500000000E+02	0.000E+00	0.0
	-14	1	6	6	0	0	-4.0621705127E+01	4.2087631499E+01	3.7569923185E+02	5.0019636591E+02	3.2500000000E+02	0.000E+00	0.0
	25	2	5	5	0	0	-6.9945647918E+01	1.2444972585E+02	1.4930391491E+02	2.4146868823E+02	1.2504135499E+02	0.000E+00	0.0
	-5	1	9	9	0	501	-4.7416962307E+01	-1.7995945984E+00	4.2746721782E+00	4.7826269741E+01	4.1800000000E+00	0.000E+00	0.0
	5	1	9	9	501	0	-2.2528685612E+01	1.2624932045E+02	1.4502924273E+02	1.9364241848E+02	4.1800000000E+00	0.000E+00	0.0
</event>
<event>
    11  -1  1.0000000E+00  1.0000000E+00  -1.0000000E+00  -1.0000000E+00
	2212	-1	0	0	0	0	0.0000000000E+00	0.0000000000E+00	6.5000000000E+03	6.5000000000E+03	9.3827000000E-01	0.000E+00	0.0
	2212	-1	0	0	0	0	0.0000000000E+00	0.0000000000E+00	-6.5000000000E+03	6.5000000000E+03	9.3827000000E-01	0.000E+00	0.0
	2212	1	0	0	0	0	0.0000000000E+00	0.0000000000E+00	4.9820749651E+03	4.9820749651E+03	9.3827000000E-01	0.000E+00	0.0
	2212	1	0	0	0	0	0.0000000000E+00	0.0000000000E+00	-6.3162473928E+03	6.3162473928E+03	9.3827000000E-01	0.000E+00	0.0
	51	2	1	2	0	0	3.7829695161E+01	-1.4172521923E+02	1.3536510760E+03	1.7232466713E+03	1.0562626240E+03	0.000E+00	0.0
	1000022	2	5	5	0	0	-3.7829695161E+01	1.4172521923E+02	1.0838632506E+03	1.3856945315E+03	8.5080706677E+02	0.000E+00	0.0
	14	1	6	6	0	0	-1.7206021546E+02	5.3980021488E+01	1.8221888085E+02	4.1394115645E+02	3.2500000000E+02	0.000E+00	0.0
	-14	1	6	6	0	0	1.3423052030E+02	8.7745197744E+01	9.0164436976E+02	9.7175337500E+02	3.2500000000E+02	0.000E+00	0.0
	25	2	5	5	0	0	3.7829695161E+01	-1.4172521923E+02	2.5030917704E+02	3.1598311061E+02	1.2519392349E+02	0.000E+00	0.0
	-5	1	9	9	0	501	6.7845150578E+01	-2.8774698421E+01	1.2007555255E+02	1.4094877952E+02	4.1800000000E+00	0.000E+00	0.0
	5	1	9	9	501	0	-3.0015455416E+01	-1.1295052081E+02	1.3023362449E+02	1.7503433110E+02	4.1800000000E+00	0.000E+00	0.0
</event>
<event>
    11  -1  1.0000000E+00  1.0000000E+00  -1.0000000E+00  -1.0000000E+00
	2212	-1	0	0	0	0	0.0000000000E+00	0.0000000000E+00	6.5000000000E+03	6.5000000000E+03	9.3827000000E-01	0.000E+00	0.0
	2212	-1	0	0	0	0	0.0000000000E+00	0.0000000000E+00	-6.5000000000E+03	6.5000000000E+03	9.3827000000E-01	0.000E+00	0.0
	2212	1	0	0	0	0	0.0000000000E+00	0.0000000000E+00	4.9975419252E+03	4.9975419252E+03	9.3827000000E-01	0.000E+00	0.0
	2212	1	0	0	0	0	0.0000000000E+00	0.0000000000E+00	-6.3176508157E+03	6.3176508157E+03	9.3827000000E-01	0.000E+00	0.0
	51	2	1	2	0	0	1.1184155759E+02	-5.4991258996E+00	1.2025100877E+03	1.5982669686E+03	1.0468467020E+03	0.000E+00	0.0
	1000022	2	5	5	0	0	-1.1184155759E+02	5.4991258996E+00	1.2143983900E+03	1.4863459577E+03	8.4965998013E+02	0.000E+00	0.0
	14	1	6	6	0	0	1.5955455999E+02	-3.8304641780E+00	2.7105077220E+02	4.5228956563E+02	3.2500000000E+02	0.000E+00	0.0
	-14	1	6	6	0	0	-2.7139611758E+02	9.3295900776E+00	9.4334761780E+02	1.0340563920E+03	3.2500000000E+02	0.000E+00	0.0
	25	2	5	5	0	0	1.1184155759E+02	-5.4991258996E+00	1.0571050054E+02	1.9846130143E+02	1.2519346569E+02	0.000E+00	0.0
	-5	1	9	9	0	501	6.4741758330E+01	4.4366800576E+01	1.0316557554E+02	1.2969393448E+02	4.1800000000E+00	0.000E+00	0.0
	5	1	9	9	501	0	4.7099799260E+01	-4.9865926476E+01	2.5449250000E+00	6.8767366947E+01	4.1800000000E+00	0.000E+00	0.0
</event>
<event>
    11  -1  1.0000000E+00  1.0000000E+00  -1.0000000E+00  -1.0000000E+00
	2212	-1	0	0	0	0	0.0000000000E+00	0.0000000000E+00	6.5000000000E+03	6.5000000000E+03	9.3827000000E-01	0.000E+00	0.0
	2212	-1	0	0	0	0	0.0000000000E+00	0.0000000000E+00	-6.5000000000E+03	6.5000000000E+03	9.3827000000E-01	0.000E+00	0.0
	2212	1	0	0	0	0	0.0000000000E+00	0.0000000000E+00	6.2296154799E+03	6.2296154799E+03	9.3827000000E-01	0.000E+00	0.0
	2212	1	0	0	0	0	0.0000000000E+00	0.0000000000E+00	-5.4869144859E+03	5.4869144859E+03	9.3827000000E-01	0.000E+00	0.0
	51	2	1	2	0	0	-1.4729823533E+02	-4.6628053142E+01	-7.8667235012E+02	1.3184896261E+03	1.0467523882E+03	0.000E+00	0.0
	1000022	2	5	5	0	0	1.4729823533E+02	4.6628053142E+01	-5.6447494524E+02	1.0164433811E+03	8.3105609782E+02	0.000E+00	0.0
	14	1	6	6	0	0	-1.4497938270E+02	1.4172296075E+02	-1.6635471692E+02	4.1761622436E+02	3.2500000000E+02	0.000E+00	0.0
	-14	1	6	6	0	0	2.9227761803E+02	-9.5094907608E+01	-3.9812022832E+02	5.9882715674E+02	3.2500000000E+02	0.000E+00	0.0
	25	2	5	5	0	0	-1.4729823533E+02	-4.6628053142E+01	-1.7822604877E+02	2.6702665310E+02	1.2517093726E+02	0.000E+00	0.0
	-5	1	9	9	0	501	-1.0969822998E+02	-6.7640749430E+01	-1.8259212461E+02	2.2353149445E+02	4.1800000000E+00	0.000E+00	0.0
	5	1	9	9	501	0	-3.7600005351E+01	2.1012696289E+01	4.3660758347E+00	4.3495158649E+01	4.1800000000E+00	0.000E+00	0.0
</event>
<event>
    11  -1  1.0000000E+00  1.0000000E+00  -1.0000000E+00  -1.0000000E+00
	2212	-1	0	0	0	0	0.0000000000E+00	0.0000000000E+00	6.5000000000E+03	6.5000000000E+03	9.3827000000E-01	0.000E+00	0.0
	2212	-1	0	0	0	0	0.0000000000E+00	0.0000000000E+00	-6.5000000000E+03	6.5000000000E+03	9.3827000000E-01	0.000E+00	0.0
	2212	1	0	0	0	0	0.0000000000E+00	0.0000000000E+00	5.6027001497E+03	5.6027001497E+03	9.3827000000E-01	0.000E+00	0.0
	2212	1	0	0	0	0	0.0000000000E+00	0.0000000000E+00	-6.1937528011E+03	6.1937528011E+03	9.3827000000E-01	0.000E+00	0.0
	51	2	1	2	0	0	1.0431868270E+02	-5.9680248080E+01	6.2716593162E+02	1.2275844118E+03	1.0484189348E+03	0.000E+00	0.0
	1000022	2	5	5	0	0	-1.0431868270E+02	5.9680248080E+01	4.5992761455E+02	9.8603941094E+02	8.6388436132E+02	0.000E+00	0.0
	14	1	6	6	0	0	5.7820193546E+01	-8.8386602752E+01	-4.7155031118E+01	3.4496951066E+02	3.2500000000E+02	0.000E+00	0.0
	-14	1	6	6	0	0	-1.6213887625E+02	1.4806685083E+02	5.0708264567E+02	6.4106990028E+02	3.2500000000E+02	0.000E+00	0.0
	25	2	5	5	0	0	1.0431868270E+02	-5.9680248080E+01	1.3112503685E+02	2.1750763823E+02	1.2518657206E+02	0.000E+00	0.0
	-5	1	9	9	0	501	1.1059173590E+02	-8.9771609832E+01	1.0878685416E+02	1.7928057903E+02	4.1800000000E+00	0.000E+00	0.0
	5	1	9	9	501	0	-6.2730531939E+00	3.0091361752E+01	2.2338182693E+01	3.8227059192E+01	4.1800000000E+00	0.000E+00	0.0
</event>
<event>
    11  -1  1.0000000E+00  1.0000000E+00  -1.0000000E+00  -1.0000000E+00
	2212	-1	0	0	0	0	0.0000000000E+00	0.0000000000E+00	6.5000000000E+03	6.5000000000E+03	9.3827000000E-01	0.000E+00	0.0
	2212	-1	0	0	0	0	0.0000000000E+00	0.0000000000E+00	-6.5000000000E+03	6.5000000000E+03	9.3827000000E-01	0.000E+00	0.0
	2212	1	0	0	0	0	0.0000000000E+00	0.0000000000E+00	6.2678494017E+03	6.2678494017E+03	9.3827000000E-01	0.000E+00	0.0
	2212	1	0	0	0	0	0.0000000000E+00	0.0000000000E+00	-5.4168647687E+03	5.4168647687E+03	9.3827000000E-01	0.000E+00	0.0
	51	2	1	2	0	0	-2.2297157566E+01	-7.4297147525E-01	-9.5593980183E+02	1.3856841588E+03	1.0028967883E+03	0.000E+00	0.0
	1000022	2	5	5	0	0	2.2297157566E+01	7.4297147525E-01	-6.2228889021E+02	1.0536334905E+03	8.4994255933E+02	0.000E+00	0.0
	14	1	6	6	0	0	-4.4611638550E+01	1.8117722981E+02	-5.5547318074E+02	6.7006778868E+02	3.2500000000E+02	0.000E+00	0.0
	-14	1	6	6	0	0	6.6908796116E+01	-1.8043425833E+02	-6.6815709466E+01	3.8356570181E+02	3.2500000000E+02	0.000E+00	0.0
	25	2	5	5	0	0	-2.2297157566E+01	-7.4297147525E-01	-2.2869574276E+02	2.6165233908E+02	1.2514986434E+02	0.000E+00	0.0
	-5	1	9	9	0	501	-5.2011828232E+01	-4.7729964372E+01	-1.1457122440E+02	1.3463809875E+02	4.1800000000E+00	0.000E+00	0.0
	5	1	9	9	501	0	2.9714670666E+01	4.6986992897E+01	-1.1412451836E+02	1.2701424032E+02	4.1800000000E+00	0.000E+00	0.0
</event>
<event>
    11  -1  1.0000000E+00  1.0000000E+00  -1.0000000E+00  -1.0000000E+00
	2212	-1	0	0	0	0	0.0000000000E+00	0.0000000000E+00	6.5000000000E+03	6.5000000000E+03	9.3827000000E-01	0.000E+00	0.0
	2212	-1	0	0	0	0	0.0000000000E+00	0.0000000000E+00	-6.5000000000E+03	6.5000000000E+03	9.3827000000E-01	0.000E+00	0.0
	2212	1	0	0	0	0	0.0000000000E+00	0.0000000000E+00	4.9951398663E+03	4.9951398663E+03	9.3827000000E-01	0.000E+00	0.0
	2212	1	0	0	0	0	0.0000000000E+00	0.0000000000E+00	-6.3148458890E+03	6.3148458890E+03	9.3827000000E-01	0.000E+00	0.0
	51	2	1	2	0	0	1.2868423887E+01	1.5617278339E+02	1.3243134939E+03	1.7008485899E+03	1.0557102637E+03	0.000E+00	0.0
	1000022	2	5	5	0	0	-1.2868423887E+01	-1.5617278339E+02	1.0787421407E+03	1.3765021105E+03	8.4054620305E+02	0.000E+00	0.0
	14	1	6	6	0	0	-2.5341041449E+02	-4.0293413698E+01	6.8455185438E+02	8.0004789775E+02	3.2500000000E+02	0.000E+00	0.0
	-14	1	6	6	0	0	2.4054199060E+02	-1.1587936969E+02	3.9419028635E+02	5.7645421276E+02	3.2500000000E+02	0.000E+00	0.0
	25	2	5	5	0	0	1.2868423887E+01	1.5617278339E+02	2.4096388201E+02	3.1351213417E+02	1.2518279130E+02	0.000E+00	0.0
	-5	1	9	9	0	501	5.1841010580E+01	6.2736637900E+01	1.7377835091E+02	1.9193687441E+02	4.1800000000E+00	0.000E+00	0.0
	5	1	9	9	501	0	-3.8972586693E+01	9.3436145488E+01	6.7185531092E+01	1.2157525976E+02	4.1800000000E+00	0.000E+00	0.0
</event>
<event>
    11  -1  1.0000000E+00  1.0000000E+00  -1.0000000E+00  -1.0000000E+00
	2212	-1	0	0	0	0	0.0000000000E+00	0.0000000000E+00	6.5000000000E+03	6.5000000000E+03	9.3827000000E-01	0.000E+00	0.0
	2212	-1	0	0	0	0	0.0000000000E+00	0.0000000000E+00	-6.5000000000E+03	6.5000000000E+03	9.3827000000E-01	0.000E+00	0.0
	2212	1	0	0	0	0	0.0000000000E+00	0.0000000000E+00	5.5899173603E+03	5.5899173603E+03	9.3827000000E-01	0.000E+00	0.0
	2212	1	0	0	0	0	0.0000000000E+00	0.0000000000E+00	-6.1917081461E+03	6.1917081461E+03	9.3827000000E-01	0.000E+00	0.0
	51	2	1	2	0	0	-1.0917312298E+02	-8.9108182967E+01	6.6643285788E+02	1.2594745134E+03	1.0593791846E+03	0.000E+00	0.0
	1000022	2	5	5	0	0	1.0917312298E+02	8.9108182967E+01	4.3214913188E+02	9.6469426259E+02	8.5089547480E+02	0.000E+00	0.0
	14	1	6	6	0	0	1.8133198704E+02	8.7299587739E+01	-4.2831396681E+01	3.8465833682E+02	3.2500000000E+02	0.000E+00	0.0
	-14	1	6	6	0	0	-7.2158864055E+01	1.8085952272E+00	4.7498052856E+02	5.8003592577E+02	3.2500000000E+02	0.000E+00	0.0
	25	2	5	5	0	0	-1.0917312298E+02	-8.9108182967E+01	1.6964165391E+02	2.5368023099E+02	1.2536478691E+02	0.000E+00	0.0
	-5	1	9	9	0	501	2.7140610710E+01	-9.6670143191E+00	1.5127239524E+01	3.2808073567E+01	4.1800000000E+00	0.000E+00	0.0
	5	1	9	9	501	0	-1.3631373369E+02	-7.9441168647E+01	1.5451441439E+02	2.2087215742E+02	4.1800000000E+00	0.000E+00	0.0
</event>
<event>
    11  -1  1.0000000E+00  1.0000000E+00  -1.0000000E+00  -1.0000000E+00
	2212	-1	0	0	0	0	0.0000000000E+00	0.0000000000E+00	6.5000000000E+03	6.5000000000E+03	9.3827000000E-01	0.000E+00	0.0
	2212	-1	0	0	0	0	0.0000000000E+00	0.0000000000E+00	-6.5000000000E+03	6.5000000000E+03	9.3827000000E-01	0.000E+00	0.0
	2212	1	0	0	0	0	0.0000000000E+00	0.0000000000E+00	5.9406852460E+03	5.9406852460E+03	9.3827000000E-01	0.000E+00	0.0
	2212	1	0	0	0	0	0.0000000000E+00	0.0000000000E+00	-6.0054287648E+03	6.0054287648E+03	9.3827000000E-01	0.000E+00	0.0
	51	2	1	2	0	0	4.7731435582E+01	-1.3982119821E+02	7.8711676392E+01	1.0651327338E+03	1.0518954107E+03	0.000E+00	0.0
	1000022	2	5	5	0	0	-4.7731435582E+01	1.3982119821E+02	3.9468841430E+01	8.5859328835E+02	8.4486471576E+02	0.000E+00	0.0
	14	1	6	6	0	0	2.1810246706E+02	1.7496763905E+02	-3.7183021355E+01	4.3033700507E+02	3.2500000000E+02	0.000E+00	0.0
	-14	1	6	6	0	0	-2.6583390264E+02	-3.5146440841E+01	7.6651862785E+01	4.2825628328E+02	3.2500000000E+02	0.000E+00	0.0
	25	2	5	5	0	0	4.7731435582E+01	-1.3982119821E+02	2.5274677399E+01	1.9529270090E+02	1.2518854698E+02	0.000E+00	0.0
	-5	1	9	9	0	501	2.8743984599E+01	-1.1699283759E+02	-3.7066694539E+01	1.2611484029E+02	4.1800000000E+00	0.000E+00	0.0
	5	1	9	9	501	0	1.8987450982E+01	-2.2828360625E+01	6.2341371938E+01	6.9177860611E+01	4.1800000000E+00	0.000E+00	0.0
</event>
<event>
    11  -1  1.0000000E+00  1.0000000E+00  -1.0000000E+00  -1.0000000E+00
	2212	-1	0	0	0	0	0.0000000000E+00	0.0000000000E+00	6.5000000000E+03	6.5000000000E+03	9.3827000000E-01	0.000E+00	0.0
	2212	-1	0	0	0	0	0.0000000000E+00	0.0000000000E+00	-6.5000000000E+03	6.5000000000E+03	9.3827000000E-01	0.000E+00	0.0
	2212	1	0	0	0	0	0.0000000000E+00	0.0000000000E+00	5.8976953132E+03	5.8976953132E+03	9.3827000000E-01	0.000E+00	0.0
	2212	1	0	0	0	0	0.0000000000E+00	0.0000000000E+00	-6.0285234553E+03	6.0285234553E+03	9.3827000000E-01	0.000E+00	0.0
	51	2	1	2	0	0	-5.5993385934E+01	-6.0513961938E+01	2.6990152344E+02	1.1025126583E+03	1.0657814647E+03	0.000E+00	0.0
	1000022	2	5	5	0	0	5.5993385934E+01	6.0513961938E+01	-3.1683557930E+01	8.5267814505E+02	8.4809137028E+02	0.000E+00	0.0
	14	1	6	6	0	0	-1.8479573936E+02	-1.3454068173E+02	3.4245858906E+01	3.9880877520E+02	3.2500000000E+02	0.000E+00	0.0
	-14	1	6	6	0	0	2.4078912530E+02	1.9505464367E+02	-6.5929416836E+01	4.5386936984E+02	3.2500000000E+02	0.000E+00	0.0
	25	2	5	5	0	0	-5.5993385934E+01	-6.0513961938E+01	1.6251170010E+02	2.2110308648E+02	1.2521710477E+02	0.000E+00	0.0
	-5	1	9	9	0	501	-8.6065586981E+01	-7.5869749920E+01	1.3592970022E+02	1.7792655793E+02	4.1800000000E+00	0.000E+00	0.0
	5	1	9	9	501	0	3.0072201047E+01	1.5355787982E+01	2.6581999878E+01	4.3176528553E+01	4.1800000000E+00	0.000E+00	0.0
</event>
<event>
    11  -1  1.0000000E+00  1.0000000E+00  -1.0000000E+00  -1.0000000E+00
	2212	-1	0	0	0	0	0.0000000000E+00	0.0000000000E+00	6.5000000000E+03	6.5000000000E+03	9.3827000000E-01	0.000E+00	0.0
	2212	-1	0	0	0	0	0.0000000000E+00	0.0000000000E+00	-6.5000000000E+03	6.5000000000E+03	9.3827000000E-01	0.000E+00	0.0
	2212	1	0	0	0	0	0.0000000000E+00	0.0000000000E+00	6.3112106887E+03	6.3112106887E+03	9.3827000000E-01	0.000E+00	0.0
	2212	1	0	0	0	0	0.0000000000E+00	0.0000000000E+00	-5.0420968500E+03	5.0420968500E+03	9.3827000000E-01	0.000E+00	0.0
	51	2	1	2	0	0	9.4924943011E+01	-9.2663731777E+01	-1.1945051781E+03	1.5954266072E+03	1.0492597993E+03	0.000E+00	0.0
	1000022	2	5	5	0	0	-9.4924943011E+01	9.2663731777E+01	-1.1251096896E+03	1.4143052224E+03	8.4663459446E+02	0.000E+00	0.0
	14	1	6	6	0	0	3.2112097588E+01	3.0175507153E+02	-5.0718751319E+02	6.7450091442E+02	3.2500000000E+02	0.000E+00	0.0
	-14	1	6	6	0	0	-1.2703704060E+02	-2.0909133976E+02	-6.1792217641E+02	7.3980430800E+02	3.2500000000E+02	0.000E+00	0.0
	25	2	5	5	0	0	9.4924943011E+01	-9.2663731777E+01	-1.4400414907E+02	2.3238723884E+02	1.2517716179E+02	0.000E+00	0.0
	-5	1	9	9	0	501	8.6694777030E+01	-2.0701378946E+01	-2.4413214745E+01	9.2509507127E+01	4.1800000000E+00	0.000E+00	0.0
	5	1	9	9	501	0	8.2301659805E+00	-7.1962352831E+01	-1.1959093432E+02	1.3987773171E+02	4.1800000000E+00	0.000E+00	0.0
</event>
<event>
    11  -1  1.0000000E+00  1.0000000E+00  -1.0000000E+00  -1.0000000E+00
	2212	-1	0	0	0	0	0.0000000000E+00	0.0000000000E+00	6.5000000000E+03	6.5000000000E+03	9.3827000000E-01	0.000E+00	0.0
	2212	-1	0	0	0	0	0.0000000000E+00	0.0000000000E+00	-6.5000000000E+03	6.5000000000E+03	9.3827000000E-01	0.000E+00	0.0
	2212	1	0	0	0	0	0.0000000000E+00	0.0000000000E+00	6.1990722959E+03	6.1990722959E+03	9.3827000000E-01	0.000E+00	0.0
	2212	1	0	0	0	0	0.0000000000E+00	0.0000000000E+00	-5.5775899832E+03	5.5775899832E+03	9.3827000000E-01	0.000E+00	0.0
	51	2	1	2	0	0	9.9929823959E+01	8.5560143798E+01	-7.1575974391E+02	1.2805988574E+03	1.0537148165E+03	0.000E+00	0.0
	1000022	2	5	5	0	0	-9.9929823959E+01	-8.5560143798E+01	-4.1760329450E+02	9.5033471572E+02	8.4346727999E+02	0.000E+00	0.0
	14	1	6	6	0	0	-2.2677060818E+02	-2.4441129603E+02	-2.7849992854E+02	5.4253940000E+02	3.2500000000E+02	0.000E+00	0.0
	-14	1	6	6	0	0	1.2684078422E+02	1.5885115223E+02	-1.3910336596E+02	4.0779531572E+02	3.2500000000E+02	0.000E+00	0.0
	25	2	5	5	0	0	9.9929823959E+01	8.5560143798E+01	-2.0387901818E+02	2.7300300525E+02	1.2512984815E+02	0.000E+00	0.0
	-5	1	9	9	0	501	5.7269793081E+01	9.9394834754E+01	-7.6629402773E+01	1.3801702846E+02	4.1800000000E+00	0.000E+00	0.0
	5	1	9	9	501	0	4.2660030879E+01	-1.3834690956E+01	-1.2724961541E+02	1.3498597679E+02	4.1800000000E+00	0.000E+00	0.0
</event>
<event>
    11  -1  1.0000000E+00  1.0000000E+00  -1.0000000E+00  -1.0000000E+00
	2212	-1	0	0	0	0	0.0000000000E+00	0.0000000000E+00	6.5000000000E+03	6.5000000000E+03	9.3827000000E-01	0.000E+00	0.0
	2212	-1	0	0	0	0	0.0000000000E+00	0.0000000000E+00	-6.5000000000E+03	6.5000000000E+03	9.3827000000E-01	0.000E+00	0.0
	2212	1	0	0	0	0	0.0000000000E+00	0.0000000000E+00	5.3286287488E+03	5.3286287488E+03	9.3827000000E-01	0.000E+00	0.0
	2212	1	0	0	0	0	0.0000000000E+00	0.0000000000E+00	-6.2622143330E+03	6.2622143330E+03	9.3827000000E-01	0.000E+00	0.0
	51	2	1	2	0	0	6.7379598357E+01	-1.3600240010E+02	9.3476508887E+02	1.4180844868E+03	1.0555288613E+03	0.000E+00	0.0
	1000022	2	5	5	0	0	-6.7379598357E+01	1.3600240010E+02	7.6792285266E+02	1.1519578672E+03	8.4514185613E+02	0.000E+00	0.0
	14	1	6	6	0	0	1.3868671490E+02	-3.3376059684E+01	1.1076665570E+02	3.7180938432E+02	3.2500000000E+02	0.000E+00	0.0
	-14	1	6	6	0	0	-2.0606631326E+02	1.6937845978E+02	6.5715619696E+02	7.8014848285E+02	3.2500000000E+02	0.000E+00	0.0
	25	2	5	5	0	0	6.7379598357E+01	-1.3600240010E+02	1.6566273150E+02	2.5719905101E+02	1.2518205992E+02	0.000E+00	0.0
	-5	1	9	9	0	501	4.1530864753E+01	1.3703707453E+01	4.7395953729E+01	6.4625483789E+01	4.1800000000E+00	0.000E+00	0.0
	5	1	9	9	501	0	2.5848733604E+01	-1.4970610755E+02	1.1826677777E+02	1.9257356722E+02	4.1800000000E+00	0.000E+00	0.0
</event>
<event>
    11  -1  1.0000000E+00  1.0000000E+00  -1.0000000E+00  -1.0000000E+00
	2212	-1	0	0	0	0	0.0000000000E+00	0.0000000000E+00	6.5000000000E+03	6.5000000000E+03	9.3827000000E-01	0.000E+00	0.0
	2212	-1	0	0	0	0	0.0000000000E+00	0.0000000000E+00	-6.5000000000E+03	6.5000000000E+03	9.3827000000E-01	0.000E+00	0.0
	2212	1	0	0	0	0	0.0000000000E+00	0.0000000000E+00	6.2757291001E+03	6.2757291001E+03	9.3827000000E-01	0.000E+00	0.0
	2212	1	0	0	0	0	0.0000000000E+00	0.0000000000E+00	-5.2699361247E+03	5.2699361247E+03	9.3827000000E-01	0.000E+00	0.0
	51	2	1	2	0	0	-1.3190318555E+01	-5.7306332077E+01	-1.1920075255E+03	1.5899088243E+03	1.0504618645E+03	0.000E+00	0.0
	1000022	2	5	5	0	0	1.3190318555E+01	5.7306332077E+01	-6.4815087900E+02	1.0708836297E+03	8.5043176461E+02	0.000E+00	0.0
	14	1	6	6	0	0	8.5455900302E+01	-2.0781164789E+02	-1.6823660365E+02	4.2943794279E+02	3.2500000000E+02	0.000E+00	0.0
	-14	1	6	6	0	0	-7.2265581747E+01	2.6511797997E+02	-4.7991427535E+02	6.4144568694E+02	3.2500000000E+02	0.000E+00	0.0
	25	2	5	5	0	0	-1.3190318555E+01	-5.7306332077E+01	-3.5764209643E+02	3.8345114540E+02	1.2517552307E+02	0.000E+00	0.0
	-5	1	9	9	0	501	-4.2561815169E+01	-4.0958243025E+01	-6.1486997028E+01	8.5365150885E+01	4.1800000000E+00	0.000E+00	0.0
	5	1	9	9	501	0	2.9371496614E+01	-1.6348089052E+01	-2.9615509940E+02	2.9808599452E+02	4.1800000000E+00	0.000E+00	0.0
</event>
<event>
    11  -1  1.0000000E+00  1.0000000E+00  -1.0000000E+00  -1.0000000E+00
	2212	-1	0	0	0	0	0.0000000000E+00	0.0000000000E+00	6.5000000000E+03	6.5000000000E+03	9.3827000000E-01	0.000E+00	0.0
	2212	-1	0	0	0	0	0.0000000000E+00	0.0000000000E+00	-6.5000000000E+03	6.5000000000E+03	9.3827000000E-01	0.000E+00	0.0
	2212	1	0	0	0	0	0.0000000000E+00	0.0000000000E+00	6.1156672333E+03	6.1156672333E+03	9.3827000000E-01	0.000E+00	0.0
	2212	1	0	0	0	0	0.0000000000E+00	0.0000000000E+00	-5.7773541306E+03	5.7773541306E+03	9.3827000000E-01	0.000E+00	0.0
	51	2	1	2	0	0	-3.7378793610E+01	1.1920699876E+02	-2.6145170435E+02	1.0931195826E+03	1.0540142055E+03	0.000E+00	0.0
	1000022	2	5	5	0	0	3.7378793610E+01	-1.1920699876E+02	-3.5660377711E+02	9.2919113614E+02	8.4889482910E+02	0.000E+00	0.0
	14	1	6	6	0	0	-1.1203854235E+02	9.0946560749E-01	7.9156340998E+01	3.5276647859E+02	3.2500000000E+02	0.000E+00	0.0
	-14	1	6	6	0	0	1.4941733596E+02	-1.2011646437E+02	-4.3576011811E+02	5.7642465755E+02	3.2500000000E+02	0.000E+00	0.0
	25	2	5	5	0	0	-3.7378793610E+01	1.1920699876E+02	1.8290674386E+01	1.7778750000E+02	1.2516534513E+02	0.000E+00	0.0
	-5	1	9	9	0	501	-3.6495877110E-01	5.0961725406E+01	-5.2032811688E+01	7.2952837802E+01	4.1800000000E+00	0.000E+00	0.0
	5	1	9	9	501	0	-3.7013834839E+01	6.8245273355E+01	7.0323486074E+01	1.0483466220E+02	4.1800000000E+00	0.000E+00	0.0
</event>
<event>
    11  -1  1.0000000E+00  1.0000000E+00  -1.0000000E+00  -1.0000000E+00
	2212	-1	0	0	0	0	0.0000000000E+00	0.0000000000E+00	6.5000000000E+03	6.5000000000E+03	9.3827000000E-01	0.000E+00	0.0
	2212	-1	0	0	0	0	0.0000000000E+00	0.0000000000E+00	-6.5000000000E+03	6.5000000000E+03	9.3827000000E-01	0.000E+00	0.0
	2212	1	0	0	0	0	0.0000000000E+00	0.0000000000E+00	5.9358141978E+03	5.9358141978E+03	9.3827000000E-01	0.000E+00	0.0
	2212	1	0	0	0	0	0.0000000000E+00	0.0000000000E+00	-6.0091313083E+03	6.0091313083E+03	9.3827000000E-01	0.000E+00	0.0
	51	2	1	2	0	0	1.0031526433E+02	-8.5576099558E+01	4.9223996922E+01	1.0618728781E+03	1.0525039602E+03	0.000E+00	0.0
	1000022	2	5	5	0	0	-1.0031526433E+02	8.5576099558E+01	8.5222894226E+01	8.7285689571E+02	8.5862086955E+02	0.000E+00	0.0
	14	1	6	6	0	0	2.2756510067E+02	2.2971843817E+01	-9.0973286504E+00	3.9751898325E+02	3.2500000000E+02	0.000E+00	0.0
	-14	1	6	6	0	0	-3.2788036500E+02	6.2604255741E+01	9.4320222876E+01	4.7533791247E+02	3.2500000000E+02	0.000E+00	0.0
	25	2	5	5	0	0	1.0031526433E+02	-8.5576099558E+01	-1.1905783687E+01	1.8219759813E+02	1.2517106698E+02	0.000E+00	0.0
	-5	1	9	9	0	501	1.3275976915E+01	2.9915364075E+01	-1.7624873184E+01	3.7407073202E+01	4.1800000000E+00	0.000E+00	0.0
	5	1	9	9	501	0	8.7039287412E+01	-1.1549146363E+02	5.7190894964E+00	1.4479052493E+02	4.1800000000E+00	0.000E+00	0.0
</event>
<event>
    11  -1  1.0000000E+00  1.0000000E+00  -1.0000000E+00  -1.0000000E+00
	2212	-1	0	0	0	0	0.0000000000E+00	0.0000000000E+00	6.5000000000E+03	6.5000000000E+03	9.3827000000E-01	0.000E+00	0.0
	2212	-1	0	0	0	0	0.0000000000E+00	0.0000000000E+00	-6.5000000000E+03	6.5000000000E+03	9.3827000000E-01	0.000E+00	0.0
	2212	1	0	0	0	0	0.0000000000E+00	0.0000000000E+00	6.1662536587E+03	6.1662536587E+03	9.3827000000E-01	0.000E+00	0.0
	2212	1	0	0	0	0	0.0000000000E+00	0.0000000000E+00	-5.6710704888E+03	5.6710704888E+03	9.3827000000E-01	0.000E+00	0.0
	51	2	1	2	0	0	-5.3199626125E+01	-5.8216664318E+01	-3.6523939694E+02	1.1163458082E+03	1.0519547359E+03	0.000E+00	0.0
	1000022	2	5	5	0	0	5.3199626125E+01	5.8216664318E+01	-5.3960348539E+02	1.0081992766E+03	8.4798259396E+02	0.000E+00	0.0
	14	1	6	6	0	0	2.1032360555E+02	-8.9762160782E+01	-8.0048639683E+01	4.0537149539E+02	3.2500000000E+02	0.000E+00	0.0
	-14	1	6	6	0	0	-1.5712397942E+02	1.4797882510E+02	-4.5955484571E+02	6.0282778121E+02	3.2500000000E+02	0.000E+00	0.0
	25	2	5	5	0	0	-5.3199626125E+01	-5.8216664318E+01	4.4420315547E+01	1.5447657590E+02	1.2518173926E+02	0.000E+00	0.0
	-5	1	9	9	0	501	7.2473270998E+00	-7.8754375654E+01	5.0555010425E+00	7.9358716759E+01	4.1800000000E+00	0.000E+00	0.0
	5	1	9	9	501	0	-6.0446953225E+01	2.0537711336E+01	3.9364814504E+01	7.5117859142E+01	4.1800000000E+00	0.000E+00	0.0
</event>
<event>
    11  -1  1.0000000E+00  1.0000000E+00  -1.0000000E+00  -1.0000000E+00
	2212	-1	0	0	0	0	0.0000000000E+00	0.0000000000E+00	6.5000000000E+03	6.5000000000E+03	9.3827000000E-01	0.000E+00	0.0
	2212	-1	0	0	0	0	0.0000000000E+00	0.0000000000E+00	-6.5000000000E+03	6.5000000000E+03	9.3827000000E-01	0.000E+00	0.0
	2212	1	0	0	0	0	0.0000000000E+00	0.0000000000E+00	5.2405726707E+03	5.2405726707E+03	9.3827000000E-01	0.000E+00	0.0
	2212	1	0	0	0	0	0.0000000000E+00	0.0000000000E+00	-6.2797711289E+03	6.2797711289E+03	9.3827000000E-01	0.000E+00	0.0
	51	2	1	2	0	0	-1.0408618962E+02	-6.5954294212E+01	1.1692243627E+03	1.5785178333E+03	1.0533038667E+03	0.000E+00	0.0
	1000022	2	5	5	0	0	1.0408618962E+02	6.5954294212E+01	7.2707134744E+02	1.1215109082E+03	8.4496749597E+02	0.000E+00	0.0
	14	1	6	6	0	0	-3.0056956579E+01	2.5396766677E+02	1.9659833361E+02	4.5790708793E+02	3.2500000000E+02	0.000E+00	0.0
	-14	1	6	6	0	0	1.3414314620E+02	-1.8801337255E+02	5.3047301383E+02	6.6360382032E+02	3.2500000000E+02	0.000E+00	0.0
	25	2	5	5	0	0	-1.0408618962E+02	-6.5954294212E+01	3.1212711075E+02	3.5814529210E+02	1.2514317076E+02	0.000E+00	0.0
	-5	1	9	9	0	501	-1.0650946113E+02	-1.5233933806E+01	2.7433492167E+02	2.9470911031E+02	4.1800000000E+00	0.000E+00	0.0
	5	1	9	9	501	0	2.4232715101E+00	-5.0720360405E+01	3.7792189084E+01	6.3436181791E+01	4.1800000000E+00	0.000E+00	0.0
</event>
<event>
    11  -1  1.0000000E+00  1.0000000E+00  -1.0000000E+00  -1.0000000E+00
	2212	-1	0	0	0	0	0.0000000000E+00	0.0000000000E+00	6.5000000000E+03	6.5000000000E+03	9.3827000000E-01	0.000E+00	0.0
	2212	-1	0	0	0	0	0.0000000000E+00	0.0000000000E+00	-6.5000000000E+03	6.5000000000E+03	9.3827000000E-01	0.000E+00	0.0
	2212	1	0	0	0	0	0.0000000000E+00	0.0000000000E+00	6.3322718451E+03	6.3322718451E+03	9.3827000000E-01	0.000E+00	0.0
	2212	1	0	0	0	0	0.0000000000E+00	0.0000000000E+00	-4.8583191344E+03	4.8583191344E+03	9.3827000000E-01	0.000E+00	0.0
	51	2	1	2	0	0	5.7165279606E+01	1.2100602966E+02	-1.4410973129E+03	1.7877629049E+03	1.0494876895E+03	0.000E+00	0.0
	1000022	2	5	5	0	0	-5.7165279606E+01	-1.2100602966E+02	-1.2592157327E+03	1.5271133105E+03	8.5354582361E+02	0.000E+00	0.0
	14	1	6	6	0	0	-2.4361422004E+02	-8.6987254242E+01	-9.6134611283E+02	1.0472468760E+03	3.2500000000E+02	0.000E+00	0.0
	-14	1	6	6	0	0	1.8644894043E+02	-3.4018775413E+01	-2.9786961989E+02	4.7986643446E+02	3.2500000000E+02	0.000E+00	0.0
	25	2	5	5	0	0	5.7165279606E+01	1.2100602966E+02	-2.1473697790E+02	2.8229571006E+02	1.2517415801E+02	0.000E+00	0.0
	-5	1	9	9	0	501	5.3141413474E+01	1.3388299681E+02	-1.2294772040E+02	1.8942618882E+02	4.1800000000E+00	0.000E+00	0.0
	5	1	9	9	501	0	4.0238661325E+00	-1.2876967154E+01	-9.1789257503E+01	9.2869521236E+01	4.1800000000E+00	0.000E+00	0.0
</event>
<event>
    11  -1  1.0000000E+00  1.0000000E+00  -1.0000000E+00  -1.0000000E+00
	2212	-1	0	0	0	0	0.0000000000E+00	0.0000000000E+00	6.5000000000E+03	6.5000000000E+03	9.3827000000E-01	0.000E+00	0.0
	2212	-1	0	0	0	0	0.0000000000E+00	0.0000000000E+00	-6.5000000000E+03	6.5000000000E+03	9.3827000000E-01	0.000E+00	0.0
	2212	1	0	0	0	0	0.0000000000E+00	0.0000000000E+00	5.5765992731E+03	5.5765992731E+03	9.3827000000E-01	0.000E+00	0.0
	2212	1	0	0	0	0	0.0000000000E+00	0.0000000000E+00	-6.2016616196E+03	6.2016616196E+03	9.3827000000E-01	0.000E+00	0.0
	51	2	1	2	0	0	6.7606774180E+00	6.6381466529E+01	4.8063360572E+02	1.1564620090E+03	1.0497349711E+03	0.000E+00	0.0
	1000022	2	5	5	0	0	-6.7606774180E+00	-6.6381466529E+01	6.6120360133E+02	1.0753588293E+03	8.4543137126E+02	0.000E+00	0.0
	14	1	6	6	0	0	1.7730580318E+02	1.6026155203E+02	3.9015294172E+02	5.6121781051E+02	3.2500000000E+02	0.000E+00	0.0
	-14	1	6	6	0	0	-1.8406648060E+02	-2.2664301856E+02	2.7105065961E+02	5.1414101881E+02	3.2500000000E+02	0.000E+00	0.0
	25	2	5	5	0	0	6.7606774180E+00	6.6381466529E+01	-3.6141254869E+01	1.4638027803E+02	1.2517503599E+02	0.000E+00	0.0
	-5	1	9	9	0	501	-2.4656366467E+01	8.0504162817E+01	1.3949676384E+01	8.5445435860E+01	4.1800000000E+00	0.000E+00	0.0
	5	1	9	9	501	0	3.1417043885E+01	-1.4122696287E+01	-5.0090931253E+01	6.0934842173E+01	4.1800000000E+00	0.000E+00	0.0
</event>
<event>
    11  -1  1.0000000E+00  1.0000000E+00  -1.0000000E+00  -1.0000000E+00
	2212	-1	0	0	0	0	0.0000000000E+00	0.0000000000E+00	6.5000000000E+03	6.5000000000E+03	9.3827000000E-01	0.000E+00	0.0
	2212	-1	0	0	0	0	0.0000000000E+00	0.0000000000E+00	-6.5000000000E+03	6.5000000000E+03	9.3827000000E-01	0.000E+00	0.0
	2212	1	0	0	0	0	0.0000000000E+00	0.0000000000E+00	5.7210878419E+03	5.7210878419E+03	9.3827000000E-01	0.000E+00	0.0
	2212	1	0	0	0	0	0.0000000000E+00	0.0000000000E+00	-6.1412329959E+03	6.1412329959E+03	9.3827000000E-01	0.000E+00	0.0
	51	2	1	2	0	0	1.0070781839E+02	9.5097314835E+01	3.6488904315E+02	1.1269966742E+03	1.0572567927E+03	0.000E+00	0.0
	1000022	2	5	5	0	0	-1.0070781839E+02	-9.5097314835E+01	4.0218699277E+02	9.5011028190E+02	8.4957024821E+02	0.000E+00	0.0
	14	1	6	6	0	0	-2.1576186922E+01	5.8363188773E+01	-8.2988043040E+01	3.4115071293E+02	3.2500000000E+02	0.000E+00	0.0
	-14	1	6	6	0	0	-7.9131631465E+01	-1.5346050361E+02	4.8517503581E+02	6.0895956897E+02	3.2500000000E+02	0.000E+00	0.0
	25	2	5	5	0	0	1.0070781839E+02	9.5097314835E+01	1.7958161228E+01	1.8756888036E+02	1.2519594782E+02	0.000E+00	0.0
	-5	1	9	9	0	501	2.8658744803E+01	5.8216395009E+01	-4.9820893253E+01	8.1914993170E+01	4.1800000000E+00	0.000E+00	0.0
	5	1	9	9	501	0	7.2049073583E+01	3.6880919826E+01	6.7779054481E+01	1.0565388719E+02	4.1800000000E+00	0.000E+00	0.0
</event>
<event>
    11  -1  1.0000000E+00  1.0000000E+00  -1.0000000E+00  -1.0000000E+00
	2212	-1	0	0	0	0	0.0000000000E+00	0.0000000000E+00	6.5000000000E+03	6.5000000000E+03	9.3827000000E-01	0.000E+00	0.0
	2212	-1	0	0	0	0	0.0000000000E+00	0.0000000000E+00	-6.5000000000E+03	6.5000000000E+03	9.3827000000E-01	0.000E+00	0.0
	2212	1	0	0	0	0	0.0000000000E+00	0.0000000000E+00	6.2338192293E+03	6.2338192293E+03	9.3827000000E-01	0.000E+00	0.0
	2212	1	0	0	0	0	0.0000000000E+00	0.0000000000E+00	-5.4611028859E+03	5.4611028859E+03	9.3827000000E-01	0.000E+00	0.0
	51	2	1	2	0	0	6.1676258772E+01	2.6640218436E+00	-9.3305339228E+02	1.4073156819E+03	1.0517308296E+03	0.000E+00	0.0
	1000022	2	5	5	0	0	-6.1676258772E+01	-2.6640218436E+00	-4.8194588213E+02	9.8254480921E+02	8.5399731316E+02	0.000E+00	0.0
	14	1	6	6	0	0	-1.6565516337E+02	2.4035400387E+02	-2.6205498527E+02	5.0942074519E+02	3.2500000000E+02	0.000E+00	0.0
	-14	1	6	6	0	0	1.0397890460E+02	-2.4301802572E+02	-2.1989089686E+02	4.7312406401E+02	3.2500000000E+02	0.000E+00	0.0
	25	2	5	5	0	0	6.1676258772E+01	2.6640218436E+00	-2.9077046127E+02	3.2253307554E+02	1.2517613894E+02	0.000E+00	0.0
	-5	1	9	9	0	501	4.8021440011E+01	-5.4550668251E+01	-2.1189348915E+02	2.2404945270E+02	4.1800000000E+00	0.000E+00	0.0
	5	1	9	9	501	0	1.3654818761E+01	5.7214690095E+01	-7.8876972115E+01	9.8483622842E+01	4.1800000000E+00	0.000E+00	0.0
</event>
<event>
    11  -1  1.0000000E+00  1.0000000E+00  -1.0000000E+00  -1.0000000E+00
	2212	-1	0	0	0	0	0.0000000000E+00	0.0000000000E+00	6.5000000000E+03	6.5000000000E+03	9.3827000000E-01	0.000E+00	0.0
	2212	-1	0	0	0	0	0.0000000000E+00	0.0000000000E+00	-6.5000000000E+03	6.5000000000E+03	9.3827000000E-01	0.000E+00	0.0
	2212	1	0	0	0	0	0.0000000000E+00	0.0000000000E+00	6.0711950821E+03	6.0711950821E+03	9.3827000000E-01	0.000E+00	0.0
	2212	1	0	0	0	0	0.0000000000E+00	0.0000000000E+00	-5.8692903680E+03	5.8692903680E+03	9.3827000000E-01	0.000E+00	0.0
	51	2	1	2	0	0	-8.7542392888E+01	3.8045790333E+01	-1.0314203959E+02	1.0495499040E+03	1.0400988261E+03	0.000E+00	0.0
	1000022	2	5	5	0	0	8.7542392888E+01	-3.8045790333E+01	-2.6635276655E+02	8.8940989180E+02	8.4320519843E+02	0.000E+00	0.0
	14	1	6	6	0	0	2.8100319215E+02	-1.2719778497E+02	-6.8247649201E+01	4.5323814063E+02	3.2500000000E+02	0.000E+00	0.0
	-14	1	6	6	0	0	-1.9346079926E+02	8.9151994640E+01	-1.9810511735E+02	4.3617175117E+02	3.2500000000E+02	0.000E+00	0.0
	25	2	5	5	0	0	-8.7542392888E+01	3.8045790333E+01	6.4448052445E+01	1.7010465817E+02	1.2518342762E+02	0.000E+00	0.0
	-5	1	9	9	0	501	-8.0006281690E+01	7.8069657860E+01	6.4574145961E+01	1.2916334354E+02	4.1800000000E+00	0.000E+00	0.0
	5	1	9	9	501	0	-7.5361111980E+00	-4.0023867527E+01	-1.2609351589E-01	4.0941314626E+01	4.1800000000E+00	0.000E+00	0.0
</event>
<event>
    11  -1  1.0000000E+00  1.0000000E+00  -1.0000000E+00  -1.0000000E+00
	2212	-1	0	0	0	0	0.0000000000E+00	0.0000000000E+00	6.5000000000E+03	6.5000000000E+03	9.3827000000E-01	0.000E+00	0.0
	2212	-1	0	0	0	0	0.0000000000E+00	0.0000000000E+00	-6.5000000000E+03	6.5000000000E+03	9.3827000000E-01	0.000E+00	0.0
	2212	1	0	0	0	0	0.0000000000E+00	0.0000000000E+00	4.8749453203E+03	4.8749453203E+03	9.3827000000E-01	0.000E+00	0.0
	2212	1	0	0	0	0	0.0000000000E+00	0.0000000000E+00	-6.3428523318E+03	6.3428523318E+03	9.3827000000E-01	0.000E+00	0.0
	51	2	1	2	0	0	-6.7440166259E+01	-2.1770044604E+01	1.4250945975E+03	1.7485453774E+03	1.0106899695E+03	0.000E+00	0.0
	1000022	2	5	5	0	0	6.7440166259E+01	2.1770044604E+01	1.3022004196E+03	1.5626940571E+03	8.6096728885E+02	0.000E+00	0.0
	14	1	6	6	0	0	-1.3105857358E+02	-2.0317754459E+02	4.7169559057E+02	6.2175493122E+02	3.2500000000E+02	0.000E+00	0.0
	-14	1	6	6	0	0	1.9849873984E+02	2.2494758919E+02	8.3050482901E+02	9.4093912587E+02	3.2500000000E+02	0.000E+00	0.0
	25	2	5	5	0	0	-6.7440166259E+01	-2.1770044604E+01	1.6570659193E+02	2.1950829079E+02	1.2531202754E+02	0.000E+00	0.0
	-5	1	9	9	0	501	-8.6290864532E+01	1.5981220895E+01	1.5086556702E+02	1.7458351708E+02	4.1800000000E+00	0.000E+00	0.0
	5	1	9	9	501	0	1.8850698274E+01	-3.7751265499E+01	1.4841024915E+01	4.4924773708E+01	4.1800000000E+00	0.000E+00	0.0
</event>
<event>
    11  -1  1.0000000E+00  1.0000000E+00  -1.0000000E+00  -1.0000000E+00
	2212	-1	0	0	0	0	0.0000000000E+00	0.0000000000E+00	6.5000000000E+03	6.5000000000E+03	9.3827000000E-01	0.000E+00	0.0
	2212	-1	0	0	0	0	0.0000000000E+00	0.0000000000E+00	-6.5000000000E+03	6.5000000000E+03	9.3827000000E-01	0.000E+00	0.0
	2212	1	0	0	0	0	0.0000000000E+00	0.0000000000E+00	5.1049687848E+03	5.1049687848E+03	9.3827000000E-01	0.000E+00	0.0
	2212	1	0	0	0	0	0.0000000000E+00	0.0000000000E+00	-6.2909788475E+03	6.2909788475E+03	9.3827000000E-01	0.000E+00	0.0
	51	2	1	2	0	0	5.5075793502E+01	-1.6079382968E+02	1.1969123382E+03	1.6210648579E+03	1.0799833931E+03	0.000E+00	0.0
	1000022	2	5	5	0	0	-5.5075793502E+01	1.6079382968E+02	9.5787517488E+02	1.2932375759E+03	8.5208601580E+02	0.000E+00	0.0
	14	1	6	6	0	0	2.7519863746E+01	-5.6627427709E+01	7.9592102940E+02	8.6202047163E+02	3.2500000000E+02	0.000E+00	0.0
	-14	1	6	6	0	0	-8.2595657247E+01	2.1742125739E+02	1.6195414548E+02	4.3121710425E+02	3.2500000000E+02	0.000E+00	0.0
	25	2	5	5	0	0	5.5075793502E+01	-1.6079382968E+02	2.2813488781E+02	3.1081479175E+02	1.2518909313E+02	0.000E+00	0.0
	-5	1	9	9	0	501	7.0333334787E+01	-6.8177348411E+01	1.8064802367E+02	2.0553858439E+02	4.1800000000E+00	0.000E+00	0.0
	5	1	9	9	501	0	-1.5257541286E+01	-9.2616481272E+01	4.7486864144E+01	1.0527620736E+02	4.1800000000E+00	0.000E+00	0.0
</event>
<event>
    11  -1  1.0000000E+00  1.0000000E+00  -1.0000000E+00  -1.0000000E+00
	2212	-1	0	0	0	0	0.0000000000E+00	0.0000000000E+00	6.5000000000E+03	6.5000000000E+03	9.3827000000E-01	0.000E+00	0.0
	2212	-1	0	0	0	0	0.0000000000E+00	0.0000000000E+00	-6.5000000000E+03	6.5000000000E+03	9.3827000000E-01	0.000E+00	0.0
	2212	1	0	0	0	0	0.0000000000E+00	0.0000000000E+00	6.1650217903E+03	6.1650217903E+03	9.3827000000E-01	0.000E+00	0.0
	2212	1	0	0	0	0	0.0000000000E+00	0.0000000000E+00	-5.6661815179E+03	5.6661815179E+03	9.3827000000E-01	0.000E+00	0.0
	51	2	1	2	0	0	5.2003379040E+01	-7.3077204021E+01	-6.4624562540E+02	1.2421441651E+03	1.0569976771E+03	0.000E+00	0.0
	1000022	2	5	5	0	0	-5.2003379040E+01	7.3077204021E+01	-2.6225941813E+02	8.8650852811E+02	8.4206456928E+02	0.000E+00	0.0
	14	1	6	6	0	0	-1.7304687233E+02	1.9654766524E+02	-3.0352518545E+02	5.1607048253E+02	3.2500000000E+02	0.000E+00	0.0
	-14	1	6	6	0	0	1.2104349329E+02	-1.2347046122E+02	4.1265767314E+01	3.7043804558E+02	3.2500000000E+02	0.000E+00	0.0
	25	2	5	5	0	0	5.2003379040E+01	-7.3077204021E+01	-2.3658085430E+02	2.8228816374E+02	1.2518577231E+02	0.000E+00	0.0
	-5	1	9	9	0	501	1.6665246567E+01	2.9886294123E+01	-1.1004342294E+02	1.1531673058E+02	4.1800000000E+00	0.000E+00	0.0
	5	1	9	9	501	0	3.5338132473E+01	-1.0296349814E+02	-1.2653743135E+02	1.6697143316E+02	4.1800000000E+00	0.000E+00	0.0
</event>
<event>
    11  -1  1.0000000E+00  1.0000000E+00  -1.0000000E+00  -1.0000000E+00
	2212	-1	0	0	0	0	0.0000000000E+00	0.0000000000E+00	6.5000000000E+03	6.5000000000E+03	9.3827000000E-01	0.000E+00	0.0
	2212	-1	0	0	0	0	0.0000000000E+00	0.0000000000E+00	-6.5000000000E+03	6.5000000000E+03	9.3827000000E-01	0.000E+00	0.0
	2212	1	0	0	0	0	0.0000000000E+00	0.0000000000E+00	5.8768951889E+03	5.8768951889E+03	9.3827000000E-01	0.000E+00	0.0
	2212	1	0	0	0	0	0.0000000000E+00	0.0000000000E+00	-6.0447623130E+03	6.0447623130E+03	9.3827000000E-01	0.000E+00	0.0
	51	2	1	2	0	0	-2.7605158630E+01	-4.2572883488E+01	3.2938604665E+02	1.1161150635E+03	1.0651963068E+03	0.000E+00	0.0
	1000022	2	5	5	0	0	2.7605158630E+01	4.2572883488E+01	-2.4340070358E+01	8.4343503861E+02	8.4155554192E+02	0.000E+00	0.0
	14	1	6	6	0	0	4.6137270609E+01	-1.1891251360E+02	2.1340612848E+02	4.0918945405E+02	3.2500000000E+02	0.000E+00	0.0
	-14	1	6	6	0	0	-1.8532111979E+01	1.6148539708E+02	-2.3774619884E+02	4.3424558456E+02	3.2500000000E+02	0.000E+00	0.0
	25	2	5	5	0	0	-2.7605158630E+01	-4.2572883488E+01	1.9220719444E+02	2.3490745957E+02	1.2515356078E+02	0.000E+00	0.0
	-5	1	9	9	0	501	-5.7387498997E+00	4.3516837407E+01	8.3839000039E+01	9.4726441483E+01	4.1800000000E+00	0.000E+00	0.0
	5	1	9	9	501	0	-2.1866408730E+01	-8.6089720895E+01	1.0836819440E+02	1.4018101809E+02	4.1800000000E+00	0.000E+00	0.0
</event>
<event>
    11  -1  1.0000000E+00  1.0000000E+00  -1.0000000E+00  -1.0000000E+00
	2212	-1	0	0	0	0	0.0000000000E+00	0.0000000000E+00	6.5000000000E+03	6.5000000000E+03	9.3827000000E-01	0.000E+00	0.0
	2212	-1	0	0	0	0	0.0000000000E+00	0.0000000000E+00	-6.5000000000E+03	6.5000000000E+03	9.3827000000E-01	0.000E+00	0.0
	2212	1	0	0	0	0	0.0000000000E+00	0.0000000000E+00	6.1056739425E+03	6.1056739425E+03	9.3827000000E-01	0.000E+00	0.0
	2212	1	0	0	0	0	0.0000000000E+00	0.0000000000E+00	-5.7975601887E+03	5.7975601887E+03	9.3827000000E-01	0.000E+00	0.0
	51	2	1	2	0	0	1.1184673762E+01	-5.9275604101E+01	-4.4926636162E+02	1.1460542063E+03	1.0525973997E+03	0.000E+00	0.0
	1000022	2	5	5	0	0	-1.1184673762E+01	5.9275604101E+01	-1.1366823900E+02	8.5777538189E+02	8.4806806510E+02	0.000E+00	0.0
	14	1	6	6	0	0	-3.6092559782E+01	-1.9769365475E+02	9.4222662085E+01	3.9355859036E+02	3.2500000000E+02	0.000E+00	0.0
	-14	1	6	6	0	0	2.4907886019E+01	2.5696925885E+02	-2.0789090109E+02	4.6421679153E+02	3.2500000000E+02	0.000E+00	0.0
	25	2	5	5	0	0	1.1184673762E+01	-5.9275604101E+01	-1.9444551479E+02	2.3899048698E+02	1.2517467986E+02	0.000E+00	0.0
	-5	1	9	9	0	501	-2.1445624418E+01	-8.5703029017E+01	-8.9263789267E+01	1.2565993977E+02	4.1800000000E+00	0.000E+00	0.0
	5	1	9	9	501	0	3.2630298180E+01	2.6427424916E+01	-1.0518172552E+02	1.1333054721E+02	4.1800000000E+00	0.000E+00	0.0
</event>
<event>
    11  -1  1.0000000E+00  1.0000000E+00  -1.0000000E+00  -1.0000000E+00
	2212	-1	0	0	0	0	0.0000000000E+00	0.0000000000E+00	6.5000000000E+03	6.5000000000E+03	9.3827000000E-01	0.000E+00	0.0
	2212	-1	0	0	0	0	0.0000000000E+00	0.0000000000E+00	-6.5000000000E+03	6.5000000000E+03	9.3827000000E-01	0.000E+00	0.0
	2212	1	0	0	0	0	0.0000000000E+00	0.0000000000E+00	5.2248148757E+03	5.2248148757E+03	9.3827000000E-01	0.000E+00	0.0
	2212	1	0	0	0	0	0.0000000000E+00	0.0000000000E+00	-6.2847101527E+03	6.2847101527E+03	9.3827000000E-01	0.000E+00	0.0
	51	2	1	2	0	0	-8.6955496962E+01	-1.0286320297E+01	9.3163789853E+02	1.4049035140E+03	1.0479206281E+03	0.000E+00	0.0
	1000022	2	5	5	0	0	8.6955496962E+01	1.0286320297E+01	1.0138388680E+03	1.3309181198E+03	8.5779177220E+02	0.000E+00	0.0
	14	1	6	6	0	0	2.8093386548E+02	-1.3512664944E+02	6.1422562651E+02	7.6163059840E+02	3.2500000000E+02	0.000E+00	0.0
	-14	1	6	6	0	0	-1.9397836851E+02	1.4541296974E+02	3.9961324148E+02	5.6928752137E+02	3.2500000000E+02	0.000E+00	0.0
	25	2	5	5	0	0	-8.6955496962E+01	-1.0286320297E+01	4.6056409028E+01	1.5955685187E+02	1.2518038716E+02	0.000E+00	0.0
	-5	1	9	9	0	501	-8.7724039357E+01	-7.9641576313E+00	-2.2355692889E+01	9.0973536221E+01	4.1800000000E+00	0.000E+00	0.0
	5	1	9	9	501	0	7.6854239482E-01	-2.3221626658E+00	6.8412101917E+01	6.8583315650E+01	4.1800000000E+00	0.000E+00	0.0
</event>
<event>
    11  -1  1.0000000E+00  1.0000000E+00  -1.0000000E+00  -1.0000000E+00
	2212	-1	0	0	0	0	0.0000000000E+00	0.0000000000E+00	6.5000000000E+03	6.5000000000E+03	9.3827000000E-01	0.000E+00	0.0
	2212	-1	0	0	0	0	0.0000000000E+00	0.0000000000E+00	-6.5000000000E+03	6.5000000000E+03	9.3827000000E-01	0.000E+00	0.0
	2212	1	0	0	0	0	0.0000000000E+00	0.0000000000E+00	6.2476463545E+03	6.2476463545E+03	9.3827000000E-01	0.000E+00	0.0
	2212	1	0	0	0	0	0.0000000000E+00	0.0000000000E+00	-5.3865426409E+03	5.3865426409E+03	9.3827000000E-01	0.000E+00	0.0
	51	2	1	2	0	0	-1.2024720239E+01	6.2321278689E+01	-1.0539523622E+03	1.4962567335E+03	1.0601604100E+03	0.000E+00	0.0
	1000022	2	5	5	0	0	1.2024720239E+01	-6.2321278689E+01	-5.1506662503E+02	9.9239052890E+02	8.4588226011E+02	0.000E+00	0.0
	14	1	6	6	0	0	2.6079919513E+02	-1.2057075116E+02	-2.3897074206E+02	4.9526310359E+02	3.2500000000E+02	0.000E+00	0.0
	-14	1	6	6	0	0	-2.4877447490E+02	5.8249472474E+01	-2.7609588297E+02	4.9712742531E+02	3.2500000000E+02	0.000E+00	0.0
	25	2	5	5	0	0	-1.2024720239E+01	6.2321278689E+01	-3.4603708849E+02	3.7342047570E+02	1.2519045248E+02	0.000E+00	0.0
	-5	1	9	9	0	501	-5.5141924101E+01	2.6109993268E+01	-2.7970682626E+02	2.8631406636E+02	4.1800000000E+00	0.000E+00	0.0
	5	1	9	9	501	0	4.3117203862E+01	3.6211285421E+01	-6.6330262230E+01	8.7106409341E+01	4.1800000000E+00	0.000E+00	0.0
</event>
<event>
    11  -1  1.0000000E+00  1.0000000E+00  -1.0000000E+00  -1.0000000E+00
	2212	-1	0	0	0	0	0.0000000000E+00	0.0000000000E+00	6.5000000000E+03	6.5000000000E+03	9.3827000000E-01	0.000E+00	0.0
	2212	-1	0	0	0	0	0.0000000000E+00	0.0000000000E+00	-6.5000000000E+03	6.5000000000E+03	9.3827000000E-01	0.000E+00	0.0
	2212	1	0	0	0	0	0.0000000000E+00	0.0000000000E+00	6.0939826579E+03	6.0939826579E+03	9.3827000000E-01	0.000E+00	0.0
	2212	1	0	0	0	0	0.0000000000E+00	0.0000000000E+00	-5.8399651260E+03	5.8399651260E+03	9.3827000000E-01	0.000E+00	0.0
	51	2	1	2	0	0	6.6508790156E+01	-5.1252002597E+01	-3.4083096661E+02	1.0932329832E+03	1.0353465221E+03	0.000E+00	0.0
	1000022	2	5	5	0	0	-6.6508790156E+01	5.1252002597E+01	-1.2667091126E+02	8.6876314060E+02	8.5536757466E+02	0.000E+00	0.0
	14	1	6	6	0	0	2.3691759194E+01	3.4894405705E+01	2.1215311649E+02	3.9040090143E+02	3.2500000000E+02	0.000E+00	0.0
	-14	1	6	6	0	0	-9.0200549350E+01	1.6357596892E+01	-3.3882402775E+02	4.7836223917E+02	3.2500000000E+02	0.000E+00	0.0
	25	2	5	5	0	0	6.6508790156E+01	-5.1252002597E+01	-1.2734662061E+02	1.9728907547E+02	1.2512246233E+02	0.000E+00	0.0
	-5	1	9	9	0	501	-3.3408267603E+01	-2.5792908592E+01	-6.2088654503E+01	7.5192153153E+01	4.1800000000E+00	0.000E+00	0.0
	5	1	9	9	501	0	9.9917057759E+01	-2.5459094005E+01	-6.5257966108E+01	1.2209692232E+02	4.1800000000E+00	0.000E+00	0.0
</event>
<event>
    11  -1  1.0000000E+00  1.0000000E+00  -1.0000000E+00  -1.0000000E+00
	2212	-1	0	0	0	0	0.0000000000E+00	0.0000000000E+00	6.5000000000E+03	6.5000000000E+03	9.3827000000E-01	0.000E+00	0.0
	2212	-1	0	0	0	0	0.0000000000E+00	0.0000000000E+00	-6.5000000000E+03	6.5000000000E+03	9.3827000000E-01	0.000E+00	0.0
	2212	1	0	0	0	0	0.0000000000E+00	0.0000000000E+00	5.6889287937E+03	5.6889287937E+03	9.3827000000E-01	0.000E+00	0.0
	2212	1	0	0	0	0	0.0000000000E+00	0.0000000000E+00	-6.1543376554E+03	6.1543376554E+03	9.3827000000E-01	0.000E+00	0.0
	51	2	1	2	0	0	-2.2367498753E+01	1.1227605302E+02	3.7315483686E+02	1.1286176716E+03	1.0589745508E+03	0.000E+00	0.0
	1000022	2	5	5	0	0	2.2367498753E+01	-1.1227605302E+02	4.7792387658E+02	9.8666500442E+02	8.5556436465E+02	0.000E+00	0.0
	14	1	6	6	0	0	2.8202457060E+02	-4.8515192917E+01	1.7004183883E+02	4.6522124771E+02	3.2500000000E+02	0.000E+00	0.0
	-14	1	6	6	0	0	-2.5965707185E+02	-6.3760860100E+01	3.0788203775E+02	5.2144375671E+02	3.2500000000E+02	0.000E+00	0.0
	25	2	5	5	0	0	-2.2367498753E+01	1.1227605302E+02	-1.2515014941E+01	1.7006854648E+02	1.2514179086E+02	0.000E+00	0.0
	-5	1	9	9	0	501	-1.6844594045E+01	-9.9579779024E+00	3.3711144860E+01	3.9202236674E+01	4.1800000000E+00	0.000E+00	0.0
	5	1	9	9	501	0	-5.5229047074E+00	1.2223403092E+02	-4.6226159802E+01	1.3086630980E+02	4.1800000000E+00	0.000E+00	0.0
</event>
<event>
    11  -1  1.0000000E+00  1.0000000E+00  -1.0000000E+00  -1.0000000E+00
	2212	-1	0	0	0	0	0.0000000000E+00	0.0000000000E+00	6.5000000000E+03	6.5000000000E+03	9.3827000000E-01	0.000E+00	0.0
	2212	-1	0	0	0	0	0.0000000000E+00	0.0000000000E+00	-6.5000000000E+03	6.5000000000E+03	9.3827000000E-01	0.000E+00	0.0
	2212	1	0	0	0	0	0.0000000000E+00	0.0000000000E+00	6.2438079003E+03	6.2438079003E+03	9.3827000000E-01	0.000E+00	0.0
	2212	1	0	0	0	0	0.0000000000E+00	0.0000000000E+00	-5.4757800583E+03	5.4757800583E+03	9.3827000000E-01	0.000E+00	0.0
	51	2	1	2	0	0	9.9543512807E+00	-8.1781486778E+01	-7.6830435116E+02	1.2832252750E+03	1.0244941335E+03	0.000E+00	0.0
	1000022	2	5	5	0	0	-9.9543512807E+00	8.1781486778E+01	-6.5788514029E+02	1.0944361824E+03	8.7074129268E+02	0.000E+00	0.0
	14	1	6	6	0	0	6.9297672078E+01	-1.5825647158E+02	-6.6789361848E+01	3.7407632511E+02	3.2500000000E+02	0.000E+00	0.0
	-14	1	6	6	0	0	-7.9252023359E+01	2.4003795836E+02	-5.9109577844E+02	7.2035985726E+02	3.2500000000E+02	0.000E+00	0.0
	25	2	5	5	0	0	9.9543512807E+00	-8.1781486778E+01	-1.1014270175E+02	1.8597585905E+02	1.2517309900E+02	0.000E+00	0.0
	-5	1	9	9	0	501	6.6750795043E+01	-3.1728288673E+01	-5.5269785611E+01	9.2382761068E+01	4.1800000000E+00	0.000E+00	0.0
	5	1	9	9	501	0	-5.6796443763E+01	-5.0053198105E+01	-5.4872916142E+01	9.3593097986E+01	4.1800000000E+00	0.000E+00	0.0
</event>
<event>
    11  -1  1.0000000E+00  1.0000000E+00  -1.0000000E+00  -1.0000000E+00
	2212	-1	0	0	0	0	0.0000000000E+00	0.0000000000E+00	6.5000000000E+03	6.5000000000E+03	9.3827000000E-01	0.000E+00	0.0
	2212	-1	0	0	0	0	0.0000000000E+00	0.0000000000E+00	-6.5000000000E+03	6.5000000000E+03	9.3827000000E-01	0.000E+00	0.0
	2212	1	0	0	0	0	0.0000000000E+00	0.0000000000E+00	6.2738123907E+03	6.2738123907E+03	9.3827000000E-01	0.000E+00	0.0
	2212	1	0	0	0	0	0.0000000000E+00	0.0000000000E+00	-5.3251129164E+03	5.3251129164E+03	9.3827000000E-01	0.000E+00	0.0
	51	2	1	2	0	0	1.1489004570E+02	-2.6517345839E+01	-9.6023218694E+02	1.4138346252E+03	1.0310090215E+03	0.000E+00	0.0
	1000022	2	5	5	0	0	-1.1489004570E+02	2.6517345839E+01	-7.8508277548E+02	1.1637114693E+03	8.5086222571E+02	0.000E+00	0.0
	14	1	6	6	0	0	-1.2223035715E+02	2.5475051194E+02	-2.5215207029E+02	4.9904283393E+02	3.2500000000E+02	0.000E+00	0.0
	-14	1	6	6	0	0	7.3403114476E+00	-2.2823316610E+02	-5.3293070519E+02	6.6466863535E+02	3.2500000000E+02	0.000E+00	0.0
	25	2	5	5	0	0	1.1489004570E+02	-2.6517345839E+01	-1.6361669886E+02	2.3736322358E+02	1.2517181605E+02	0.000E+00	0.0
	-5	1	9	9	0	501	1.2741863503E+02	-5.6294478215E+01	-1.3416034314E+02	1.9344520387E+02	4.1800000000E+00	0.000E+00	0.0
	5	1	9	9	501	0	-1.2528589326E+01	2.9777132377E+01	-2.9456355718E+01	4.3918019710E+01	4.1800000000E+00	0.000E+00	0.0
</event>
<event>
    11  -1  1.0000000E+00  1.0000000E+00  -1.0000000E+00  -1.0000000E+00
	2212	-1	0	0	0	0	0.0000000000E+00	0.0000000000E+00	6.5000000000E+03	6.5000000000E+03	9.3827000000E-01	0.000E+00	0.0
	2212	-1	0	0	0	0	0.0000000000E+00	0.0000000000E+00	-6.5000000000E+03	6.5000000000E+03	9.3827000000E-01	0.000E+00	0.0
	2212	1	0	0	0	0	0.0000000000E+00	0.0000000000E+00	6.3141847677E+03	6.3141847677E+03	9.3827000000E-01	0.000E+00	0.0
	2212	1	0	0	0	0	0.0000000000E+00	0.0000000000E+00	-5.0319990940E+03	5.0319990940E+03	9.3827000000E-01	0.000E+00	0.0
	51	2	1	2	0	0	-1.2989117092E+02	-4.1096078284E+01	-1.2966026045E+03	1.6705827233E+03	1.0445610166E+03	0.000E+00	0.0
	1000022	2	5	5	0	0	1.2989117092E+02	4.1096078284E+01	-1.0515037816E+03	1.3581020573E+03	8.4865799426E+02	0.000E+00	0.0
	14	1	6	6	0	0	1.8566090671E+02	-1.7183875108E+02	-7.7606394627E+02	8.7857770138E+02	3.2500000000E+02	0.000E+00	0.0
	-14	1	6	6	0	0	-5.5769735788E+01	2.1293482936E+02	-2.7543983536E+02	4.7952435588E+02	3.2500000000E+02	0.000E+00	0.0
	25	2	5	5	0	0	-1.2989117092E+02	-4.1096078284E+01	-2.3068189208E+02	2.9571408102E+02	1.2518817214E+02	0.000E+00	0.0
	-5	1	9	9	0	501	-1.3970468941E+02	-6.7132765098E+01	-1.7858326588E+02	2.3650298866E+02	4.1800000000E+00	0.000E+00	0.0
	5	1	9	9	501	0	9.8135184957E+00	2.6036686814E+01	-5.2098626200E+01	5.9211092351E+01	4.1800000000E+00	0.000E+00	0.0
</event>
<event>
    11  -1  1.0000000E+00  1.0000000E+00  -1.0000000E+00  -1.0000000E+00
	2212	-1	0	0	0	0	0.0000000000E+00	0.0000000000E+00	6.5000000000E+03	6.5000000000E+03	9.3827000000E-01	0.000E+00	0.0
	2212	-1	0	0	0	0	0.0000000000E+00	0.0000000000E+00	-6.5000000000E+03	6.5000000000E+03	9.3827000000E-01	0.000E+00	0.0
	2212	1	0	0	0	0	0.0000000000E+00	0.0000000000E+00	6.1005359855E+03	6.1005359855E+03	9.3827000000E-01	0.000E+00	0.0
	2212	1	0	0	0	0	0.0000000000E+00	0.0000000000E+00	-5.7984049884E+03	5.7984049884E+03	9.3827000000E-01	0.000E+00	0.0
	51	2	1	2	0	0	-1.2393954854E+02	-6.4455504876E+01	-2.7698873092E+02	1.1033069022E+03	1.0587954663E+03	0.000E+00	0.0
	1000022	2	5	5	0	0	1.2393954854E+02	6.4455504876E+01	-2.7591235817E+02	9.1163608734E+02	8.5757635377E+02	0.000E+00	0.0
	14	1	6	6	0	0	3.2783475016E+02	1.2832678175E+02	-1.3277930657E+02	4.9719083919E+02	3.2500000000E+02	0.000E+00	0.0
	-14	1	6	6	0	0	-2.0389520162E+02	-6.3871276870E+01	-1.4313305159E+02	4.1444524814E+02	3.2500000000E+02	0.000E+00	0.0
	25	2	5	5	0	0	-1.2393954854E+02	-6.4455504876E+01	-2.6218639016E+01	1.8942293877E+02	1.2521225539E+02	0.000E+00	0.0
	-5	1	9	9	0	501	-1.0118636639E+02	-1.0099522442E+02	-1.0508879553E+01	1.4341068666E+02	4.1800000000E+00	0.000E+00	0.0
	5	1	9	9	501	0	-2.2753182154E+01	3.6539719543E+01	-1.5709759463E+01	4.6012252116E+01	4.1800000000E+00	0.000E+00	0.0
</event>
<event>
    11  -1  1.0000000E+00  1.0000000E+00  -1.0000000E+00  -1.0000000E+00
	2212	-1	0	0	0	0	0.0000000000E+00	0.0000000000E+00	6.5000000000E+03	6.5000000000E+03	9.3827000000E-01	0.000E+00	0.0
	2212	-1	0	0	0	0	0.0000000000E+00	0.0000000000E+00	-6.5000000000E+03	6.5000000000E+03	9.3827000000E-01	0.000E+00	0.0
	2212	1	0	0	0	0	0.0000000000E+00	0.0000000000E+00	6.3048917879E+03	6.3048917879E+03	9.3827000000E-01	0.000E+00	0.0
	2212	1	0	0	0	0	0.0000000000E+00	0.0000000000E+00	-5.0660679568E+03	5.0660679568E+03	9.3827000000E-01	0.000E+00	0.0
	51	2	1	2	0	0	-1.2044695032E+02	-4.9422802851E+01	-1.1929388122E+03	1.5997314650E+03	1.0578694008E+03	0.000E+00	0.0
	1000022	2	5	5	0	0	1.2044695032E+02	4.9422802851E+01	-1.0790380307E+03	1.3878940904E+03	8.6312041637E+02	0.000E+00	0.0
	14	1	6	6	0	0	5.6230442394E+01	-3.3773306299E+01	-9.2968618268E+01	3.4434091080E+02	3.2500000000E+02	0.000E+00	0.0
	-14	1	6	6	0	0	6.4216507928E+01	8.3196109150E+01	-9.8606941248E+02	1.0435531796E+03	3.2500000000E+02	0.000E+00	0.0
	25	2	5	5	0	0	-1.2044695032E+02	-4.9422802851E+01	-1.5978580033E+02	2.4114616492E+02	1.2517942956E+02	0.000E+00	0.0
	-5	1	9	9	0	501	-1.0995388638E+02	-7.0625955929E+01	-7.0215719976E+01	1.4841025070E+02	4.1800000000E+00	0.000E+00	0.0
	5	1	9	9	501	0	-1.0493063938E+01	2.1203153078E+01	-8.9570080357E+01	9.2735914221E+01	4.1800000000E+00	0.000E+00	0.0
</event>
<event>
    11  -1  1.0000000E+00  1.0000000E+00  -1.0000000E+00  -1.0000000E+00
	2212	-1	0	0	0	0	0.0000000000E+00	0.0000000000E+00	6.5000000000E+03	6.5000000000E+03	9.3827000000E-01	0.000E+00	0.0
	2212	-1	0	0	0	0	0.0000000000E+00	0.0000000000E+00	-6.5000000000E+03	6.5000000000E+03	9.3827000000E-01	0.000E+00	0.0
	2212	1	0	0	0	0	0.0000000000E+00	0.0000000000E+00	6.2326573669E+03	6.2326573669E+03	9.3827000000E-01	0.000E+00	0.0
	2212	1	0	0	0	0	0.0000000000E+00	0.0000000000E+00	-5.4702927409E+03	5.4702927409E+03	9.3827000000E-01	0.000E+00	0.0
	51	2	1	2	0	0	-7.4244315368E+01	9.7897497476E+01	-8.4123648595E+02	1.3505234406E+03	1.0493515140E+03	0.000E+00	0.0
	1000022	2	5	5	0	0	7.4244315368E+01	-9.7897497476E+01	-5.5551492629E+02	1.0258411060E+03	8.5361408322E+02	0.000E+00	0.0
	14	1	6	6	0	0	-1.0901633312E+02	-1.4785330550E+02	-2.3427703538E+01	3.7405750645E+02	3.2500000000E+02	0.000E+00	0.0
	-14	1	6	6	0	0	1.8326064849E+02	4.9955808028E+01	-5.3208722275E+02	6.5178359956E+02	3.2500000000E+02	0.000E+00	0.0
	25	2	5	5	0	0	-7.4244315368E+01	9.7897497476E+01	-2.0684969964E+02	2.7120878618E+02	1.2518493951E+02	0.000E+00	0.0
	-5	1	9	9	0	501	4.8731302240E+00	9.3565780796E+01	-1.3352150654E+02	1.6316791303E+02	4.1800000000E+00	0.000E+00	0.0
	5	1	9	9	501	0	-7.9117445592E+01	4.3317166804E+00	-7.3328193102E+01	1.0804087315E+02	4.1800000000E+00	0.000E+00	0.0
</event>
<event>
    11  -1  1.0000000E+00  1.0000000E+00  -1.0000000E+00  -1.0000000E+00
	2212	-1	0	0	0	0	0.0000000000E+00	0.0000000000E+00	6.5000000000E+03	6.5000000000E+03	9.3827000000E-01	0.000E+00	0.0
	2212	-1	0	0	0	0	0.0000000000E+00	0.0000000000E+00	-6.5000000000E+03	6.5000000000E+03	9.3827000000E-01	0.000E+00	0.0
	2212	1	0	0	0	0	0.0000000000E+00	0.0000000000E+00	4.8435042979E+03	4.8435042979E+03	9.3827000000E-01	0.000E+00	0.0
	2212	1	0	0	0	0	0.0000000000E+00	0.0000000000E+00	-6.3284955504E+03	6.3284955504E+03	9.3827000000E-01	0.000E+00	0.0
	51	2	1	2	0	0	1.0558307045E+02	3.4215033991E+01	1.2998352389E+03	1.6847182662E+03	1.0660138530E+03	0.000E+00	0.0
	1000022	2	5	5	0	0	-1.0558307045E+02	-3.4215033991E+01	1.4020705023E+03	1.6412838881E+03	8.4598620251E+02	0.000E+00	0.0
	14	1	6	6	0	0	-2.9648603847E+02	-1.3388924009E+02	8.3245899245E+02	9.5102222568E+02	3.2500000000E+02	0.000E+00	0.0
	-14	1	6	6	0	0	1.9090296801E+02	9.9674206097E+01	5.6961150981E+02	6.9026166247E+02	3.2500000000E+02	0.000E+00	0.0
	25	2	5	5	0	0	1.0558307045E+02	3.4215033991E+01	8.2920750157E+01	1.8671626355E+02	1.2517451398E+02	0.000E+00	0.0
	-5	1	9	9	0	501	8.1054145488E+01	-3.6815615828E+01	2.7560079662E+01	9.3285553333E+01	4.1800000000E+00	0.000E+00	0.0
	5	1	9	9	501	0	2.4528924965E+01	7.1030649819E+01	5.5360670495E+01	9.3430710215E+01	4.1800000000E+00	0.000E+00	0.0
</event>
<event>
    11  -1  1.0000000E+00  1.0000000E+00  -1.0000000E+00  -1.0000000E+00
	2212	-1	0	0	0	0	0.0000000000E+00	0.0000000000E+00	6.5000000000E+03	6.5000000000E+03	9.3827000000E-01	0.000E+00	0.0
	2212	-1	0	0	0	0	0.0000000000E+00	0.0000000000E+00	-6.5000000000E+03	6.5000000000E+03	9.3827000000E-01	0.000E+00	0.0
	2212	1	0	0	0	0	0.0000000000E+00	0.0000000000E+00	6.3215845063E+03	6.3215845063E+03	9.3827000000E-01	0.000E+00	0.0
	2212	1	0	0	0	0	0.0000000000E+00	0.0000000000E+00	-4.9608169034E+03	4.9608169034E+03	9.3827000000E-01	0.000E+00	0.0
	51	2	1	2	0	0	-1.0100885466E+02	-9.4329206268E+01	-1.3610528510E+03	1.7233752057E+03	1.0480727305E+03	0.000E+00	0.0
	1000022	2	5	5	0	0	1.0100885466E+02	9.4329206268E+01	-1.1300232080E+03	1.4209300514E+03	8.5028758211E+02	0.000E+00	0.0
	14	1	6	6	0	0	-8.4843137425E+01	1.3965956704E+02	-1.9504273841E+02	4.1275879450E+02	3.2500000000E+02	0.000E+00	0.0
	-14	1	6	6	0	0	1.8585199209E+02	-4.5330360773E+01	-9.3498046963E+02	1.0081712569E+03	3.2500000000E+02	0.000E+00	0.0
	25	2	5	5	0	0	-1.0100885466E+02	-9.4329206268E+01	-2.3074439488E+02	2.9666853896E+02	1.2517371276E+02	0.000E+00	0.0
	-5	1	9	9	0	501	-1.1014126963E+02	-3.3789100865E+01	-1.9243636996E+02	2.2432572633E+02	4.1800000000E+00	0.000E+00	0.0
	5	1	9	9	501	0	9.1324149646E+00	-6.0540105404E+01	-3.8308024922E+01	7.2342812627E+01	4.1800000000E+00	0.000E+00	0.0
</event>
<event>
    11  -1  1.0000000E+00  1.0000000E+00  -1.0000000E+00  -1.0000000E+00
	2212	-1	0	0	0	0	0.0000000000E+00	0.0000000000E+00	6.5000000000E+03	6.5000000000E+03	9.3827000000E-01	0.000E+00	0.0
	2212	-1	0	0	0	0	0.0000000000E+00	0.0000000000E+00	-6.5000000000E+03	6.5000000000E+03	9.3827000000E-01	0.000E+00	0.0
	2212	1	0	0	0	0	0.0000000000E+00	0.0000000000E+00	6.2198096181E+03	6.2198096181E+03	9.3827000000E-01	0.000E+00	0.0
	2212	1	0	0	0	0	0.0000000000E+00	0.0000000000E+00	-5.5086277987E+03	5.5086277987E+03	9.3827000000E-01	0.000E+00	0.0
	51	2	1	2	0	0	-1.0947459103E+02	-8.6008943913E+01	-7.1119428695E+02	1.2791682301E+03	1.0540834041E+03	0.000E+00	0.0
	1000022	2	5	5	0	0	1.0947459103E+02	8.6008943913E+01	-5.9098207532E+02	1.0490672418E+03	8.5551156620E+02	0.000E+00	0.0
	14	1	6	6	0	0	-1.5275209725E+02	-1.4515320039E+02	-2.2840537801E+02	4.4966284203E+02	3.2500000000E+02	0.000E+00	0.0
	-14	1	6	6	0	0	2.6222668828E+02	2.3116214430E+02	-3.6257669731E+02	5.9940439975E+02	3.2500000000E+02	0.000E+00	0.0
	25	2	5	5	0	0	-1.0947459103E+02	-8.6008943913E+01	-1.2019974412E+02	2.2249534143E+02	1.2519574257E+02	0.000E+00	0.0
	-5	1	9	9	0	501	2.3043060316E+01	3.5049083775E+00	-2.3416890792E+00	2.3795439042E+01	4.1800000000E+00	0.000E+00	0.0
	5	1	9	9	501	0	-1.3251765135E+02	-8.9513852290E+01	-1.1785805504E+02	1.9869990239E+02	4.1800000000E+00	0.000E+00	0.0
</event>
<event>
    11  -1  1.0000000E+00  1.0000000E+00  -1.0000000E+00  -1.0000000E+00
	2212	-1	0	0	0	0	0.0000000000E+00	0.0000000000E+00	6.5000000000E+03	6.5000000000E+03	9.3827000000E-01	0.000E+00	0.0
	2212	-1	0	0	0	0	0.0000000000E+00	0.0000000000E+00	-6.5000000000E+03	6.5000000000E+03	9.3827000000E-01	0.000E+00	0.0
	2212	1	0	0	0	0	0.0000000000E+00	0.0000000000E+00	5.1780888148E+03	5.1780888148E+03	9.3827000000E-01	0.000E+00	0.0
	2212	1	0	0	0	0	0.0000000000E+00	0.0000000000E+00	-6.2912724324E+03	6.2912724324E+03	9.3827000000E-01	0.000E+00	0.0
	51	2	1	2	0	0	1.3832271847E+02	-4.6004399808E+01	1.0929027092E+03	1.5229455461E+03	1.0505604339E+03	0.000E+00	0.0
	1000022	2	5	5	0	0	-1.3832271847E+02	4.6004399808E+01	9.3950314216E+02	1.2716330917E+03	8.4447320059E+02	0.000E+00	0.0
	14	1	6	6	0	0	-2.1233933575E+01	1.7685172533E+02	1.4968138899E+02	3.9969604814E+02	3.2500000000E+02	0.000E+00	0.0
	-14	1	6	6	0	0	-1.1708878489E+02	-1.3084732552E+02	7.8982175317E+02	8.7193704355E+02	3.2500000000E+02	0.000E+00	0.0
	25	2	5	5	0	0	1.3832271847E+02	-4.6004399808E+01	1.7368047543E+02	2.5900566115E+02	1.2517765661E+02	0.000E+00	0.0
	-5	1	9	9	0	501	1.4736705481E+02	-1.2970989744E+01	1.6824979606E+02	2.2407757963E+02	4.1800000000E+00	0.000E+00	0.0
	5	1	9	9	501	0	-9.0443363402E+00	-3.3033410064E+01	5.4306793705E+00	3.4928081520E+01	4.1800000000E+00	0.000E+00	0.0
</event>
<event>
    11  -1  1.0000000E+00  1.0000000E+00  -1.0000000E+00  -1.0000000E+00
	2212	-1	0	0	0	0	0.0000000000E+00	0.0000000000E+00	6.5000000000E+03	6.5000000000E+03	9.3827000000E-01	0.000E+00	0.0
	2212	-1	0	0	0	0	0.0000000000E+00	0.0000000000E+00	-6.5000000000E+03	6.5000000000E+03	9.3827000000E-01	0.000E+00	0.0
	2212	1	0	0	0	0	0.0000000000E+00	0.0000000000E+00	5.2966412691E+03	5.2966412691E+03	9.3827000000E-01	0.000E+00	0.0
	2212	1	0	0	0	0	0.0000000000E+00	0.0000000000E+00	-6.2685211090E+03	6.2685211090E+03	9.3827000000E-01	0.000E+00	0.0
	51	2	1	2	0	0	1.4268946670E+02	-2.7418486520E+01	9.9680109739E+02	1.4590863795E+03	1.0555607884E+03	0.000E+00	0.0
	1000022	2	5	5	0	0	-1.4268946670E+02	2.7418486520E+01	7.7927960984E+02	1.1630355264E+03	8.5103634950E+02	0.000E+00	0.0
	14	1	6	6	0	0	-9.4145870663E+00	6.5938049012E+01	2.8164777148E+01	3.3294851769E+02	3.2500000000E+02	0.000E+00	0.0
	-14	1	6	6	0	0	-1.3327487963E+02	-3.8519562492E+01	7.5111483269E+02	8.3008700876E+02	3.2500000000E+02	0.000E+00	0.0
	25	2	5	5	0	0	1.4268946670E+02	-2.7418486520E+01	1.9260023006E+02	2.7180209541E+02	1.2517776615E+02	0.000E+00	0.0
	-5	1	9	9	0	501	1.6016374253E+02	-3.1944474363E+01	1.9350930624E+02	2.5325125442E+02	4.1800000000E+00	0.000E+00	0.0
	5	1	9	9	501	0	-1.7474275833E+01	4.5259878425E+00	-9.0907618137E-01	1.8550840987E+01	4.1800000000E+00	0.000E+00	0.0
</event>
<event>
    11  -1  1.0000000E+00  1.0000000E+00  -1.0000000E+00  -1.0000000E+00
	2212	-1	0	0	0	0	0.0000000000E+00	0.0000000000E+00	6.5000000000E+03	6.5000000000E+03	9.3827000000E-01	0.000E+00	0.0
	2212	-1	0	0	0	0	0.0000000000E+00	0.0000000000E+00	-6.5000000000E+03	6.5000000000E+03	9.3827000000E-01	0.000E+00	0.0
	2212	1	0	0	0	0	0.0000000000E+00	0.0000000000E+00	6.3236912550E+03	6.3236912550E+03	9.3827000000E-01	0.000E+00	0.0
	2212	1	0	0	0	0	0.0000000000E+00	0.0000000000E+00	-4.9352997602E+03	4.9352997602E+03	9.3827000000E-01	0.000E+00	0.0
	51	2	1	2	0	0	6.6047669168E+01	7.9046178741E+01	-1.2530772293E+03	1.6383816643E+03	1.0504672019E+03	0.000E+00	0.0
	1000022	2	5	5	0	0	-6.6047669168E+01	-7.9046178741E+01	-1.2910914217E+03	1.5519436128E+03	8.5498615494E+02	0.000E+00	0.0
	14	1	6	6	0	0	-6.2603815247E+01	2.2578197619E+02	-4.6881649156E+02	6.1669331212E+02	3.2500000000E+02	0.000E+00	0.0
	-14	1	6	6	0	0	-3.4438539215E+00	-3.0482815493E+02	-8.2227493018E+02	9.3525030070E+02	3.2500000000E+02	0.000E+00	0.0
	25	2	5	5	0	0	6.6047669168E+01	7.9046178741E+01	-9.7300073017E+01	1.8906537195E+02	1.2517115356E+02	0.000E+00	0.0
	-5	1	9	9	0	501	9.4009183983E+00	-3.3856194688E+01	-2.6429526326E+01	4.4165727066E+01	4.1800000000E+00	0.000E+00	0.0
	5	1	9	9	501	0	5.6646750770E+01	1.1290237343E+02	-7.0870546691E+01	1.4489964488E+02	4.1800000000E+00	0.000E+00	0.0
</event>
<event>
    11  -1  1.0000000E+00  1.0000000E+00  -1.0000000E+00  -1.0000000E+00
	2212	-1	0	0	0	0	0.0000000000E+00	0.0000000000E+00	6.5000000000E+03	6.5000000000E+03	9.3827000000E-01	0.000E+00	0.0
	2212	-1	0	0	0	0	0.0000000000E+00	0.0000000000E+00	-6.5000000000E+03	6.5000000000E+03	9.3827000000E-01	0.000E+00	0.0
	2212	1	0	0	0	0	0.0000000000E+00	0.0000000000E+00	6.0163525800E+03	6.0163525800E+03	9.3827000000E-01	0.000E+00	0.0
	2212	1	0	0	0	0	0.0000000000E+00	0.0000000000E+00	-5.9287355404E+03	5.9287355404E+03	9.3827000000E-01	0.000E+00	0.0
	51	2	1	2	0	0	-1.3552150511E+01	1.4728644872E+02	-7.5074852943E+01	1.0642722962E+03	1.0512670108E+03	0.000E+00	0.0
	1000022	2	5	5	0	0	1.3552150511E+01	-1.4728644872E+02	-8.4840995028E+01	8.6111948124E+02	8.4406860371E+02	0.000E+00	0.0
	14	1	6	6	0	0	2.1615005918E+02	-2.4355979897E+02	-1.6582466295E+01	4.6037180837E+02	3.2500000000E+02	0.000E+00	0.0
	-14	1	6	6	0	0	-2.0259790866E+02	9.6273350249E+01	-6.8258528734E+01	4.0074767287E+02	3.2500000000E+02	0.000E+00	0.0
	25	2	5	5	0	0	-1.3552150511E+01	1.4728644872E+02	-2.7760446522E+00	1.9379239836E+02	1.2518317969E+02	0.000E+00	0.0
	-5	1	9	9	0	501	2.4939114732E+01	1.4898278237E+02	-1.7943943255E+01	1.5217518322E+02	4.1800000000E+00	0.000E+00	0.0
	5	1	9	9	501	0	-3.8491265243E+01	-1.6963336560E+00	1.5167898603E+01	4.1617215139E+01	4.1800000000E+00	0.000E+00	0.0
</event>
<event>
    11  -1  1.0000000E+00  1.0000000E+00  -1.0000000E+00  -1.0000000E+00
	2212	-1	0	0	0	0	0.0000000000E+00	0.0000000000E+00	6.5000000000E+03	6.5000000000E+03	9.3827000000E-01	0.000E+00	0.0
	2212	-1	0	0	0	0	0.0000000000E+00	0.0000000000E+00	-6.5000000000E+03	6.5000000000E+03	9.3827000000E-01	0.000E+00	0.0
	2212	1	0	0	0	0	0.0000000000E+00	0.0000000000E+00	5.7736569589E+03	5.7736569589E+03	9.3827000000E-01	0.000E+00	0.0
	2212	1	0	0	0	0	0.0000000000E+00	0.0000000000E+00	-6.0974686092E+03	6.0974686092E+03	9.3827000000E-01	0.000E+00	0.0
	51	2	1	2	0	0	-1.6699776317E+01	-2.8903142090E+01	4.9738749343E+02	1.1908031285E+03	1.0814358502E+03	0.000E+00	0.0
	1000022	2	5	5	0	0	1.6699776317E+01	2.8903142090E+01	9.1768673052E+01	8.6311720497E+02	8.5757538795E+02	0.000E+00	0.0
	14	1	6	6	0	0	1.7059758815E+02	1.3629417557E+02	-1.4709442774E+02	4.1825997902E+02	3.2500000000E+02	0.000E+00	0.0
	-14	1	6	6	0	0	-1.5389781183E+02	-1.0739103348E+02	2.3886310080E+02	4.4485722595E+02	3.2500000000E+02	0.000E+00	0.0
	25	2	5	5	0	0	-1.6699776317E+01	-2.8903142090E+01	2.3204297722E+02	2.6575722688E+02	1.2517462285E+02	0.000E+00	0.0
	-5	1	9	9	0	501	1.3635950255E+01	-4.9064623078E+01	2.2191384038E+02	2.2772022600E+02	4.1800000000E+00	0.000E+00	0.0
	5	1	9	9	501	0	-3.0335726572E+01	2.0161480989E+01	1.0129136840E+01	3.8037000873E+01	4.1800000000E+00	0.000E+00	0.0
</event>
<event>
    11  -1  1.0000000E+00  1.0000000E+00  -1.0000000E+00  -1.0000000E+00
	2212	-1	0	0	0	0	0.0000000000E+00	0.0000000000E+00	6.5000000000E+03	6.5000000000E+03	9.3827000000E-01	0.000E+00	0.0
	2212	-1	0	0	0	0	0.0000000000E+00	0.0000000000E+00	-6.5000000000E+03	6.5000000000E+03	9.3827000000E-01	0.000E+00	0.0
	2212	1	0	0	0	0	0.0000000000E+00	0.0000000000E+00	6.1230483404E+03	6.1230483404E+03	9.3827000000E-01	0.000E+00	0.0
	2212	1	0	0	0	0	0.0000000000E+00	0.0000000000E+00	-5.7697095028E+03	5.7697095028E+03	9.3827000000E-01	0.000E+00	0.0
	51	2	1	2	0	0	7.0609057109E+01	1.2084500698E+02	-3.7124476158E+02	1.1218505637E+03	1.0493506848E+03	0.000E+00	0.0
	1000022	2	5	5	0	0	-7.0609057109E+01	-1.2084500698E+02	-2.7519222045E+02	9.0386017627E+02	8.4949591252E+02	0.000E+00	0.0
	14	1	6	6	0	0	4.2183751986E+01	1.1967281823E+02	7.5403214091E+01	3.5694775115E+02	3.2500000000E+02	0.000E+00	0.0
	-14	1	6	6	0	0	-1.1279280909E+02	-2.4051782521E+02	-3.5059543454E+02	5.4691242512E+02	3.2500000000E+02	0.000E+00	0.0
	25	2	5	5	0	0	7.0609057109E+01	1.2084500698E+02	-7.8146617174E+01	2.0338198054E+02	1.2517260713E+02	0.000E+00	0.0
	-5	1	9	9	0	501	-4.8165466134E+00	1.7111694878E+01	3.0295488174E+01	3.5373693991E+01	4.1800000000E+00	0.000E+00	0.0
	5	1	9	9	501	0	7.5425603722E+01	1.0373331210E+02	-1.0844210535E+02	1.6800828655E+02	4.1800000000E+00	0.000E+00	0.0
</event>
<event>
    11  -1  1.0000000E+00  1.0000000E+00  -1.0000000E+00  -1.0000000E+00
	2212	-1	0	0	0	0	0.0000000000E+00	0.0000000000E+00	6.5000000000E+03	6.5000000000E+03	9.3827000000E-01	0.000E+00	0.0
	2212	-1	0	0	0	0	0.0000000000E+00	0.0000000000E+00	-6.5000000000E+03	6.5000000000E+03	9.3827000000E-01	0.000E+00	0.0
	2212	1	0	0	0	0	0.0000000000E+00	0.0000000000E+00	6.1350419690E+03	6.1350419690E+03	9.3827000000E-01	0.000E+00	0.0
	2212	1	0	0	0	0	0.0000000000E+00	0.0000000000E+00	-5.7413761188E+03	5.7413761188E+03	9.3827000000E-01	0.000E+00	0.0
	51	2	1	2	0	0	1.0679474481E+02	-3.1543065518E+01	-5.2987499159E+02	1.1834826154E+03	1.0523609228E+03	0.000E+00	0.0
	1000022	2	5	5	0	0	-1.0679474481E+02	3.1543065518E+01	-1.8456593501E+02	8.5563990972E+02	8.2804286619E+02	0.000E+00	0.0
	14	1	6	6	0	0	1.8315448852E+02	7.2022354086E+01	-1.7451527838E+02	4.1810688650E+02	3.2500000000E+02	0.000E+00	0.0
	-14	1	6	6	0	0	-2.8994923333E+02	-4.0479288569E+01	-1.0050656628E+01	4.3753302322E+02	3.2500000000E+02	0.000E+00	0.0
	25	2	5	5	0	0	1.0679474481E+02	-3.1543065518E+01	-2.0909991515E+02	2.6794200246E+02	1.2518010889E+02	0.000E+00	0.0
	-5	1	9	9	0	501	7.7302683831E+01	-5.0803162122E+01	-5.0597302191E+01	1.0551884001E+02	4.1800000000E+00	0.000E+00	0.0
	5	1	9	9	501	0	2.9492060978E+01	1.9260096604E+01	-1.5850261296E+02	1.6242316244E+02	4.1800000000E+00	0.000E+00	0.0
</event>
<event>
    11  -1  1.0000000E+00  1.0000000E+00  -1.0000000E+00  -1.0000000E+00
	2212	-1	0	0	0	0	0.0000000000E+00	0.0000000000E+00	6.5000000000E+03	6.5000000000E+03	9.3827000000E-01	0.000E+00	0.0
	2212	-1	0	0	0	0	0.0000000000E+00	0.0000000000E+00	-6.5000000000E+03	6.5000000000E+03	9.3827000000E-01	0.000E+00	0.0
	2212	1	0	0	0	0	0.0000000000E+00	0.0000000000E+00	5.5494044913E+03	5.5494044913E+03	9.3827000000E-01	0.000E+00	0.0
	2212	1	0	0	0	0	0.0000000000E+00	0.0000000000E+00	-6.2097609533E+03	6.2097609533E+03	9.3827000000E-01	0.000E+00	0.0
	51	2	1	2	0	0	4.0408923911E+01	-1.6020491407E+01	8.0415888003E+02	1.3236921011E+03	1.0505235537E+03	0.000E+00	0.0
	1000022	2	5	5	0	0	-4.0408923911E+01	1.6020491407E+01	4.0981062820E+02	9.5740212854E+02	8.6416696736E+02	0.000E+00	0.0
	14	1	6	6	0	0	2.2039505508E+02	4.3605575543E+01	3.6411867831E+02	5.3729213508E+02	3.2500000000E+02	0.000E+00	0.0
	-14	1	6	6	0	0	-2.6080397899E+02	-2.7585084137E+01	4.5691949894E+01	4.2010999347E+02	3.2500000000E+02	0.000E+00	0.0
	25	2	5	5	0	0	4.0408923911E+01	-1.6020491407E+01	2.5054583380E+02	2.8343242682E+02	1.2518461751E+02	0.000E+00	0.0
	-5	1	9	9	0	501	7.9420525500E+01	1.1884900773E+01	1.2152791120E+02	1.4572362999E+02	4.1800000000E+00	0.000E+00	0.0
	5	1	9	9	501	0	-3.9011601590E+01	-2.7905392180E+01	1.2901792260E+02	1.3770879682E+02	4.1800000000E+00	0.000E+00	0.0
</event>
<event>
    11  -1  1.0000000E+00  1.0000000E+00  -1.0000000E+00  -1.0000000E+00
	2212	-1	0	0	0	0	0.0000000000E+00	0.0000000000E+00	6.5000000000E+03	6.5000000000E+03	9.3827000000E-01	0.000E+00	0.0
	2212	-1	0	0	0	0	0.0000000000E+00	0.0000000000E+00	-6.5000000000E+03	6.5000000000E+03	9.3827000000E-01	0.000E+00	0.0
	2212	1	0	0	0	0	0.0000000000E+00	0.0000000000E+00	5.3375424013E+03	5.3375424013E+03	9.3827000000E-01	0.000E+00	0.0
	2212	1	0	0	0	0	0.0000000000E+00	0.0000000000E+00	-6.2664335833E+03	6.2664335833E+03	9.3827000000E-01	0.000E+00	0.0
	51	2	1	2	0	0	-3.6682332890E+01	-7.2513547842E+01	7.9189012744E+02	1.3113878167E+03	1.0421344556E+03	0.000E+00	0.0
	1000022	2	5	5	0	0	3.6682332890E+01	7.2513547842E+01	9.0892366773E+02	1.2447532576E+03	8.4656047066E+02	0.000E+00	0.0
	14	1	6	6	0	0	-1.0948556663E+02	-1.8220462064E+02	5.7545544497E+02	6.9423308926E+02	3.2500000000E+02	0.000E+00	0.0
	-14	1	6	6	0	0	1.4616789952E+02	2.5471816848E+02	3.3346822276E+02	5.5052016838E+02	3.2500000000E+02	0.000E+00	0.0
	25	2	5	5	0	0	-3.6682332890E+01	-7.2513547842E+01	1.9967514220E+01	1.5127075774E+02	1.2601719072E+02	0.000E+00	0.0
	-5	1	9	9	0	501	9.6752357837E+00	6.9007731413E+00	5.2232479711E+01	5.3730207465E+01	4.1800000000E+00	0.000E+00	0.0
	5	1	9	9	501	0	-4.6357568674E+01	-7.9414320983E+01	-3.2264965491E+01	9.7540550279E+01	4.1800000000E+00	0.000E+00	0.0
</event>
<event>
    11  -1  1.0000000E+00  1.0000000E+00  -1.0000000E+00  -1.0000000E+00
	2212	-1	0	0	0	0	0.0000000000E+00	0.0000000000E+00	6.5000000000E+03	6.5000000000E+03	9.3827000000E-01	0.000E+00	0.0
	2212	-1	0	0	0	0	0.0000000000E+00	0.0000000000E+00	-6.5000000000E+03	6.5000000000E+03	9.3827000000E-01	0.000E+00	0.0
	2212	1	0	0	0	0	0.0000000000E+00	0.0000000000E+00	5.2338389385E+03	5.2338389385E+03	9.3827000000E-01	0.000E+00	0.0
	2212	1	0	0	0	0	0.0000000000E+00	0.0000000000E+00	-6.2806221474E+03	6.2806221474E+03	9.3827000000E-01	0.000E+00	0.0
	51	2	1	2	0	0	1.0111190425E+02	1.2084272213E+02	1.0536083286E+03	1.4986620265E+03	1.0540734220E+03	0.000E+00	0.0
	1000022	2	5	5	0	0	-1.0111190425E+02	-1.2084272213E+02	8.5172308217E+02	1.2052827168E+03	8.3812149360E+02	0.000E+00	0.0
	14	1	6	6	0	0	-2.0813468720E+02	5.6436059225E+00	7.2092100856E+02	8.1774323531E+02	3.2500000000E+02	0.000E+00	0.0
	-14	1	6	6	0	0	1.0702278295E+02	-1.2648632805E+02	1.3080207361E+02	3.8753948149E+02	3.2500000000E+02	0.000E+00	0.0
	25	2	5	5	0	0	1.0111190425E+02	1.2084272213E+02	1.9506012668E+02	2.8025619733E+02	1.2517388885E+02	0.000E+00	0.0
	-5	1	9	9	0	501	1.5274934510E+01	-2.4144464567E+01	5.0675262517E+01	5.8324381049E+01	4.1800000000E+00	0.000E+00	0.0
	5	1	9	9	501	0	8.5836969735E+01	1.4498718670E+02	1.4438486416E+02	2.2193181628E+02	4.1800000000E+00	0.000E+00	0.0
</event>
<event>
    11  -1  1.0000000E+00  1.0000000E+00  -1.0000000E+00  -1.0000000E+00
	2212	-1	0	0	0	0	0.0000000000E+00	0.0000000000E+00	6.5000000000E+03	6.5000000000E+03	9.3827000000E-01	0.000E+00	0.0
	2212	-1	0	0	0	0	0.0000000000E+00	0.0000000000E+00	-6.5000000000E+03	6.5000000000E+03	9.3827000000E-01	0.000E+00	0.0
	2212	1	0	0	0	0	0.0000000000E+00	0.0000000000E+00	4.9539008634E+03	4.9539008634E+03	9.3827000000E-01	0.000E+00	0.0
	2212	1	0	0	0	0	0.0000000000E+00	0.0000000000E+00	-6.3217861550E+03	6.3217861550E+03	9.3827000000E-01	0.000E+00	0.0
	51	2	1	2	0	0	1.0919114403E+02	-2.0936886677E+01	1.2550781529E+03	1.6400388157E+03	1.0498309806E+03	0.000E+00	0.0
	1000022	2	5	5	0	0	-1.0919114403E+02	2.0936886677E+01	1.2525656294E+03	1.5210177099E+03	8.5569454758E+02	0.000E+00	0.0
	14	1	6	6	0	0	4.0351841854E+01	-1.8343948966E+02	9.1283206274E+02	9.8699832436E+02	3.2500000000E+02	0.000E+00	0.0
	-14	1	6	6	0	0	-1.4954298588E+02	2.0437637634E+02	3.3973356661E+02	5.3401938552E+02	3.2500000000E+02	0.000E+00	0.0
	25	2	5	5	0	0	1.0919114403E+02	-2.0936886677E+01	1.1531966222E+02	2.0329527176E+02	1.2517701015E+02	0.000E+00	0.0
	-5	1	9	9	0	501	6.9465666504E+01	4.0357846630E+01	1.9568860566E+01	8.2792797460E+01	4.1800000000E+00	0.000E+00	0.0
	5	1	9	9	501	0	3.9725477524E+01	-6.1294733307E+01	9.5750801655E+01	1.2050247430E+02	4.1800000000E+00	0.000E+00	0.0
</event>
<event>
    11  -1  1.0000000E+00  1.0000000E+00  -1.0000000E+00  -1.0000000E+00
	2212	-1	0	0	0	0	0.0000000000E+00	0.0000000000E+00	6.5000000000E+03	6.5000000000E+03	9.3827000000E-01	0.000E+00	0.0
	2212	-1	0	0	0	0	0.0000000000E+00	0.0000000000E+00	-6.5000000000E+03	6.5000000000E+03	9.3827000000E-01	0.000E+00	0.0
	2212	1	0	0	0	0	0.0000000000E+00	0.0000000000E+00	5.4133525105E+03	5.4133525105E+03	9.3827000000E-01	0.000E+00	0.0
	2212	1	0	0	0	0	0.0000000000E+00	0.0000000000E+00	-6.2481072756E+03	6.2481072756E+03	9.3827000000E-01	0.000E+00	0.0
	51	2	1	2	0	0	9.7805545529E+01	1.0279711885E+02	7.9754605705E+02	1.3232865419E+03	1.0463624547E+03	0.000E+00	0.0
	1000022	2	5	5	0	0	-9.7805545529E+01	-1.0279711885E+02	7.2642217686E+02	1.1204165087E+03	8.4113661288E+02	0.000E+00	0.0
	14	1	6	6	0	0	-1.6601386122E+02	1.7621761402E+02	2.5018706517E+02	4.7626863973E+02	3.2500000000E+02	0.000E+00	0.0
	-14	1	6	6	0	0	6.8208315689E+01	-2.7901473287E+02	4.7623511169E+02	6.4414786896E+02	3.2500000000E+02	0.000E+00	0.0
	25	2	5	5	0	0	9.7805545529E+01	1.0279711885E+02	1.0833258817E+02	2.1812370523E+02	1.2533486642E+02	0.000E+00	0.0
	-5	1	9	9	0	501	1.1664187940E+02	8.1490702788E+01	1.2088970079E+02	1.8675613732E+02	4.1800000000E+00	0.000E+00	0.0
	5	1	9	9	501	0	-1.8836333868E+01	2.1306416059E+01	-1.2557112618E+01	3.1367567904E+01	4.1800000000E+00	0.000E+00	0.0
</event>
<event>
    11  -1  1.0000000E+00  1.0000000E+00  -1.0000000E+00  -1.0000000E+00
	2212	-1	0	0	0	0	0.0000000000E+00	0.0000000000E+00	6.5000000000E+03	6.5000000000E+03	9.3827000000E-01	0.000E+00	0.0
	2212	-1	0	0	0	0	0.0000000000E+00	0.0000000000E+00	-6.5000000000E+03	6.5000000000E+03	9.3827000000E-01	0.000E+00	0.0
	2212	1	0	0	0	0	0.0000000000E+00	0.0000000000E+00	5.2840958143E+03	5.2840958143E+03	9.3827000000E-01	0.000E+00	0.0
	2212	1	0	0	0	0	0.0000000000E+00	0.0000000000E+00	-6.2767665291E+03	6.2767665291E+03	9.3827000000E-01	0.000E+00	0.0
	51	2	1	2	0	0	-8.2933953981E+01	-6.2882882084E+01	9.0562155801E+02	1.3844510646E+03	1.0419798685E+03	0.000E+00	0.0
	1000022	2	5	5	0	0	8.2933953981E+01	6.2882882084E+01	9.1864037298E+02	1.2602970891E+03	8.5651405140E+02	0.000E+00	0.0
	14	1	6	6	0	0	2.7786644259E+00	-2.1812219535E+02	6.1176483216E+02	7.2626869886E+02	3.2500000000E+02	0.000E+00	0.0
	-14	1	6	6	0	0	8.0155289555E+01	2.8100507743E+02	3.0687554082E+02	5.3402839020E+02	3.2500000000E+02	0.000E+00	0.0
	25	2	5	5	0	0	-8.2933953981E+01	-6.2882882084E+01	7.4030341875E+01	1.7884056750E+02	1.2518450177E+02	0.000E+00	0.0
	-5	1	9	9	0	501	-4.3894637743E+01	-5.1847719805E+01	1.0671756365E+02	1.2657423143E+02	4.1800000000E+00	0.000E+00	0.0
	5	1	9	9	501	0	-3.9039316237E+01	-1.1035162279E+01	-3.2687221775E+01	5.2266336070E+01	4.1800000000E+00	0.000E+00	0.0
</event>
<event>
    11  -1  1.0000000E+00  1.0000000E+00  -1.0000000E+00  -1.0000000E+00
	2212	-1	0	0	0	0	0.0000000000E+00	0.0000000000E+00	6.5000000000E+03	6.5000000000E+03	9.3827000000E-01	0.000E+00	0.0
	2212	-1	0	0	0	0	0.0000000000E+00	0.0000000000E+00	-6.5000000000E+03	6.5000000000E+03	9.3827000000E-01	0.000E+00	0.0
	2212	1	0	0	0	0	0.0000000000E+00	0.0000000000E+00	5.9973799551E+03	5.9973799551E+03	9.3827000000E-01	0.000E+00	0.0
	2212	1	0	0	0	0	0.0000000000E+00	0.0000000000E+00	-5.9527996743E+03	5.9527996743E+03	9.3827000000E-01	0.000E+00	0.0
	51	2	1	2	0	0	-4.8447690626E+01	7.6323680885E+01	2.7982645779E+01	1.0531338568E+03	1.0488733999E+03	0.000E+00	0.0
	1000022	2	5	5	0	0	4.8447690626E+01	-7.6323680885E+01	-1.1016103125E+02	8.8208372308E+02	8.7049627152E+02	0.000E+00	0.0
	14	1	6	6	0	0	-1.0954646173E+02	-2.2360765687E+02	1.2300563618E+02	4.2749993921E+02	3.2500000000E+02	0.000E+00	0.0
	-14	1	6	6	0	0	1.5799415236E+02	1.4728397599E+02	-2.3316666743E+02	4.5458378388E+02	3.2500000000E+02	0.000E+00	0.0
	25	2	5	5	0	0	-4.8447690626E+01	7.6323680885E+01	6.5580750469E+01	1.6773664744E+02	1.2514897152E+02	0.000E+00	0.0
	-5	1	9	9	0	501	1.1742274270E+01	4.7327363761E+01	-2.5117463863E+01	5.5010178663E+01	4.1800000000E+00	0.000E+00	0.0
	5	1	9	9	501	0	-6.0189964896E+01	2.8996317124E+01	9.0698214331E+01	1.1272646878E+02	4.1800000000E+00	0.000E+00	0.0
</event>
<event>
    11  -1  1.0000000E+00  1.0000000E+00  -1.0000000E+00  -1.0000000E+00
	2212	-1	0	0	0	0	0.0000000000E+00	0.0000000000E+00	6.5000000000E+03	6.5000000000E+03	9.3827000000E-01	0.000E+00	0.0
	2212	-1	0	0	0	0	0.0000000000E+00	0.0000000000E+00	-6.5000000000E+03	6.5000000000E+03	9.3827000000E-01	0.000E+00	0.0
	2212	1	0	0	0	0	0.0000000000E+00	0.0000000000E+00	4.9921912115E+03	4.9921912115E+03	9.3827000000E-01	0.000E+00	0.0
	2212	1	0	0	0	0	0.0000000000E+00	0.0000000000E+00	-6.3155740063E+03	6.3155740063E+03	9.3827000000E-01	0.000E+00	0.0
	51	2	1	2	0	0	1.0217445652E+02	2.3051264578E+01	1.5026002312E+03	1.8387754000E+03	1.0546641817E+03	0.000E+00	0.0
	1000022	2	5	5	0	0	-1.0217445652E+02	-2.3051264578E+01	9.1440856893E+02	1.2518997821E+03	8.4861007130E+02	0.000E+00	0.0
	14	1	6	6	0	0	-1.3288492861E+02	1.2836888133E+02	7.8501356263E+02	8.6948735900E+02	3.2500000000E+02	0.000E+00	0.0
	-14	1	6	6	0	0	3.0710472084E+01	-1.5142014591E+02	1.2939500630E+02	3.8241242310E+02	3.2500000000E+02	0.000E+00	0.0
	25	2	5	5	0	0	1.0217445652E+02	2.3051264578E+01	4.0897422592E+02	4.4033500006E+02	1.2515596048E+02	0.000E+00	0.0
	-5	1	9	9	0	501	1.4141229275E+01	9.5359056741E-01	-5.6887692622E+00	1.5834083367E+01	4.1800000000E+00	0.000E+00	0.0
	5	1	9	9	501	0	8.8033227249E+01	2.2097674011E+01	4.1466299519E+02	4.2450091669E+02	4.1800000000E+00	0.000E+00	0.0
</event>
<event>
    11  -1  1.0000000E+00  1.0000000E+00  -1.0000000E+00  -1.0000000E+00
	2212	-1	0	0	0	0	0.0000000000E+00	0.0000000000E+00	6.5000000000E+03	6.5000000000E+03	9.3827000000E-01	0.000E+00	0.0
	2212	-1	0	0	0	0	0.0000000000E+00	0.0000000000E+00	-6.5000000000E+03	6.5000000000E+03	9.3827000000E-01	0.000E+00	0.0
	2212	1	0	0	0	0	0.0000000000E+00	0.0000000000E+00	6.1282829980E+03	6.1282829980E+03	9.3827000000E-01	0.000E+00	0.0
	2212	1	0	0	0	0	0.0000000000E+00	0.0000000000E+00	-5.7655017118E+03	5.7655017118E+03	9.3827000000E-01	0.000E+00	0.0
	51	2	1	2	0	0	7.3459184562E+01	7.0732917806E-01	-4.8273295422E+02	1.1534859617E+03	1.0450368446E+03	0.000E+00	0.0
	1000022	2	5	5	0	0	-7.3459184562E+01	-7.0732917806E-01	-1.8240534578E+02	8.7469516414E+02	8.5230462153E+02	0.000E+00	0.0
	14	1	6	6	0	0	2.0183716080E+02	1.1623452737E+01	-2.2903921649E+02	4.4604630569E+02	3.2500000000E+02	0.000E+00	0.0
	-14	1	6	6	0	0	-2.7529634536E+02	-1.2330781915E+01	4.6633870709E+01	4.2864885845E+02	3.2500000000E+02	0.000E+00	0.0
	25	2	5	5	0	0	7.3459184562E+01	7.0732917806E-01	-1.8037594046E+02	2.3152012605E+02	1.2517722140E+02	0.000E+00	0.0
	-5	1	9	9	0	501	-1.2297356364E+01	-2.0583688386E+01	-1.2457830982E+02	1.2693360815E+02	4.1800000000E+00	0.000E+00	0.0
	5	1	9	9	501	0	8.5756540926E+01	2.1291017564E+01	-5.5797630642E+01	1.0458651790E+02	4.1800000000E+00	0.000E+00	0.0
</event>
<event>
    11  -1  1.0000000E+00  1.0000000E+00  -1.0000000E+00  -1.0000000E+00
	2212	-1	0	0	0	0	0.0000000000E+00	0.0000000000E+00	6.5000000000E+03	6.5000000000E+03	9.3827000000E-01	0.000E+00	0.0
	2212	-1	0	0	0	0	0.0000000000E+00	0.0000000000E+00	-6.5000000000E+03	6.5000000000E+03	9.3827000000E-01	0.000E+00	0.0
	2212	1	0	0	0	0	0.0000000000E+00	0.0000000000E+00	5.5121883846E+03	5.5121883846E+03	9.3827000000E-01	0.000E+00	0.0
	2212	1	0	0	0	0	0.0000000000E+00	0.0000000000E+00	-6.1548517443E+03	6.1548517443E+03	9.3827000000E-01	0.000E+00	0.0
	51	2	1	2	0	0	-5.3711200998E+01	1.2781422993E+02	9.0717737771E+02	1.4852467772E+03	1.1678038466E+03	0.000E+00	0.0
	1000022	2	5	5	0	0	5.3711200998E+01	-1.2781422993E+02	2.3566508894E+02	8.8514376113E+02	8.4185513792E+02	0.000E+00	0.0
	14	1	6	6	0	0	-1.1165610530E+02	1.2952326330E+02	2.4017783509E+02	4.3880947353E+02	3.2500000000E+02	0.000E+00	0.0
	-14	1	6	6	0	0	1.6536730629E+02	-2.5733749323E+02	-4.5127461476E+00	4.4633428761E+02	3.2500000000E+02	0.000E+00	0.0
	25	2	5	5	0	0	-5.3711200998E+01	1.2781422993E+02	4.0699827070E+02	4.4781610998E+02	1.2518109090E+02	0.000E+00	0.0
	-5	1	9	9	0	501	-3.7047487710E+01	9.3353858648E+01	3.9484211331E+02	4.0743738920E+02	4.1800000000E+00	0.000E+00	0.0
	5	1	9	9	501	0	-1.6663713287E+01	3.4460371281E+01	1.2156157384E+01	4.0378720778E+01	4.1800000000E+00	0.000E+00	0.0
</event>
<event>
    11  -1  1.0000000E+00  1.0000000E+00  -1.0000000E+00  -1.0000000E+00
	2212	-1	0	0	0	0	0.0000000000E+00	0.0000000000E+00	6.5000000000E+03	6.5000000000E+03	9.3827000000E-01	0.000E+00	0.0
	2212	-1	0	0	0	0	0.0000000000E+00	0.0000000000E+00	-6.5000000000E+03	6.5000000000E+03	9.3827000000E-01	0.000E+00	0.0
	2212	1	0	0	0	0	0.0000000000E+00	0.0000000000E+00	5.4757949290E+03	5.4757949290E+03	9.3827000000E-01	0.000E+00	0.0
	2212	1	0	0	0	0	0.0000000000E+00	0.0000000000E+00	-6.2299954472E+03	6.2299954472E+03	9.3827000000E-01	0.000E+00	0.0
	51	2	1	2	0	0	1.3135383999E+02	2.1088585206E+01	8.2575828344E+02	1.3437765555E+03	1.0517414743E+03	0.000E+00	0.0
	1000022	2	5	5	0	0	-1.3135383999E+02	-2.1088585206E+01	5.5328164315E+02	1.0226587646E+03	8.4971278236E+02	0.000E+00	0.0
	14	1	6	6	0	0	-7.6763634193E+01	1.1937631059E+02	5.6174019471E+02	6.6431950552E+02	3.2500000000E+02	0.000E+00	0.0
	-14	1	6	6	0	0	-5.4590205801E+01	-1.4046489580E+02	-8.4585515568E+00	3.5833925911E+02	3.2500000000E+02	0.000E+00	0.0
	25	2	5	5	0	0	1.3135383999E+02	2.1088585206E+01	2.0091887498E+02	2.7155085915E+02	1.2519151359E+02	0.000E+00	0.0
	-5	1	9	9	0	501	4.4217060299E+01	-5.1706011975E+01	8.8598641079E+01	1.1178484556E+02	4.1800000000E+00	0.000E+00	0.0
	5	1	9	9	501	0	8.7136779694E+01	7.2794597181E+01	1.1232023390E+02	1.5976601359E+02	4.1800000000E+00	0.000E+00	0.0
</event>
<event>
    11  -1  1.0000000E+00  1.0000000E+00  -1.0000000E+00  -1.0000000E+00
	2212	-1	0	0	0	0	0.0000000000E+00	0.0000000000E+00	6.5000000000E+03	6.5000000000E+03	9.3827000000E-01	0.000E+00	0.0
	2212	-1	0	0	0	0	0.0000000000E+00	0.0000000000E+00	-6.5000000000E+03	6.5000000000E+03	9.3827000000E-01	0.000E+00	0.0
	2212	1	0	0	0	0	0.0000000000E+00	0.0000000000E+00	5.8702273253E+03	5.8702273253E+03	9.3827000000E-01	0.000E+00	0.0
	2212	1	0	0	0	0	0.0000000000E+00	0.0000000000E+00	-6.0723113898E+03	6.0723113898E+03	9.3827000000E-01	0.000E+00	0.0
	51	2	1	2	0	0	2.0947773212E+00	-2.7536393354E+01	3.4660452393E+02	1.0946614714E+03	1.0379722539E+03	0.000E+00	0.0
	1000022	2	5	5	0	0	-2.0947773212E+00	2.7536393354E+01	2.2508168182E+01	8.3682373829E+02	8.3606501558E+02	0.000E+00	0.0
	14	1	6	6	0	0	-3.8023103446E+01	1.1282081930E+02	-2.2948915520E+02	4.1528853345E+02	3.2500000000E+02	0.000E+00	0.0
	-14	1	6	6	0	0	3.5928326125E+01	-8.5284425946E+01	2.5199732338E+02	4.2153520484E+02	3.2500000000E+02	0.000E+00	0.0
	25	2	5	5	0	0	2.0947773212E+00	-2.7536393354E+01	1.7957589630E+02	2.2063754659E+02	1.2518299957E+02	0.000E+00	0.0
	-5	1	9	9	0	501	1.7003210064E+00	-7.6861881438E+01	1.2625152757E+02	1.4787684242E+02	4.1800000000E+00	0.000E+00	0.0
	5	1	9	9	501	0	3.9445631474E-01	4.9325488084E+01	5.3324368735E+01	7.2760704171E+01	4.1800000000E+00	0.000E+00	0.0
</event>
<event>
    11  -1  1.0000000E+00  1.0000000E+00  -1.0000000E+00  -1.0000000E+00
	2212	-1	0	0	0	0	0.0000000000E+00	0.0000000000E+00	6.5000000000E+03	6.5000000000E+03	9.3827000000E-01	0.000E+00	0.0
	2212	-1	0	0	0	0	0.0000000000E+00	0.0000000000E+00	-6.5000000000E+03	6.5000000000E+03	9.3827000000E-01	0.000E+00	0.0
	2212	1	0	0	0	0	0.0000000000E+00	0.0000000000E+00	4.9486430973E+03	4.9486430973E+03	9.3827000000E-01	0.000E+00	0.0
	2212	1	0	0	0	0	0.0000000000E+00	0.0000000000E+00	-6.3401588291E+03	6.3401588291E+03	9.3827000000E-01	0.000E+00	0.0
	51	2	1	2	0	0	-5.2902965960E+01	5.0902591663E+01	1.3717358682E+03	1.6967415552E+03	9.9593313797E+02	0.000E+00	0.0
	1000022	2	5	5	0	0	5.2902965960E+01	-5.0902591663E+01	1.2115303190E+03	1.4799958845E+03	8.4687207225E+02	0.000E+00	0.0
	14	1	6	6	0	0	1.2764927155E+02	-2.7784489432E+02	6.1240845612E+02	7.5773427992E+02	3.2500000000E+02	0.000E+00	0.0
	-14	1	6	6	0	0	-7.4746305594E+01	2.2694230266E+02	5.9912186284E+02	7.2226160459E+02	3.2500000000E+02	0.000E+00	0.0
	25	2	5	5	0	0	-5.2902965960E+01	5.0902591663E+01	1.7998541285E+02	2.3120218912E+02	1.2517949421E+02	0.000E+00	0.0
	-5	1	9	9	0	501	-9.3562427977E+01	4.1188658720E+01	1.3817067161E+02	1.7192742780E+02	4.1800000000E+00	0.000E+00	0.0
	5	1	9	9	501	0	4.0659462017E+01	9.7139329435E+00	4.1814741236E+01	5.9274761318E+01	4.1800000000E+00	0.000E+00	0.0
</event>
<event>
    11  -1  1.0000000E+00  1.0000000E+00  -1.0000000E+00  -1.0000000E+00
	2212	-1	0	0	0	0	0.0000000000E+00	0.0000000000E+00	6.5000000000E+03	6.5000000000E+03	9.3827000000E-01	0.000E+00	0.0
	2212	-1	0	0	0	0	0.0000000000E+00	0.0000000000E+00	-6.5000000000E+03	6.5000000000E+03	9.3827000000E-01	0.000E+00	0.0
	2212	1	0	0	0	0	0.0000000000E+00	0.0000000000E+00	5.4292862526E+03	5.4292862526E+03	9.3827000000E-01	0.000E+00	0.0
	2212	1	0	0	0	0	0.0000000000E+00	0.0000000000E+00	-6.2476246467E+03	6.2476246467E+03	9.3827000000E-01	0.000E+00	0.0
	51	2	1	2	0	0	-5.7227048928E+01	2.1844030266E+01	6.7840283263E+02	1.2429278101E+03	1.0396571748E+03	0.000E+00	0.0
	1000022	2	5	5	0	0	5.7227048928E+01	-2.1844030266E+01	8.2245800970E+02	1.1836632387E+03	8.4904027471E+02	0.000E+00	0.0
	14	1	6	6	0	0	4.4077486762E+01	-2.8151288138E+02	4.6706118737E+02	6.3636740958E+02	3.2500000000E+02	0.000E+00	0.0
	-14	1	6	6	0	0	1.3149562166E+01	2.5966885112E+02	3.5539682233E+02	5.4729582910E+02	3.2500000000E+02	0.000E+00	0.0
	25	2	5	5	0	0	-5.7227048928E+01	2.1844030266E+01	-4.1196155318E+00	1.3942586203E+02	1.2518187962E+02	0.000E+00	0.0
	-5	1	9	9	0	501	-2.1243840379E+01	6.9013549898E+01	-2.4791969235E+01	7.6461002885E+01	4.1800000000E+00	0.000E+00	0.0
	5	1	9	9	501	0	-3.5983208549E+01	-4.7169519633E+01	2.0672353703E+01	6.2964859148E+01	4.1800000000E+00	0.000E+00	0.0
</event>
<event>
    11  -1  1.0000000E+00  1.0000000E+00  -1.0000000E+00  -1.0000000E+00
	2212	-1	0	0	0	0	0.0000000000E+00	0.0000000000E+00	6.5000000000E+03	6.5000000000E+03	9.3827000000E-01	0.000E+00	0.0
	2212	-1	0	0	0	0	0.0000000000E+00	0.0000000000E+00	-6.5000000000E+03	6.5000000000E+03	9.3827000000E-01	0.000E+00	0.0
	2212	1	0	0	0	0	0.0000000000E+00	0.0000000000E+00	6.0488639873E+03	6.0488639873E+03	9.3827000000E-01	0.000E+00	0.0
	2212	1	0	0	0	0	0.0000000000E+00	0.0000000000E+00	-5.9455433291E+03	5.9455433291E+03	9.3827000000E-01	0.000E+00	0.0
	51	2	1	2	0	0	8.1179785272E+01	-1.7642561562E+01	-1.0126943836E+02	1.0088103903E+03	1.0002707068E+03	0.000E+00	0.0
	1000022	2	5	5	0	0	-8.1179785272E+01	1.7642561562E+01	-9.0207569024E+01	8.5478476137E+02	8.4594217606E+02	0.000E+00	0.0
	14	1	6	6	0	0	-1.5226719710E+02	2.0098134290E+02	1.0944475451E+02	4.2565473544E+02	3.2500000000E+02	0.000E+00	0.0
	-14	1	6	6	0	0	7.1087411832E+01	-1.8333878134E+02	-1.9965232353E+02	4.2913002593E+02	3.2500000000E+02	0.000E+00	0.0
	25	2	5	5	0	0	8.1179785272E+01	-1.7642561562E+01	-1.3113089183E+01	1.5080792225E+02	1.2517850770E+02	0.000E+00	0.0
	-5	1	9	9	0	501	3.3387914542E+01	8.1845324542E+00	-6.6216721813E+01	7.4725270536E+01	4.1800000000E+00	0.000E+00	0.0
	5	1	9	9	501	0	4.7791870730E+01	-2.5827094017E+01	5.3103632630E+01	7.6082651713E+01	4.1800000000E+00	0.000E+00	0.0
</event>
<event>
    11  -1  1.0000000E+00  1.0000000E+00  -1.0000000E+00  -1.0000000E+00
	2212	-1	0	0	0	0	0.0000000000E+00	0.0000000000E+00	6.5000000000E+03	6.5000000000E+03	9.3827000000E-01	0.000E+00	0.0
	2212	-1	0	0	0	0	0.0000000000E+00	0.0000000000E+00	-6.5000000000E+03	6.5000000000E+03	9.3827000000E-01	0.000E+00	0.0
	2212	1	0	0	0	0	0.0000000000E+00	0.0000000000E+00	6.1149658759E+03	6.1149658759E+03	9.3827000000E-01	0.000E+00	0.0
	2212	1	0	0	0	0	0.0000000000E+00	0.0000000000E+00	-5.7816134294E+03	5.7816134294E+03	9.3827000000E-01	0.000E+00	0.0
	51	2	1	2	0	0	-1.4295416838E+02	3.2996413717E+01	-3.4840232156E+02	1.1177308313E+03	1.0518618616E+03	0.000E+00	0.0
	1000022	2	5	5	0	0	1.4295416838E+02	-3.2996413717E+01	-2.6032078546E+02	8.9718665496E+02	8.4596236613E+02	0.000E+00	0.0
	14	1	6	6	0	0	-3.4823841426E+01	-2.6382751930E+02	-9.6615339875E+01	4.3101877426E+02	3.2500000000E+02	0.000E+00	0.0
	-14	1	6	6	0	0	1.7777800981E+02	2.3083110558E+02	-1.6370544558E+02	4.6616788069E+02	3.2500000000E+02	0.000E+00	0.0
	25	2	5	5	0	0	-1.4295416838E+02	3.2996413717E+01	-7.3031661098E+01	2.0623403976E+02	1.2519663757E+02	0.000E+00	0.0
	-5	1	9	9	0	501	-1.5120724086E+02	6.4281366900E+00	-8.7218073359E+01	1.7472668757E+02	4.1800000000E+00	0.000E+00	0.0
	5	1	9	9	501	0	8.2530724726E+00	2.6568277027E+01	1.4186412262E+01	3.1507352194E+01	4.1800000000E+00	0.000E+00	0.0
</event>
<event>
    11  -1  1.0000000E+00  1.0000000E+00  -1.0000000E+00  -1.0000000E+00
	2212	-1	0	0	0	0	0.0000000000E+00	0.0000000000E+00	6.5000000000E+03	6.5000000000E+03	9.3827000000E-01	0.000E+00	0.0
	2212	-1	0	0	0	0	0.0000000000E+00	0.0000000000E+00	-6.5000000000E+03	6.5000000000E+03	9.3827000000E-01	0.000E+00	0.0
	2212	1	0	0	0	0	0.0000000000E+00	0.0000000000E+00	5.2747039144E+03	5.2747039144E+03	9.3827000000E-01	0.000E+00	0.0
	2212	1	0	0	0	0	0.0000000000E+00	0.0000000000E+00	-6.2746017520E+03	6.2746017520E+03	9.3827000000E-01	0.000E+00	0.0
	51	2	1	2	0	0	7.3089850080E+01	5.0774792922E+00	8.5816382059E+02	1.3588713751E+03	1.0510558330E+03	0.000E+00	0.0
	1000022	2	5	5	0	0	-7.3089850080E+01	-5.0774792922E+00	9.7715088489E+02	1.3038813018E+03	8.6018294000E+02	0.000E+00	0.0
	14	1	6	6	0	0	1.5513489822E+02	-1.0635938147E+02	2.0039064004E+02	4.2562960809E+02	3.2500000000E+02	0.000E+00	0.0
	-14	1	6	6	0	0	-2.2822474830E+02	1.0128190218E+02	7.7676024485E+02	8.7825169367E+02	3.2500000000E+02	0.000E+00	0.0
	25	2	5	5	0	0	7.3089850080E+01	5.0774792922E+00	2.2746952753E+01	1.4681303190E+02	1.2517481973E+02	0.000E+00	0.0
	-5	1	9	9	0	501	1.0126378014E+01	-2.0352453112E+00	-4.9434347867E+01	5.0674578481E+01	4.1800000000E+00	0.000E+00	0.0
	5	1	9	9	501	0	6.2963472065E+01	7.1127246034E+00	7.2181300620E+01	9.6138453415E+01	4.1800000000E+00	0.000E+00	0.0
</event>
<event>
    11  -1  1.0000000E+00  1.0000000E+00  -1.0000000E+00  -1.0000000E+00
	2212	-1	0	0	0	0	0.0000000000E+00	0.0000000000E+00	6.5000000000E+03	6.5000000000E+03	9.3827000000E-01	0.000E+00	0.0
	2212	-1	0	0	0	0	0.0000000000E+00	0.0000000000E+00	-6.5000000000E+03	6.5000000000E+03	9.3827000000E-01	0.000E+00	0.0
	2212	1	0	0	0	0	0.0000000000E+00	0.0000000000E+00	6.3323363997E+03	6.3323363997E+03	9.3827000000E-01	0.000E+00	0.0
	2212	1	0	0	0	0	0.0000000000E+00	0.0000000000E+00	-4.8596076704E+03	4.8596076704E+03	9.3827000000E-01	0.000E+00	0.0
	51	2	1	2	0	0	-7.7939848535E+01	-9.7081606871E+01	-1.3684065860E+03	1.7286330954E+03	1.0488738416E+03	0.000E+00	0.0
	1000022	2	5	5	0	0	7.7939848535E+01	9.7081606871E+01	-1.3246853085E+03	1.5776518115E+03	8.4775858204E+02	0.000E+00	0.0
	14	1	6	6	0	0	7.7341279194E+01	2.2042597307E+02	-1.0821242856E+03	1.1537708839E+03	3.2500000000E+02	0.000E+00	0.0
	-14	1	6	6	0	0	5.9856934103E-01	-1.2334436620E+02	-2.4256102292E+02	4.2388092762E+02	3.2500000000E+02	0.000E+00	0.0
	25	2	5	5	0	0	-7.7939848535E+01	-9.7081606871E+01	-1.4804342076E+02	2.3040411836E+02	1.2517885183E+02	0.000E+00	0.0
	-5	1	9	9	0	501	2.6002178048E+01	7.7663316309E+00	-3.4583393775E+01	4.4157815789E+01	4.1800000000E+00	0.000E+00	0.0
	5	1	9	9	501	0	-1.0394202658E+02	-1.0484793850E+02	-1.1346002698E+02	1.8624630257E+02	4.1800000000E+00	0.000E+00	0.0
</event>
<event>
    11  -1  1.0000000E+00  1.0000000E+00  -1.0000000E+00  -1.0000000E+00
	2212	-1	0	0	0	0	0.0000000000E+00	0.0000000000E+00	6.5000000000E+03	6.5000000000E+03	9.3827000000E-01	0.000E+00	0.0
	2212	-1	0	0	0	0	0.0000000000E+00	0.0000000000E+00	-6.5000000000E+03	6.5000000000E+03	9.3827000000E-01	0.000E+00	0.0
	2212	1	0	0	0	0	0.0000000000E+00	0.0000000000E+00	5.8998667496E+03	5.8998667496E+03	9.3827000000E-01	0.000E+00	0.0
	2212	1	0	0	0	0	0.0000000000E+00	0.0000000000E+00	-6.0646652477E+03	6.0646652477E+03	9.3827000000E-01	0.000E+00	0.0
	51	2	1	2	0	0	-5.0869313009E+01	8.5619231582E+00	8.0808484753E+01	1.0267552992E+03	1.0222697490E+03	0.000E+00	0.0
	1000022	2	5	5	0	0	5.0869313009E+01	-8.5619231582E+00	2.2385178319E+02	8.8749733476E+02	8.5725194944E+02	0.000E+00	0.0
	14	1	6	6	0	0	2.6007724073E+02	-1.4405388564E+02	5.2751319926E+01	4.4362077822E+02	3.2500000000E+02	0.000E+00	0.0
	-14	1	6	6	0	0	-2.0920792772E+02	1.3549196248E+02	1.7110046327E+02	4.4387655654E+02	3.2500000000E+02	0.000E+00	0.0
	25	2	5	5	0	0	-5.0869313009E+01	8.5619231582E+00	-5.9053285041E+01	1.4797066797E+02	1.2548718887E+02	0.000E+00	0.0
	-5	1	9	9	0	501	-8.6259018216E+01	3.0974078364E+01	-5.1461606354E+01	1.0519401638E+02	4.1800000000E+00	0.000E+00	0.0
	5	1	9	9	501	0	3.5389705206E+01	-2.2412155206E+01	-7.5916786864E+00	4.2776651585E+01	4.1800000000E+00	0.000E+00	0.0
</event>
<event>
    11  -1  1.0000000E+00  1.0000000E+00  -1.0000000E+00  -1.0000000E+00
	2212	-1	0	0	0	0	0.0000000000E+00	0.0000000000E+00	6.5000000000E+03	6.5000000000E+03	9.3827000000E-01	0.000E+00	0.0
	2212	-1	0	0	0	0	0.0000000000E+00	0.0000000000E+00	-6.5000000000E+03	6.5000000000E+03	9.3827000000E-01	0.000E+00	0.0
	2212	1	0	0	0	0	0.0000000000E+00	0.0000000000E+00	5.0522416322E+03	5.0522416322E+03	9.3827000000E-01	0.000E+00	0.0
	2212	1	0	0	0	0	0.0000000000E+00	0.0000000000E+00	-6.3091394393E+03	6.3091394393E+03	9.3827000000E-01	0.000E+00	0.0
	51	2	1	2	0	0	3.8464727769E+01	8.6202333548E+01	1.1005219966E+03	1.5249062062E+03	1.0513229262E+03	0.000E+00	0.0
	1000022	2	5	5	0	0	-3.8464727769E+01	-8.6202333548E+01	1.1974205735E+03	1.4709238212E+03	8.4905269575E+02	0.000E+00	0.0
	14	1	6	6	0	0	-2.1245131479E+02	1.2184708280E+02	7.6078048968E+02	8.6278283839E+02	3.2500000000E+02	0.000E+00	0.0
	-14	1	6	6	0	0	1.7398658702E+02	-2.0804941635E+02	4.3664008386E+02	6.0814098278E+02	3.2500000000E+02	0.000E+00	0.0
	25	2	5	5	0	0	3.8464727769E+01	8.6202333548E+01	5.9477233588E+01	1.6769510730E+02	1.2519476868E+02	0.000E+00	0.0
	-5	1	9	9	0	501	8.2847945314E+00	1.7826249228E+01	-3.9072950981E+01	4.3938375941E+01	4.1800000000E+00	0.000E+00	0.0
	5	1	9	9	501	0	3.0179933238E+01	6.8376084319E+01	9.8550184569E+01	1.2375673136E+02	4.1800000000E+00	0.000E+00	0.0
</event>
<event>
    11  -1  1.0000000E+00  1.0000000E+00  -1.0000000E+00  -1.0000000E+00
	2212	-1	0	0	0	0	0.0000000000E+00	0.0000000000E+00	6.5000000000E+03	6.5000000000E+03	9.3827000000E-01	0.000E+00	0.0
	2212	-1	0	0	0	0	0.0000000000E+00	0.0000000000E+00	-6.5000000000E+03	6.5000000000E+03	9.3827000000E-01	0.000E+00	0.0
	2212	1	0	0	0	0	0.0000000000E+00	0.0000000000E+00	6.1898500804E+03	6.1898500804E+03	9.3827000000E-01	0.000E+00	0.0
	2212	1	0	0	0	0	0.0000000000E+00	0.0000000000E+00	-5.6092796807E+03	5.6092796807E+03	9.3827000000E-01	0.000E+00	0.0
	51	2	1	2	0	0	-1.3300025193E+00	-1.3698620447E+02	-5.7819343748E+02	1.2075189364E+03	1.0512028071E+03	0.000E+00	0.0
	1000022	2	5	5	0	0	1.3300025193E+00	1.3698620447E+02	-4.8532096370E+02	9.9228800091E+02	8.5459466989E+02	0.000E+00	0.0
	14	1	6	6	0	0	-2.0589678932E+02	2.2003381957E+02	-3.8092369094E+02	5.8441100941E+02	3.2500000000E+02	0.000E+00	0.0
	-14	1	6	6	0	0	2.0722679184E+02	-8.3047615095E+01	-1.0439727277E+02	4.0787699149E+02	3.2500000000E+02	0.000E+00	0.0
	25	2	5	5	0	0	-1.3300025193E+00	-1.3698620447E+02	-9.5249436057E+01	2.0858223798E+02	1.2516830993E+02	0.000E+00	0.0
	-5	1	9	9	0	501	5.8673472686E+01	-9.6634888635E+01	-5.8768658510E+01	1.2748374689E+02	4.1800000000E+00	0.000E+00	0.0
	5	1	9	9	501	0	-6.0003475205E+01	-4.0351315835E+01	-3.6480777547E+01	8.1098491088E+01	4.1800000000E+00	0.000E+00	0.0
</event>
<event>
    11  -1  1.0000000E+00  1.0000000E+00  -1.0000000E+00  -1.0000000E+00
	2212	-1	0	0	0	0	0.0000000000E+00	0.0000000000E+00	6.5000000000E+03	6.5000000000E+03	9.3827000000E-01	0.000E+00	0.0
	2212	-1	0	0	0	0	0.0000000000E+00	0.0000000000E+00	-6.5000000000E+03	6.5000000000E+03	9.3827000000E-01	0.000E+00	0.0
	2212	1	0	0	0	0	0.0000000000E+00	0.0000000000E+00	6.2656556395E+03	6.2656556395E+03	9.3827000000E-01	0.000E+00	0.0
	2212	1	0	0	0	0	0.0000000000E+00	0.0000000000E+00	-5.3330998448E+03	5.3330998448E+03	9.3827000000E-01	0.000E+00	0.0
	51	2	1	2	0	0	1.3653923113E+02	1.9404444664E+00	-9.2882739744E+02	1.4054155768E+03	1.0458613113E+03	0.000E+00	0.0
	1000022	2	5	5	0	0	-1.3653923113E+02	-1.9404444664E+00	-7.7886885519E+02	1.1605435025E+03	8.4945735656E+02	0.000E+00	0.0
	14	1	6	6	0	0	1.0902808500E+02	2.0412885426E+02	-4.2517068072E+02	5.8305301663E+02	3.2500000000E+02	0.000E+00	0.0
	-14	1	6	6	0	0	-2.4556731613E+02	-2.0606929873E+02	-3.5369817447E+02	5.7749048585E+02	3.2500000000E+02	0.000E+00	0.0
	25	2	5	5	0	0	1.3653923113E+02	1.9404444664E+00	-1.5368693952E+02	2.4070101318E+02	1.2518216888E+02	0.000E+00	0.0
	-5	1	9	9	0	501	4.4245160717E+01	1.7579586133E+01	-1.3755286667E+02	1.4561915954E+02	4.1800000000E+00	0.000E+00	0.0
	5	1	9	9	501	0	9.2294070412E+01	-1.5639141667E+01	-1.6134072848E+01	9.5081853642E+01	4.1800000000E+00	0.000E+00	0.0
</event>
<event>
    11  -1  1.0000000E+00  1.0000000E+00  -1.0000000E+00  -1.0000000E+00
	2212	-1	0	0	0	0	0.0000000000E+00	0.0000000000E+00	6.5000000000E+03	6.5000000000E+03	9.3827000000E-01	0.000E+00	0.0
	2212	-1	0	0	0	0	0.0000000000E+00	0.0000000000E+00	-6.5000000000E+03	6.5000000000E+03	9.3827000000E-01	0.000E+00	0.0
	2212	1	0	0	0	0	0.0000000000E+00	0.0000000000E+00	6.3196721915E+03	6.3196721915E+03	9.3827000000E-01	0.000E+00	0.0
	2212	1	0	0	0	0	0.0000000000E+00	0.0000000000E+00	-4.9654777888E+03	4.9654777888E+03	9.3827000000E-01	0.000E+00	0.0
	51	2	1	2	0	0	2.6039790109E+01	-7.7001458355E+00	-1.1324682948E+03	1.5459915625E+03	1.0520779960E+03	0.000E+00	0.0
	1000022	2	5	5	0	0	-2.6039790109E+01	7.7001458355E+00	-1.3408999966E+03	1.5860961605E+03	8.4672951198E+02	0.000E+00	0.0
	14	1	6	6	0	0	8.4760164840E+01	-1.1375118507E+02	-1.0836431521E+03	1.1401890627E+03	3.2500000000E+02	0.000E+00	0.0
	-14	1	6	6	0	0	-1.1079995495E+02	1.2145133090E+02	-2.5725684455E+02	4.4590709779E+02	3.2500000000E+02	0.000E+00	0.0
	25	2	5	5	0	0	2.6039790109E+01	-7.7001458355E+00	-1.3294406058E+01	1.2875385915E+02	1.2515371389E+02	0.000E+00	0.0
	-5	1	9	9	0	501	2.8081129444E+01	-3.1705413858E+01	-6.1448438524E+01	7.4747348420E+01	4.1800000000E+00	0.000E+00	0.0
	5	1	9	9	501	0	-2.0413393352E+00	2.4005268022E+01	4.8154032466E+01	5.4006510735E+01	4.1800000000E+00	0.000E+00	0.0
</event>
<event>
    11  -1  1.0000000E+00  1.0000000E+00  -1.0000000E+00  -1.0000000E+00
	2212	-1	0	0	0	0	0.0000000000E+00	0.0000000000E+00	6.5000000000E+03	6.5000000000E+03	9.3827000000E-01	0.000E+00	0.0
	2212	-1	0	0	0	0	0.0000000000E+00	0.0000000000E+00	-6.5000000000E+03	6.5000000000E+03	9.3827000000E-01	0.000E+00	0.0
	2212	1	0	0	0	0	0.0000000000E+00	0.0000000000E+00	5.5755807579E+03	5.5755807579E+03	9.3827000000E-01	0.000E+00	0.0
	2212	1	0	0	0	0	0.0000000000E+00	0.0000000000E+00	-6.1929074347E+03	6.1929074347E+03	9.3827000000E-01	0.000E+00	0.0
	51	2	1	2	0	0	1.1300227763E+02	-1.0442304483E+02	6.1449291849E+02	1.2396791278E+03	1.0656120804E+03	0.000E+00	0.0
	1000022	2	5	5	0	0	-1.1300227763E+02	1.0442304483E+02	5.1157820044E+02	1.0067325874E+03	8.5330215072E+02	0.000E+00	0.0
	14	1	6	6	0	0	-1.7946588772E+02	-1.3603458256E+02	4.3870307509E+02	5.9059190699E+02	3.2500000000E+02	0.000E+00	0.0
	-14	1	6	6	0	0	6.6463610087E+01	2.4045762739E+02	7.2875125350E+01	4.1614068046E+02	3.2500000000E+02	0.000E+00	0.0
	25	2	5	5	0	0	1.1300227763E+02	-1.0442304483E+02	1.0574847640E+02	2.2477922000E+02	1.2517695650E+02	0.000E+00	0.0
	-5	1	9	9	0	501	5.0461356874E+01	-8.3083671471E+01	1.2254018756E+02	1.5646985323E+02	4.1800000000E+00	0.000E+00	0.0
	5	1	9	9	501	0	6.2540920759E+01	-2.1339373363E+01	-1.6791711155E+01	6.8309366769E+01	4.1800000000E+00	0.000E+00	0.0
</event>
<event>
    11  -1  1.0000000E+00  1.0000000E+00  -1.0000000E+00  -1.0000000E+00
	2212	-1	0	0	0	0	0.0000000000E+00	0.0000000000E+00	6.5000000000E+03	6.5000000000E+03	9.3827000000E-01	0.000E+00	0.0
	2212	-1	0	0	0	0	0.0000000000E+00	0.0000000000E+00	-6.5000000000E+03	6.5000000000E+03	9.3827000000E-01	0.000E+00	0.0
	2212	1	0	0	0	0	0.0000000000E+00	0.0000000000E+00	6.1361173554E+03	6.1361173554E+03	9.3827000000E-01	0.000E+00	0.0
	2212	1	0	0	0	0	0.0000000000E+00	0.0000000000E+00	-5.7412092849E+03	5.7412092849E+03	9.3827000000E-01	0.000E+00	0.0
	51	2	1	2	0	0	-4.8866362186E+01	2.7745483996E+01	-5.3746968332E+02	1.1817252143E+03	1.0509248728E+03	0.000E+00	0.0
	1000022	2	5	5	0	0	4.8866362186E+01	-2.7745483996E+01	-1.8486851225E+02	8.7179029804E+02	8.5010835997E+02	0.000E+00	0.0
	14	1	6	6	0	0	-7.3238764794E+01	-2.4992792635E+02	-1.9412626518E+02	4.5949743402E+02	3.2500000000E+02	0.000E+00	0.0
	-14	1	6	6	0	0	1.2210512698E+02	2.2218244236E+02	9.2577529295E+00	4.1229286401E+02	3.2500000000E+02	0.000E+00	0.0
	25	2	5	5	0	0	-4.8866362186E+01	2.7745483996E+01	-2.1003955831E+02	2.5088306164E+02	1.2517172734E+02	0.000E+00	0.0
	-5	1	9	9	0	501	3.1491749624E+01	1.6975469742E+01	-1.3903864123E+01	3.8609412128E+01	4.1800000000E+00	0.000E+00	0.0
	5	1	9	9	501	0	-8.0358111810E+01	1.0770014255E+01	-1.9613569419E+02	2.1227364951E+02	4.1800000000E+00	0.000E+00	0.0
</event>
<event>
    11  -1  1.0000000E+00  1.0000000E+00  -1.0000000E+00  -1.0000000E+00
	2212	-1	0	0	0	0	0.0000000000E+00	0.0000000000E+00	6.5000000000E+03	6.5000000000E+03	9.3827000000E-01	0.000E+00	0.0
	2212	-1	0	0	0	0	0.0000000000E+00	0.0000000000E+00	-6.5000000000E+03	6.5000000000E+03	9.3827000000E-01	0.000E+00	0.0
	2212	1	0	0	0	0	0.0000000000E+00	0.0000000000E+00	5.9612382541E+03	5.9612382541E+03	9.3827000000E-01	0.000E+00	0.0
	2212	1	0	0	0	0	0.0000000000E+00	0.0000000000E+00	-5.9878250251E+03	5.9878250251E+03	9.3827000000E-01	0.000E+00	0.0
	51	2	1	2	0	0	-7.5179018204E+01	1.3991488431E+02	1.7880613903E+01	1.0626894706E+03	1.0506003688E+03	0.000E+00	0.0
	1000022	2	5	5	0	0	7.5179018204E+01	-1.3991488431E+02	3.0473452284E+01	8.4867704094E+02	8.3312425778E+02	0.000E+00	0.0
	14	1	6	6	0	0	8.9790220773E+01	-2.5700342815E+01	2.6674385295E+02	4.3069719578E+02	3.2500000000E+02	0.000E+00	0.0
	-14	1	6	6	0	0	-1.4611202569E+01	-1.1421454149E+02	-2.3627040067E+02	4.1797984516E+02	3.2500000000E+02	0.000E+00	0.0
	25	2	5	5	0	0	-7.5179018204E+01	1.3991488431E+02	-3.8866812731E+00	2.0225967993E+02	1.2516314236E+02	0.000E+00	0.0
	-5	1	9	9	0	501	-1.0601181306E+02	7.8887629356E+01	-1.4265076495E+01	1.3297641664E+02	4.1800000000E+00	0.000E+00	0.0
	5	1	9	9	501	0	3.0832794856E+01	6.1027254952E+01	1.0378395222E+01	6.9283263297E+01	4.1800000000E+00	0.000E+00	0.0
</event>
<event>
    11  -1  1.0000000E+00  1.0000000E+00  -1.0000000E+00  -1.0000000E+00
	2212	-1	0	0	0	0	0.0000000000E+00	0.0000000000E+00	6.5000000000E+03	6.5000000000E+03	9.3827000000E-01	0.000E+00	0.0
	2212	-1	0	0	0	0	0.0000000000E+00	0.0000000000E+00	-6.5000000000E+03	6.5000000000E+03	9.3827000000E-01	0.000E+00	0.0
	2212	1	0	0	0	0	0.0000000000E+00	0.0000000000E+00	5.7704352597E+03	5.7704352597E+03	9.3827000000E-01	0.000E+00	0.0
	2212	1	0	0	0	0	0.0000000000E+00	0.0000000000E+00	-6.1220970014E+03	6.1220970014E+03	9.3827000000E-01	0.000E+00	0.0
	51	2	1	2	0	0	-2.6533918626E+01	4.9321510042E+01	4.8196879830E+02	1.1568272969E+03	1.0501518044E+03	0.000E+00	0.0
	1000022	2	5	5	0	0	2.6533918626E+01	-4.9321510042E+01	1.6295491894E+02	8.7419321556E+02	8.5704306329E+02	0.000E+00	0.0
	14	1	6	6	0	0	-7.4960670626E+01	1.7270265151E+02	-1.0174391655E+02	3.8912996869E+02	3.2500000000E+02	0.000E+00	0.0
	-14	1	6	6	0	0	1.0149458925E+02	-2.2202416155E+02	2.6469883548E+02	4.8506324687E+02	3.2500000000E+02	0.000E+00	0.0
	25	2	5	5	0	0	-2.6533918626E+01	4.9321510042E+01	1.8870682280E+02	2.3327452338E+02	1.2518018252E+02	0.000E+00	0.0
	-5	1	9	9	0	501	1.0647415950E+01	9.2884803338E+00	1.7652778149E+02	1.7714167599E+02	4.1800000000E+00	0.000E+00	0.0
	5	1	9	9	501	0	-3.7181334576E+01	4.0033029709E+01	1.2179041303E+01	5.6132847385E+01	4.1800000000E+00	0.000E+00	0.0
</event>
<event>
    11  -1  1.0000000E+00  1.0000000E+00  -1.0000000E+00  -1.0000000E+00
	2212	-1	0	0	0	0	0.0000000000E+00	0.0000000000E+00	6.5000000000E+03	6.5000000000E+03	9.3827000000E-01	0.000E+00	0.0
	2212	-1	0	0	0	0	0.0000000000E+00	0.0000000000E+00	-6.5000000000E+03	6.5000000000E+03	9.3827000000E-01	0.000E+00	0.0
	2212	1	0	0	0	0	0.0000000000E+00	0.0000000000E+00	4.8854906117E+03	4.8854906117E+03	9.3827000000E-01	0.000E+00	0.0
	2212	1	0	0	0	0	0.0000000000E+00	0.0000000000E+00	-6.3291198766E+03	6.3291198766E+03	9.3827000000E-01	0.000E+00	0.0
	51	2	1	2	0	0	-9.4329626372E+01	-8.8991292562E+01	1.5804126814E+03	1.9021230314E+03	1.0505000020E+03	0.000E+00	0.0
	1000022	2	5	5	0	0	9.4329626372E+01	8.8991292562E+01	1.0544355952E+03	1.3564909304E+03	8.4345461722E+02	0.000E+00	0.0
	14	1	6	6	0	0	1.4504110437E+02	5.5163361624E+01	9.3991955170E+02	1.0065553547E+03	3.2500000000E+02	0.000E+00	0.0
	-14	1	6	6	0	0	-5.0711478002E+01	3.3827930938E+01	1.1451604345E+02	3.4993557567E+02	3.2500000000E+02	0.000E+00	0.0
	25	2	5	5	0	0	-9.4329626372E+01	-8.8991292562E+01	3.8919366967E+02	4.2889858133E+02	1.2515890695E+02	0.000E+00	0.0
	-5	1	9	9	0	501	-9.0474896347E+01	-1.6898366540E-01	2.1451718708E+02	2.3285366945E+02	4.1800000000E+00	0.000E+00	0.0
	5	1	9	9	501	0	-3.8547300252E+00	-8.8822308896E+01	1.7467648259E+02	1.9604491187E+02	4.1800000000E+00	0.000E+00	0.0
</event>
<event>
    11  -1  1.0000000E+00  1.0000000E+00  -1.0000000E+00  -1.0000000E+00
	2212	-1	0	0	0	0	0.0000000000E+00	0.0000000000E+00	6.5000000000E+03	6.5000000000E+03	9.3827000000E-01	0.000E+00	0.0
	2212	-1	0	0	0	0	0.0000000000E+00	0.0000000000E+00	-6.5000000000E+03	6.5000000000E+03	9.3827000000E-01	0.000E+00	0.0
	2212	1	0	0	0	0	0.0000000000E+00	0.0000000000E+00	6.3240852240E+03	6.3240852240E+03	9.3827000000E-01	0.000E+00	0.0
	2212	1	0	0	0	0	0.0000000000E+00	0.0000000000E+00	-4.8984871987E+03	4.8984871987E+03	9.3827000000E-01	0.000E+00	0.0
	51	2	1	2	0	0	-1.2869773758E+02	9.6495157741E+01	-1.4585979859E+03	1.8111602829E+03	1.0615644412E+03	0.000E+00	0.0
	1000022	2	5	5	0	0	1.2869773758E+02	-9.6495157741E+01	-1.1349056152E+03	1.4224053790E+03	8.4223030329E+02	0.000E+00	0.0
	14	1	6	6	0	0	1.1233537609E+02	-9.5579061805E+01	-1.0144707061E+03	1.0754210373E+03	3.2500000000E+02	0.000E+00	0.0
	-14	1	6	6	0	0	1.6362361490E+01	-9.1609593574E-01	-1.2043490903E+02	3.4698434175E+02	3.2500000000E+02	0.000E+00	0.0
	25	2	5	5	0	0	-1.2869773758E+02	9.6495157741E+01	-2.9069241016E+02	3.5502219831E+02	1.2515694483E+02	0.000E+00	0.0
	-5	1	9	9	0	501	1.6142422545E+01	-1.3838048486E+01	-3.2314402080E+01	3.8907099266E+01	4.1800000000E+00	0.000E+00	0.0
	5	1	9	9	501	0	-1.4484016013E+02	1.1033320623E+02	-2.5837800808E+02	3.1611509904E+02	4.1800000000E+00	0.000E+00	0.0
</event>
<event>
    11  -1  1.0000000E+00  1.0000000E+00  -1.0000000E+00  -1.0000000E+00
	2212	-1	0	0	0	0	0.0000000000E+00	0.0000000000E+00	6.5000000000E+03	6.5000000000E+03	9.3827000000E-01	0.000E+00	0.0
	2212	-1	0	0	0	0	0.0000000000E+00	0.0000000000E+00	-6.5000000000E+03	6.5000000000E+03	9.3827000000E-01	0.000E+00	0.0
	2212	1	0	0	0	0	0.0000000000E+00	0.0000000000E+00	5.8521122765E+03	5.8521122765E+03	9.3827000000E-01	0.000E+00	0.0
	2212	1	0	0	0	0	0.0000000000E+00	0.0000000000E+00	-6.0681781601E+03	6.0681781601E+03	9.3827000000E-01	0.000E+00	0.0
	51	2	1	2	0	0	4.7702694992E+01	-4.2856951242E+01	2.0428840079E+02	1.0793212179E+03	1.0578696873E+03	0.000E+00	0.0
	1000022	2	5	5	0	0	-4.7702694992E+01	4.2856951242E+01	1.9942074335E+02	9.3806633274E+02	9.1437822938E+02	0.000E+00	0.0
	14	1	6	6	0	0	2.3548093556E+01	1.7615813779E+02	3.8515437163E+02	5.3437355118E+02	3.2500000000E+02	0.000E+00	0.0
	-14	1	6	6	0	0	-7.1250788548E+01	-1.3330118655E+02	-1.8573362828E+02	4.0369278155E+02	3.2500000000E+02	0.000E+00	0.0
	25	2	5	5	0	0	4.7702694992E+01	-4.2856951242E+01	1.6645140288E+01	1.4164323066E+02	1.2519376470E+02	0.000E+00	0.0
	-5	1	9	9	0	501	-3.2555422048E+01	-3.7610771537E+01	-1.9206044977E+01	5.3486168343E+01	4.1800000000E+00	0.000E+00	0.0
	5	1	9	9	501	0	8.0258117040E+01	-5.2461797049E+00	3.5851185265E+01	8.8157062322E+01	4.1800000000E+00	0.000E+00	0.0
</event>
<event>
    11  -1  1.0000000E+00  1.0000000E+00  -1.0000000E+00  -1.0000000E+00
	2212	-1	0	0	0	0	0.0000000000E+00	0.0000000000E+00	6.5000000000E+03	6.5000000000E+03	9.3827000000E-01	0.000E+00	0.0
	2212	-1	0	0	0	0	0.0000000000E+00	0.0000000000E+00	-6.5000000000E+03	6.5000000000E+03	9.3827000000E-01	0.000E+00	0.0
	2212	1	0	0	0	0	0.0000000000E+00	0.0000000000E+00	4.8898189689E+03	4.8898189689E+03	9.3827000000E-01	0.000E+00	0.0
	2212	1	0	0	0	0	0.0000000000E+00	0.0000000000E+00	-6.3289045717E+03	6.3289045717E+03	9.3827000000E-01	0.000E+00	0.0
	51	2	1	2	0	0	-9.6860287493E+01	5.2143156630E+00	1.6124426336E+03	1.9264887240E+03	1.0497516149E+03	0.000E+00	0.0
	1000022	2	5	5	0	0	9.6860287493E+01	-5.2143156630E+00	1.0244859601E+03	1.3374580628E+03	8.5429121670E+02	0.000E+00	0.0
	14	1	6	6	0	0	2.2112335479E+02	-9.9492406625E+00	1.9704807947E+02	4.3982663749E+02	3.2500000000E+02	0.000E+00	0.0
	-14	1	6	6	0	0	-1.2426306730E+02	4.7349249995E+00	8.2743788059E+02	8.9763142528E+02	3.2500000000E+02	0.000E+00	0.0
	25	2	5	5	0	0	-9.6860287493E+01	5.2143156630E+00	4.1459964270E+02	4.4381839667E+02	1.2519105845E+02	0.000E+00	0.0
	-5	1	9	9	0	501	2.7231930180E+01	1.8612560258E+01	7.7566245772E+01	8.4391944544E+01	4.1800000000E+00	0.000E+00	0.0
	5	1	9	9	501	0	-1.2409221767E+02	-1.3398244595E+01	3.3703339693E+02	3.5942645213E+02	4.1800000000E+00	0.000E+00	0.0
</event>
<event>
    11  -1  1.0000000E+00  1.0000000E+00  -1.0000000E+00  -1.0000000E+00
	2212	-1	0	0	0	0	0.0000000000E+00	0.0000000000E+00	6.5000000000E+03	6.5000000000E+03	9.3827000000E-01	0.000E+00	0.0
	2212	-1	0	0	0	0	0.0000000000E+00	0.0000000000E+00	-6.5000000000E+03	6.5000000000E+03	9.3827000000E-01	0.000E+00	0.0
	2212	1	0	0	0	0	0.0000000000E+00	0.0000000000E+00	6.2204830388E+03	6.2204830388E+03	9.3827000000E-01	0.000E+00	0.0
	2212	1	0	0	0	0	0.0000000000E+00	0.0000000000E+00	-5.5174733737E+03	5.5174733737E+03	9.3827000000E-01	0.000E+00	0.0
	51	2	1	2	0	0	-2.2233721534E+01	-9.8193829888E+01	-5.5806143122E+02	1.1916796362E+03	1.0481084999E+03	0.000E+00	0.0
	1000022	2	5	5	0	0	2.2233721534E+01	9.8193829888E+01	-7.1883902233E+02	1.1006132148E+03	8.2733520534E+02	0.000E+00	0.0
	14	1	6	6	0	0	2.0664997242E+01	-1.5226173898E+02	-5.4968396265E+02	6.5680144493E+02	3.2500000000E+02	0.000E+00	0.0
	-14	1	6	6	0	0	1.5687242920E+00	2.5045556887E+02	-1.6915505969E+02	4.4381176989E+02	3.2500000000E+02	0.000E+00	0.0
	25	2	5	5	0	0	-2.2233721534E+01	-9.8193829888E+01	1.5829357322E+01	1.6143037268E+02	1.2519117409E+02	0.000E+00	0.0
	-5	1	9	9	0	501	-6.5772945098E+01	-1.9831661343E+01	-5.9535797162E+00	6.9081782041E+01	4.1800000000E+00	0.000E+00	0.0
	5	1	9	9	501	0	4.3539223564E+01	-7.8362168544E+01	2.1782937038E+01	9.2348590642E+01	4.1800000000E+00	0.000E+00	0.0
</event>
<event>
    11  -1  1.0000000E+00  1.0000000E+00  -1.0000000E+00  -1.0000000E+00
	2212	-1	0	0	0	0	0.0000000000E+00	0.0000000000E+00	6.5000000000E+03	6.5000000000E+03	9.3827000000E-01	0.000E+00	0.0
	2212	-1	0	0	0	0	0.0000000000E+00	0.0000000000E+00	-6.5000000000E+03	6.5000000000E+03	9.3827000000E-01	0.000E+00	0.0
	2212	1	0	0	0	0	0.0000000000E+00	0.0000000000E+00	5.3076038007E+03	5.3076038007E+03	9.3827000000E-01	0.000E+00	0.0
	2212	1	0	0	0	0	0.0000000000E+00	0.0000000000E+00	-6.2703365926E+03	6.2703365926E+03	9.3827000000E-01	0.000E+00	0.0
	51	2	1	2	0	0	-1.5932836844E+02	5.1603208591E+01	9.9960880490E+02	1.4569369510E+03	1.0466131550E+03	0.000E+00	0.0
	1000022	2	5	5	0	0	1.5932836844E+02	-5.1603208591E+01	7.4519811731E+02	1.1203300397E+03	8.1961621735E+02	0.000E+00	0.0
	14	1	6	6	0	0	-1.3376505533E+02	-8.5595956216E+01	5.0125150289E+02	6.1814062065E+02	3.2500000000E+02	0.000E+00	0.0
	-14	1	6	6	0	0	2.9309342376E+02	3.3992747626E+01	2.4394661441E+02	5.0218941907E+02	3.2500000000E+02	0.000E+00	0.0
	25	2	5	5	0	0	-1.5932836844E+02	5.1603208591E+01	2.1753467459E+02	3.0172956692E+02	1.2518377202E+02	0.000E+00	0.0
	-5	1	9	9	0	501	-1.7691610995E+02	6.1730793706E+01	2.0375009434E+02	2.7684214671E+02	4.1800000000E+00	0.000E+00	0.0
	5	1	9	9	501	0	1.7587741514E+01	-1.0127585115E+01	1.3784580252E+01	2.4887420207E+01	4.1800000000E+00	0.000E+00	0.0
</event>
<event>
    11  -1  1.0000000E+00  1.0000000E+00  -1.0000000E+00  -1.0000000E+00
	2212	-1	0	0	0	0	0.0000000000E+00	0.0000000000E+00	6.5000000000E+03	6.5000000000E+03	9.3827000000E-01	0.000E+00	0.0
	2212	-1	0	0	0	0	0.0000000000E+00	0.0000000000E+00	-6.5000000000E+03	6.5000000000E+03	9.3827000000E-01	0.000E+00	0.0
	2212	1	0	0	0	0	0.0000000000E+00	0.0000000000E+00	5.9179259001E+03	5.9179259001E+03	9.3827000000E-01	0.000E+00	0.0
	2212	1	0	0	0	0	0.0000000000E+00	0.0000000000E+00	-6.0185334145E+03	6.0185334145E+03	9.3827000000E-01	0.000E+00	0.0
	51	2	1	2	0	0	5.7661774108E+01	7.6985134438E+01	1.9897002514E+02	1.0815903012E+03	1.0587714190E+03	0.000E+00	0.0
	1000022	2	5	5	0	0	-5.7661774108E+01	-7.6985134438E+01	-1.4530674523E+01	8.6815226606E+02	8.6268512532E+02	0.000E+00	0.0
	14	1	6	6	0	0	-2.5452499799E+02	1.3253740028E+02	-2.2832353970E+01	4.3416063094E+02	3.2500000000E+02	0.000E+00	0.0
	-14	1	6	6	0	0	1.9686322388E+02	-2.0952253472E+02	8.3016794476E+00	4.3399163512E+02	3.2500000000E+02	0.000E+00	0.0
	25	2	5	5	0	0	5.7661774108E+01	7.6985134438E+01	1.1513818890E+02	1.9538841937E+02	1.2517284355E+02	0.000E+00	0.0
	-5	1	9	9	0	501	-2.3391592697E+01	-1.9975654319E+01	1.7522375550E+01	3.5646871101E+01	4.1800000000E+00	0.000E+00	0.0
	5	1	9	9	501	0	8.1053366805E+01	9.6960788757E+01	9.7615813354E+01	1.5974154827E+02	4.1800000000E+00	0.000E+00	0.0
</event>
<event>
    11  -1  1.0000000E+00  1.0000000E+00  -1.0000000E+00  -1.0000000E+00
	2212	-1	0	0	0	0	0.0000000000E+00	0.0000000000E+00	6.5000000000E+03	6.5000000000E+03	9.3827000000E-01	0.000E+00	0.0
	2212	-1	0	0	0	0	0.0000000000E+00	0.0000000000E+00	-6.5000000000E+03	6.5000000000E+03	9.3827000000E-01	0.000E+00	0.0
	2212	1	0	0	0	0	0.0000000000E+00	0.0000000000E+00	6.0509284633E+03	6.0509284633E+03	9.3827000000E-01	0.000E+00	0.0
	2212	1	0	0	0	0	0.0000000000E+00	0.0000000000E+00	-5.8742279309E+03	5.8742279309E+03	9.3827000000E-01	0.000E+00	0.0
	51	2	1	2	0	0	-4.8459093557E+00	1.1399650415E+02	-2.8046699480E+02	1.1026087791E+03	1.0602196465E+03	0.000E+00	0.0
	1000022	2	5	5	0	0	4.8459093557E+00	-1.1399650415E+02	-4.1913087171E+01	8.5838231116E+02	8.4973219278E+02	0.000E+00	0.0
	14	1	6	6	0	0	2.0226645178E+02	-1.9093997744E+02	1.1005916032E+02	4.4171009867E+02	3.2500000000E+02	0.000E+00	0.0
	-14	1	6	6	0	0	-1.9742054242E+02	7.6943473285E+01	-1.5197224749E+02	4.1667221249E+02	3.2500000000E+02	0.000E+00	0.0
	25	2	5	5	0	0	-4.8459093557E+00	1.1399650415E+02	-1.3478744527E+02	2.1646129466E+02	1.2517647897E+02	0.000E+00	0.0
	-5	1	9	9	0	501	-2.1030295057E+01	-2.2410015582E+01	-1.6462046722E+01	3.5113437468E+01	4.1800000000E+00	0.000E+00	0.0
	5	1	9	9	501	0	1.6184385701E+01	1.3640651974E+02	-1.1832539854E+02	1.8134785719E+02	4.1800000000E+00	0.000E+00	0.0
</event>
<event>
    11  -1  1.0000000E+00  1.0000000E+00  -1.0000000E+00  -1.0000000E+00
	2212	-1	0	0	0	0	0.0000000000E+00	0.0000000000E+00	6.5000000000E+03	6.5000000000E+03	9.3827000000E-01	0.000E+00	0.0
	2212	-1	0	0	0	0	0.0000000000E+00	0.0000000000E+00	-6.5000000000E+03	6.5000000000E+03	9.3827000000E-01	0.000E+00	0.0
	2212	1	0	0	0	0	0.0000000000E+00	0.0000000000E+00	6.3165401120E+03	6.3165401120E+03	9.3827000000E-01	0.000E+00	0.0
	2212	1	0	0	0	0	0.0000000000E+00	0.0000000000E+00	-4.9679883619E+03	4.9679883619E+03	9.3827000000E-01	0.000E+00	0.0
	51	2	1	2	0	0	-7.6231337273E+01	5.5810212098E+01	-1.5575894674E+03	1.8866005617E+03	1.0603069055E+03	0.000E+00	0.0
	1000022	2	5	5	0	0	7.6231337273E+01	-5.5810212098E+01	-9.0493889690E+02	1.2459431398E+03	8.5119557321E+02	0.000E+00	0.0
	14	1	6	6	0	0	-2.1635096597E+02	-6.5472504781E+01	-5.7478989567E+02	6.9792751309E+02	3.2500000000E+02	0.000E+00	0.0
	-14	1	6	6	0	0	2.9258230325E+02	9.6622926837E+00	-3.3014900123E+02	5.4801562668E+02	3.2500000000E+02	0.000E+00	0.0
	25	2	5	5	0	0	-7.6231337273E+01	5.5810212098E+01	-4.4361285328E+02	4.6952838632E+02	1.2140241105E+02	0.000E+00	0.0
	-5	1	9	9	0	501	-1.0393187186E+02	4.7229143861E+01	-2.6566581471E+02	2.8918544833E+02	4.1800000000E+00	0.000E+00	0.0
	5	1	9	9	501	0	2.7700534586E+01	8.5810682365E+00	-1.7794703857E+02	1.8034293799E+02	4.1800000000E+00	0.000E+00	0.0
</event>
<event>
    11  -1  1.0000000E+00  1.0000000E+00  -1.0000000E+00  -1.0000000E+00
	2212	-1	0	0	0	0	0.0000000000E+00	0.0000000000E+00	6.5000000000E+03	6.5000000000E+03	9.3827000000E-01	0.000E+00	0.0
	2212	-1	0	0	0	0	0.0000000000E+00	0.0000000000E+00	-6.5000000000E+03	6.5000000000E+03	9.3827000000E-01	0.000E+00	0.0
	2212	1	0	0	0	0	0.0000000000E+00	0.0000000000E+00	5.2120605720E+03	5.2120605720E+03	9.3827000000E-01	0.000E+00	0.0
	2212	1	0	0	0	0	0.0000000000E+00	0.0000000000E+00	-6.2854430688E+03	6.2854430688E+03	9.3827000000E-01	0.000E+00	0.0
	51	2	1	2	0	0	-7.1313682173E+01	-7.7603306536E+01	1.2459388929E+03	1.6336514206E+03	1.0513540435E+03	0.000E+00	0.0
	1000022	2	5	5	0	0	7.1313682173E+01	7.7603306536E+01	7.0946626006E+02	1.1034801534E+03	8.3858103977E+02	0.000E+00	0.0
	14	1	6	6	0	0	9.9737274929E+01	3.7812638789E+01	6.9487040544E+02	7.7449803099E+02	3.2500000000E+02	0.000E+00	0.0
	-14	1	6	6	0	0	-2.8423592756E+01	3.9790667748E+01	1.4595854619E+01	3.2898212237E+02	3.2500000000E+02	0.000E+00	0.0
	25	2	5	5	0	0	-7.1313682173E+01	-7.7603306536E+01	3.6391623678E+02	3.9901620583E+02	1.2518382753E+02	0.000E+00	0.0
	-5	1	9	9	0	501	-6.4666924961E+01	-9.1140503776E+01	1.6406254384E+02	1.9855073232E+02	4.1800000000E+00	0.000E+00	0.0
	5	1	9	9	501	0	-6.6467572119E+00	1.3537197240E+01	1.9985369293E+02	2.0046547351E+02	4.1800000000E+00	0.000E+00	0.0
</event>
<event>
    11  -1  1.0000000E+00  1.0000000E+00  -1.0000000E+00  -1.0000000E+00
	2212	-1	0	0	0	0	0.0000000000E+00	0.0000000000E+00	6.5000000000E+03	6.5000000000E+03	9.3827000000E-01	0.000E+00	0.0
	2212	-1	0	0	0	0	0.0000000000E+00	0.0000000000E+00	-6.5000000000E+03	6.5000000000E+03	9.3827000000E-01	0.000E+00	0.0
	2212	1	0	0	0	0	0.0000000000E+00	0.0000000000E+00	5.7867175314E+03	5.7867175314E+03	9.3827000000E-01	0.000E+00	0.0
	2212	1	0	0	0	0	0.0000000000E+00	0.0000000000E+00	-6.1099834416E+03	6.1099834416E+03	9.3827000000E-01	0.000E+00	0.0
	51	2	1	2	0	0	4.4639544179E+00	1.3311007732E+02	3.6818726604E+02	1.1251968613E+03	1.0548781419E+03	0.000E+00	0.0
	1000022	2	5	5	0	0	-4.4639544179E+00	-1.3311007732E+02	2.2382254477E+02	8.9531884330E+02	8.5659855244E+02	0.000E+00	0.0
	14	1	6	6	0	0	7.4014362270E+01	-1.9157918652E+02	3.6274554151E+02	5.2857358846E+02	3.2500000000E+02	0.000E+00	0.0
	-14	1	6	6	0	0	-7.8478316688E+01	5.8469109204E+01	-1.3892299674E+02	3.6674525484E+02	3.2500000000E+02	0.000E+00	0.0
	25	2	5	5	0	0	4.4639544179E+00	1.3311007732E+02	9.9443365378E+01	2.0798018365E+02	1.2501421640E+02	0.000E+00	0.0
	-5	1	9	9	0	501	4.3232193131E+01	2.9297764538E+01	-8.6727076677E+00	5.3104329279E+01	4.1800000000E+00	0.000E+00	0.0
	5	1	9	9	501	0	-3.8768238713E+01	1.0381231278E+02	1.0811607305E+02	1.5487585438E+02	4.1800000000E+00	0.000E+00	0.0
</event>
<event>
    11  -1  1.0000000E+00  1.0000000E+00  -1.0000000E+00  -1.0000000E+00
	2212	-1	0	0	0	0	0.0000000000E+00	0.0000000000E+00	6.5000000000E+03	6.5000000000E+03	9.3827000000E-01	0.000E+00	0.0
	2212	-1	0	0	0	0	0.0000000000E+00	0.0000000000E+00	-6.5000000000E+03	6.5000000000E+03	9.3827000000E-01	0.000E+00	0.0
	2212	1	0	0	0	0	0.0000000000E+00	0.0000000000E+00	5.6571882914E+03	5.6571882914E+03	9.3827000000E-01	0.000E+00	0.0
	2212	1	0	0	0	0	0.0000000000E+00	0.0000000000E+00	-6.1758316707E+03	6.1758316707E+03	9.3827000000E-01	0.000E+00	0.0
	51	2	1	2	0	0	1.0282987288E+02	-8.2407890990E+01	4.2299383620E+02	1.1354031367E+03	1.0453953578E+03	0.000E+00	0.0
	1000022	2	5	5	0	0	-1.0282987288E+02	8.2407890990E+01	5.1950958253E+02	9.8528849730E+02	8.2676367441E+02	0.000E+00	0.0
	14	1	6	6	0	0	1.3370829201E+02	2.0259810910E+02	3.3862005151E+02	5.2840556436E+02	3.2500000000E+02	0.000E+00	0.0
	-14	1	6	6	0	0	-2.3653816489E+02	-1.2019021811E+02	1.8088953101E+02	4.5688293294E+02	3.2500000000E+02	0.000E+00	0.0
	25	2	5	5	0	0	1.0282987288E+02	-8.2407890990E+01	-8.6620331371E-01	1.8169154060E+02	1.2508406120E+02	0.000E+00	0.0
	-5	1	9	9	0	501	3.8901701972E+01	-1.0625537566E+02	2.3845767266E+00	1.1325504792E+02	4.1800000000E+00	0.000E+00	0.0
	5	1	9	9	501	0	6.3928170908E+01	2.3847484667E+01	-3.2507800404E+00	6.8436492689E+01	4.1800000000E+00	0.000E+00	0.0
</event>
<event>
    11  -1  1.0000000E+00  1.0000000E+00  -1.0000000E+00  -1.0000000E+00
	2212	-1	0	0	0	0	0.0000000000E+00	0.0000000000E+00	6.5000000000E+03	6.5000000000E+03	9.3827000000E-01	0.000E+00	0.0
	2212	-1	0	0	0	0	0.0000000000E+00	0.0000000000E+00	-6.5000000000E+03	6.5000000000E+03	9.3827000000E-01	0.000E+00	0.0
	2212	1	0	0	0	0	0.0000000000E+00	0.0000000000E+00	5.2319505049E+03	5.2319505049E+03	9.3827000000E-01	0.000E+00	0.0
	2212	1	0	0	0	0	0.0000000000E+00	0.0000000000E+00	-6.2898979617E+03	6.2898979617E+03	9.3827000000E-01	0.000E+00	0.0
	51	2	1	2	0	0	-4.8237841451E+01	1.4605766379E+01	9.0389508939E+02	1.3730424919E+03	1.0323173612E+03	0.000E+00	0.0
	1000022	2	5	5	0	0	4.8237841451E+01	-1.4605766379E+01	1.0392674074E+03	1.3419209079E+03	8.4742832216E+02	0.000E+00	0.0
	14	1	6	6	0	0	-1.8590822905E+02	1.3658968203E+02	6.5443168457E+02	7.6624045876E+02	3.2500000000E+02	0.000E+00	0.0
	-14	1	6	6	0	0	2.3414607050E+02	-1.5119544841E+02	3.8483572280E+02	5.7568044911E+02	3.2500000000E+02	0.000E+00	0.0
	25	2	5	5	0	0	-4.8237841451E+01	1.4605766379E+01	1.8680049471E+01	1.3623062553E+02	1.2517835806E+02	0.000E+00	0.0
	-5	1	9	9	0	501	-6.7383262772E+01	5.6917475919E+01	1.3034799302E+01	8.9260750387E+01	4.1800000000E+00	0.000E+00	0.0
	5	1	9	9	501	0	1.9145421322E+01	-4.2311709540E+01	5.6452501686E+00	4.6969875146E+01	4.1800000000E+00	0.000E+00	0.0
</event>
<event>
    11  -1  1.0000000E+00  1.0000000E+00  -1.0000000E+00  -1.0000000E+00
	2212	-1	0	0	0	0	0.0000000000E+00	0.0000000000E+00	6.5000000000E+03	6.5000000000E+03	9.3827000000E-01	0.000E+00	0.0
	2212	-1	0	0	0	0	0.0000000000E+00	0.0000000000E+00	-6.5000000000E+03	6.5000000000E+03	9.3827000000E-01	0.000E+00	0.0
	2212	1	0	0	0	0	0.0000000000E+00	0.0000000000E+00	6.0565457566E+03	6.0565457566E+03	9.3827000000E-01	0.000E+00	0.0
	2212	1	0	0	0	0	0.0000000000E+00	0.0000000000E+00	-5.8821676596E+03	5.8821676596E+03	9.3827000000E-01	0.000E+00	0.0
	51	2	1	2	0	0	-4.7666990844E+01	8.8541236503E+01	-7.5729561999E+01	1.0544041689E+03	1.0468626902E+03	0.000E+00	0.0
	1000022	2	5	5	0	0	4.7666990844E+01	-8.8541236503E+01	-2.4319425810E+02	8.8660549483E+02	8.4664878416E+02	0.000E+00	0.0
	14	1	6	6	0	0	2.1515940735E+01	-3.1677093681E+02	-1.4055086667E+02	4.7559048375E+02	3.2500000000E+02	0.000E+00	0.0
	-14	1	6	6	0	0	2.6151050109E+01	2.2822970031E+02	-1.0264339143E+02	4.1101501108E+02	3.2500000000E+02	0.000E+00	0.0
	25	2	5	5	0	0	-4.7666990844E+01	8.8541236503E+01	6.8816161047E+01	1.7468108896E+02	1.2516439685E+02	0.000E+00	0.0
	-5	1	9	9	0	501	-5.6257731737E+01	1.1007445942E+02	2.6871094057E+01	1.2657348495E+02	4.1800000000E+00	0.000E+00	0.0
	5	1	9	9	501	0	8.5907408935E+00	-2.1533222917E+01	4.1945066990E+01	4.8107604005E+01	4.1800000000E+00	0.000E+00	0.0
</event>
<event>
    11  -1  1.0000000E+00  1.0000000E+00  -1.0000000E+00  -1.0000000E+00
	2212	-1	0	0	0	0	0.0000000000E+00	0.0000000000E+00	6.5000000000E+03	6.5000000000E+03	9.3827000000E-01	0.000E+00	0.0
	2212	-1	0	0	0	0	0.0000000000E+00	0.0000000000E+00	-6.5000000000E+03	6.5000000000E+03	9.3827000000E-01	0.000E+00	0.0
	2212	1	0	0	0	0	0.0000000000E+00	0.0000000000E+00	5.3524549368E+03	5.3524549368E+03	9.3827000000E-01	0.000E+00	0.0
	2212	1	0	0	0	0	0.0000000000E+00	0.0000000000E+00	-6.2740000847E+03	6.2740000847E+03	9.3827000000E-01	0.000E+00	0.0
	51	2	1	2	0	0	-5.5099533536E-01	-3.6833882505E+01	8.1179802682E+02	1.3029786733E+03	1.0185187030E+03	0.000E+00	0.0
	1000022	2	5	5	0	0	5.5099533536E-01	3.6833882505E+01	8.9454518816E+02	1.2402924403E+03	8.5834562108E+02	0.000E+00	0.0
	14	1	6	6	0	0	-5.8330907735E+01	-2.5588905133E+02	4.2776943653E+02	5.9790751142E+02	3.2500000000E+02	0.000E+00	0.0
	-14	1	6	6	0	0	5.8881903070E+01	2.9272293383E+02	4.6677575164E+02	6.4238492885E+02	3.2500000000E+02	0.000E+00	0.0
	25	2	5	5	0	0	-5.5099533536E-01	-3.6833882505E+01	2.6999959733E+01	1.3325253823E+02	1.2518067991E+02	0.000E+00	0.0
	-5	1	9	9	0	501	2.5963354831E+01	2.7909127048E+01	-2.5179686780E+01	4.5874875401E+01	4.1800000000E+00	0.000E+00	0.0
	5	1	9	9	501	0	-2.6514350167E+01	-6.4743009553E+01	5.2179646513E+01	8.7377662826E+01	4.1800000000E+00	0.000E+00	0.0
</event>
<event>
    11  -1  1.0000000E+00  1.0000000E+00  -1.0000000E+00  -1.0000000E+00
	2212	-1	0	0	0	0	0.0000000000E+00	0.0000000000E+00	6.5000000000E+03	6.5000000000E+03	9.3827000000E-01	0.000E+00	0.0
	2212	-1	0	0	0	0	0.0000000000E+00	0.0000000000E+00	-6.5000000000E+03	6.5000000000E+03	9.3827000000E-01	0.000E+00	0.0
	2212	1	0	0	0	0	0.0000000000E+00	0.0000000000E+00	6.2875268290E+03	6.2875268290E+03	9.3827000000E-01	0.000E+00	0.0
	2212	1	0	0	0	0	0.0000000000E+00	0.0000000000E+00	-5.1995293329E+03	5.1995293329E+03	9.3827000000E-01	0.000E+00	0.0
	51	2	1	2	0	0	-1.0599891436E+02	9.8262780829E+01	-1.0902827927E+03	1.5214691642E+03	1.0513137047E+03	0.000E+00	0.0
	1000022	2	5	5	0	0	1.0599891436E+02	-9.8262780829E+01	-8.9800032036E+02	1.2433907688E+03	8.4777631764E+02	0.000E+00	0.0
	14	1	6	6	0	0	-4.3934347581E+01	-2.6030013227E+02	-6.6728554566E+02	7.8776988087E+02	3.2500000000E+02	0.000E+00	0.0
	-14	1	6	6	0	0	1.4993326194E+02	1.6203735144E+02	-2.3071477470E+02	4.5562088798E+02	3.2500000000E+02	0.000E+00	0.0
	25	2	5	5	0	0	-1.0599891436E+02	9.8262780829E+01	-1.8999717577E+02	2.6955306928E+02	1.2517422424E+02	0.000E+00	0.0
	-5	1	9	9	0	501	-1.0632505514E+02	3.9692638108E+01	-6.3559557782E+01	1.3014535203E+02	4.1800000000E+00	0.000E+00	0.0
	5	1	9	9	501	0	3.2614077314E-01	5.8570142720E+01	-1.2643761799E+02	1.3940771725E+02	4.1800000000E+00	0.000E+00	0.0
</event>
<event>
    11  -1  1.0000000E+00  1.0000000E+00  -1.0000000E+00  -1.0000000E+00
	2212	-1	0	0	0	0	0.0000000000E+00	0.0000000000E+00	6.5000000000E+03	6.5000000000E+03	9.3827000000E-01	0.000E+00	0.0
	2212	-1	0	0	0	0	0.0000000000E+00	0.0000000000E+00	-6.5000000000E+03	6.5000000000E+03	9.3827000000E-01	0.000E+00	0.0
	2212	1	0	0	0	0	0.0000000000E+00	0.0000000000E+00	5.9394399335E+03	5.9394399335E+03	9.3827000000E-01	0.000E+00	0.0
	2212	1	0	0	0	0	0.0000000000E+00	0.0000000000E+00	-5.9992126038E+03	5.9992126038E+03	9.3827000000E-01	0.000E+00	0.0
	51	2	1	2	0	0	-7.6276992766E+01	-4.9336718016E+01	2.8307031773E+01	1.0639263339E+03	1.0596629957E+03	0.000E+00	0.0
	1000022	2	5	5	0	0	7.6276992766E+01	4.9336718016E+01	8.2578309730E+01	9.0499818173E+02	8.9663272321E+02	0.000E+00	0.0
	14	1	6	6	0	0	2.1813749673E+02	2.7337523854E+02	8.8163995214E+01	4.8550579665E+02	3.2500000000E+02	0.000E+00	0.0
	-14	1	6	6	0	0	-1.4186050396E+02	-2.2403852052E+02	-5.5856854846E+00	4.1949238509E+02	3.2500000000E+02	0.000E+00	0.0
	25	2	5	5	0	0	-7.6276992766E+01	-4.9336718016E+01	-2.2805639461E+01	1.5634928099E+02	1.2519069097E+02	0.000E+00	0.0
	-5	1	9	9	0	501	9.6753298126E+00	-6.5424642902E+01	-1.8016353542E+01	6.8673556052E+01	4.1800000000E+00	0.000E+00	0.0
	5	1	9	9	501	0	-8.5952322579E+01	1.6087924886E+01	-4.7892859185E+00	8.7675724938E+01	4.1800000000E+00	0.000E+00	0.0
</event>
<event>
    11  -1  1.0000000E+00  1.0000000E+00  -1.0000000E+00  -1.0000000E+00
	2212	-1	0	0	0	0	0.0000000000E+00	0.0000000000E+00	6.5000000000E+03	6.5000000000E+03	9.3827000000E-01	0.000E+00	0.0
	2212	-1	0	0	0	0	0.0000000000E+00	0.0000000000E+00	-6.5000000000E+03	6.5000000000E+03	9.3827000000E-01	0.000E+00	0.0
	2212	1	0	0	0	0	0.0000000000E+00	0.0000000000E+00	6.3052553265E+03	6.3052553265E+03	9.3827000000E-01	0.000E+00	0.0
	2212	1	0	0	0	0	0.0000000000E+00	0.0000000000E+00	-5.0984656541E+03	5.0984656541E+03	9.3827000000E-01	0.000E+00	0.0
	51	2	1	2	0	0	2.2689646926E+01	-6.3458485353E+00	-1.0183385597E+03	1.4592237341E+03	1.0448757793E+03	0.000E+00	0.0
	1000022	2	5	5	0	0	-2.2689646926E+01	6.3458485353E+00	-1.1949222543E+03	1.4683633033E+03	8.5305129197E+02	0.000E+00	0.0
	14	1	6	6	0	0	-2.6351881548E+02	-1.0240517948E+02	-5.3701635336E+02	6.8843340322E+02	3.2500000000E+02	0.000E+00	0.0
	-14	1	6	6	0	0	2.4082916855E+02	1.0875102801E+02	-6.5790590098E+02	7.7992990010E+02	3.2500000000E+02	0.000E+00	0.0
	25	2	5	5	0	0	2.2689646926E+01	-6.3458485353E+00	-1.1867418032E+01	1.2791571602E+02	1.2516590958E+02	0.000E+00	0.0
	-5	1	9	9	0	501	-5.0429622997E+01	-1.2694086044E+01	5.2558194379E+00	5.2434556679E+01	4.1800000000E+00	0.000E+00	0.0
	5	1	9	9	501	0	7.3119269923E+01	6.3482375092E+00	-1.7123237470E+01	7.5481159338E+01	4.1800000000E+00	0.000E+00	0.0
</event>
<event>
    11  -1  1.0000000E+00  1.0000000E+00  -1.0000000E+00  -1.0000000E+00
	2212	-1	0	0	0	0	0.0000000000E+00	0.0000000000E+00	6.5000000000E+03	6.5000000000E+03	9.3827000000E-01	0.000E+00	0.0
	2212	-1	0	0	0	0	0.0000000000E+00	0.0000000000E+00	-6.5000000000E+03	6.5000000000E+03	9.3827000000E-01	0.000E+00	0.0
	2212	1	0	0	0	0	0.0000000000E+00	0.0000000000E+00	5.6739056147E+03	5.6739056147E+03	9.3827000000E-01	0.000E+00	0.0
	2212	1	0	0	0	0	0.0000000000E+00	0.0000000000E+00	-6.1978578008E+03	6.1978578008E+03	9.3827000000E-01	0.000E+00	0.0
	51	2	1	2	0	0	1.2614096448E+01	-6.9236919358E+01	4.9963289481E+02	1.1193649062E+03	9.9919562513E+02	0.000E+00	0.0
	1000022	2	5	5	0	0	-1.2614096448E+01	6.9236919358E+01	4.7346542658E+02	9.7602691697E+02	8.5059165646E+02	0.000E+00	0.0
	14	1	6	6	0	0	-3.6468631706E+01	2.5964694458E+02	6.9748700586E+01	4.2336317525E+02	3.2500000000E+02	0.000E+00	0.0
	-14	1	6	6	0	0	2.3854535258E+01	-1.9041002522E+02	4.0371672599E+02	5.5266374171E+02	3.2500000000E+02	0.000E+00	0.0
	25	2	5	5	0	0	1.2614096448E+01	-6.9236919358E+01	5.0486759527E+01	1.5220966754E+02	1.2516390683E+02	0.000E+00	0.0
	-5	1	9	9	0	501	4.9331072345E+01	-6.9270783465E+01	-5.2831415534E+00	8.5307561946E+01	4.1800000000E+00	0.000E+00	0.0
	5	1	9	9	501	0	-3.6716975897E+01	3.3864107278E-02	5.5769901081E+01	6.6902105590E+01	4.1800000000E+00	0.000E+00	0.0
</event>
<event>
    11  -1  1.0000000E+00  1.0000000E+00  -1.0000000E+00  -1.0000000E+00
	2212	-1	0	0	0	0	0.0000000000E+00	0.0000000000E+00	6.5000000000E+03	6.5000000000E+03	9.3827000000E-01	0.000E+00	0.0
	2212	-1	0	0	0	0	0.0000000000E+00	0.0000000000E+00	-6.5000000000E+03	6.5000000000E+03	9.3827000000E-01	0.000E+00	0.0
	2212	1	0	0	0	0	0.0000000000E+00	0.0000000000E+00	6.3306214574E+03	6.3306214574E+03	9.3827000000E-01	0.000E+00	0.0
	2212	1	0	0	0	0	0.0000000000E+00	0.0000000000E+00	-4.8833408120E+03	4.8833408120E+03	9.3827000000E-01	0.000E+00	0.0
	51	2	1	2	0	0	-4.0248992071E+01	-4.2149649146E+01	-1.4294220317E+03	1.7725556205E+03	1.0465703554E+03	0.000E+00	0.0
	1000022	2	5	5	0	0	4.0248992071E+01	4.2149649146E+01	-1.2757919581E+03	1.5658530500E+03	9.0600997773E+02	0.000E+00	0.0
	14	1	6	6	0	0	3.2785983214E+02	9.7012501587E+00	-7.7742700064E+02	9.0421453489E+02	3.2500000000E+02	0.000E+00	0.0
	-14	1	6	6	0	0	-2.8761084007E+02	3.2448398988E+01	-4.9836495745E+02	6.6163851516E+02	3.2500000000E+02	0.000E+00	0.0
	25	2	5	5	0	0	-4.0248992071E+01	-4.2149649146E+01	-1.7148868728E+02	2.2018468060E+02	1.2520522921E+02	0.000E+00	0.0
	-5	1	9	9	0	501	-7.4516072607E+00	-7.0377426201E+01	-3.9359428689E+01	8.1087271481E+01	4.1800000000E+00	0.000E+00	0.0
	5	1	9	9	501	0	-3.2797384811E+01	2.8227777055E+01	-1.3212925860E+02	1.3909740912E+02	4.1800000000E+00	0.000E+00	0.0
</event>
<event>
    11  -1  1.0000000E+00  1.0000000E+00  -1.0000000E+00  -1.0000000E+00
	2212	-1	0	0	0	0	0.0000000000E+00	0.0000000000E+00	6.5000000000E+03	6.5000000000E+03	9.3827000000E-01	0.000E+00	0.0
	2212	-1	0	0	0	0	0.0000000000E+00	0.0000000000E+00	-6.5000000000E+03	6.5000000000E+03	9.3827000000E-01	0.000E+00	0.0
	2212	1	0	0	0	0	0.0000000000E+00	0.0000000000E+00	5.2992293965E+03	5.2992293965E+03	9.3827000000E-01	0.000E+00	0.0
	2212	1	0	0	0	0	0.0000000000E+00	0.0000000000E+00	-6.2712898385E+03	6.2712898385E+03	9.3827000000E-01	0.000E+00	0.0
	51	2	1	2	0	0	-1.9766290902E+01	1.2886547279E+02	1.0035141927E+03	1.4568979052E+03	1.0481000691E+03	0.000E+00	0.0
	1000022	2	5	5	0	0	1.9766290902E+01	-1.2886547279E+02	7.7982716281E+02	1.1656264310E+03	8.5647974660E+02	0.000E+00	0.0
	14	1	6	6	0	0	5.2478381143E+01	1.5267296622E+02	5.9396603202E+02	6.9604860628E+02	3.2500000000E+02	0.000E+00	0.0
	-14	1	6	6	0	0	-3.2712090241E+01	-2.8153843901E+02	1.8586113079E+02	4.6957782468E+02	3.2500000000E+02	0.000E+00	0.0
	25	2	5	5	0	0	-1.9766290902E+01	1.2886547279E+02	1.9223327916E+02	2.6385433411E+02	1.2517371800E+02	0.000E+00	0.0
	-5	1	9	9	0	501	-5.3003844024E+01	7.4653149352E+00	7.1304460974E+01	8.9257699742E+01	4.1800000000E+00	0.000E+00	0.0
	5	1	9	9	501	0	3.3237553122E+01	1.2140015786E+02	1.2092881818E+02	1.7459663437E+02	4.1800000000E+00	0.000E+00	0.0
</event>
<event>
    11  -1  1.0000000E+00  1.0000000E+00  -1.0000000E+00  -1.0000000E+00
	2212	-1	0	0	0	0	0.0000000000E+00	0.0000000000E+00	6.5000000000E+03	6.5000000000E+03	9.3827000000E-01	0.000E+00	0.0
	2212	-1	0	0	0	0	0.0000000000E+00	0.0000000000E+00	-6.5000000000E+03	6.5000000000E+03	9.3827000000E-01	0.000E+00	0.0
	2212	1	0	0	0	0	0.0000000000E+00	0.0000000000E+00	5.9092176917E+03	5.9092176917E+03	9.3827000000E-01	0.000E+00	0.0
	2212	1	0	0	0	0	0.0000000000E+00	0.0000000000E+00	-6.0384386543E+03	6.0384386543E+03	9.3827000000E-01	0.000E+00	0.0
	51	2	1	2	0	0	-7.5589741863E+01	1.1447881054E+02	1.3523130490E+02	1.0619961497E+03	1.0443797724E+03	0.000E+00	0.0
	1000022	2	5	5	0	0	7.5589741863E+01	-1.1447881054E+02	1.0133622358E+02	8.6455146673E+02	8.4756179791E+02	0.000E+00	0.0
	14	1	6	6	0	0	-2.0797952290E+02	-1.1502275889E+02	1.5178794704E+02	4.3029094561E+02	3.2500000000E+02	0.000E+00	0.0
	-14	1	6	6	0	0	2.8356926476E+02	5.4394834868E-01	-5.0451723456E+01	4.3426052111E+02	3.2500000000E+02	0.000E+00	0.0
	25	2	5	5	0	0	-7.5589741863E+01	1.1447881054E+02	2.7884738941E+01	1.8779218726E+02	1.2517643465E+02	0.000E+00	0.0
	-5	1	9	9	0	501	-2.1012278634E+01	2.1953393931E+01	-4.7462780766E+01	5.6512435061E+01	4.1800000000E+00	0.000E+00	0.0
	5	1	9	9	501	0	-5.4577463230E+01	9.2525416609E+01	7.5347519707E+01	1.3127975220E+02	4.1800000000E+00	0.000E+00	0.0
</event>
<event>
    11  -1  1.0000000E+00  1.0000000E+00  -1.0000000E+00  -1.0000000E+00
	2212	-1	0	0	0	0	0.0000000000E+00	0.0000000000E+00	6.5000000000E+03	6.5000000000E+03	9.3827000000E-01	0.000E+00	0.0
	2212	-1	0	0	0	0	0.0000000000E+00	0.0000000000E+00	-6.5000000000E+03	6.5000000000E+03	9.3827000000E-01	0.000E+00	0.0
	2212	1	0	0	0	0	0.0000000000E+00	0.0000000000E+00	5.4863121465E+03	5.4863121465E+03	9.3827000000E-01	0.000E+00	0.0
	2212	1	0	0	0	0	0.0000000000E+00	0.0000000000E+00	-6.2298646524E+03	6.2298646524E+03	9.3827000000E-01	0.000E+00	0.0
	51	2	1	2	0	0	-7.0405122576E+01	1.5531492690E+01	9.1595345073E+02	1.3926595115E+03	1.0465809489E+03	0.000E+00	0.0
	1000022	2	5	5	0	0	7.0405122576E+01	-1.5531492690E+01	4.3898398729E+02	9.4678538985E+02	8.3576164352E+02	0.000E+00	0.0
	14	1	6	6	0	0	2.4667118659E+02	7.2931880029E+01	7.6437093877E+01	4.2146573139E+02	3.2500000000E+02	0.000E+00	0.0
	-14	1	6	6	0	0	-1.7626606402E+02	-8.8463372719E+01	3.6254689341E+02	5.2531965845E+02	3.2500000000E+02	0.000E+00	0.0
	25	2	5	5	0	0	-7.0405122576E+01	1.5531492690E+01	3.0456851868E+02	3.3703781128E+02	1.2503757479E+02	0.000E+00	0.0
	-5	1	9	9	0	501	-4.9799931604E+01	2.7837932176E+01	3.0724899794E+02	3.1252904312E+02	4.1800000000E+00	0.000E+00	0.0
	5	1	9	9	501	0	-2.0605190972E+01	-1.2306439486E+01	-2.6804792588E+00	2.4508768163E+01	4.1800000000E+00	0.000E+00	0.0
</event>
<event>
    11  -1  1.0000000E+00  1.0000000E+00  -1.0000000E+00  -1.0000000E+00
	2212	-1	0	0	0	0	0.0000000000E+00	0.0000000000E+00	6.5000000000E+03	6.5000000000E+03	9.3827000000E-01	0.000E+00	0.0
	2212	-1	0	0	0	0	0.0000000000E+00	0.0000000000E+00	-6.5000000000E+03	6.5000000000E+03	9.3827000000E-01	0.000E+00	0.0
	2212	1	0	0	0	0	0.0000000000E+00	0.0000000000E+00	5.5666505866E+03	5.5666505866E+03	9.3827000000E-01	0.000E+00	0.0
	2212	1	0	0	0	0	0.0000000000E+00	0.0000000000E+00	-6.2042427831E+03	6.2042427831E+03	9.3827000000E-01	0.000E+00	0.0
	51	2	1	2	0	0	8.1098904490E+01	3.1342001144E+01	5.1683214101E+02	1.1742461901E+03	1.0507993622E+03	0.000E+00	0.0
	1000022	2	5	5	0	0	-8.1098904490E+01	-3.1342001144E+01	6.5054823718E+02	1.0761498638E+03	8.5283419669E+02	0.000E+00	0.0
	14	1	6	6	0	0	2.3099374282E+02	-2.6083513853E+01	3.7485989437E+02	5.4788995184E+02	3.2500000000E+02	0.000E+00	0.0
	-14	1	6	6	0	0	-3.1209264731E+02	-5.2584872909E+00	2.7568834280E+02	5.2825991193E+02	3.2500000000E+02	0.000E+00	0.0
	25	2	5	5	0	0	8.1098904490E+01	3.1342001144E+01	-1.2956040712E+01	1.5295676652E+02	1.2517411908E+02	0.000E+00	0.0
	-5	1	9	9	0	501	7.7765489270E+01	-3.2798473220E+01	8.9333587247E+00	8.4973457415E+01	4.1800000000E+00	0.000E+00	0.0
	5	1	9	9	501	0	3.3334152199E+00	6.4140474363E+01	-2.1889399437E+01	6.7983309101E+01	4.1800000000E+00	0.000E+00	0.0
</event>
<event>
    11  -1  1.0000000E+00  1.0000000E+00  -1.0000000E+00  -1.0000000E+00
	2212	-1	0	0	0	0	0.0000000000E+00	0.0000000000E+00	6.5000000000E+03	6.5000000000E+03	9.3827000000E-01	0.000E+00	0.0
	2212	-1	0	0	0	0	0.0000000000E+00	0.0000000000E+00	-6.5000000000E+03	6.5000000000E+03	9.3827000000E-01	0.000E+00	0.0
	2212	1	0	0	0	0	0.0000000000E+00	0.0000000000E+00	6.2466272368E+03	6.2466272368E+03	9.3827000000E-01	0.000E+00	0.0
	2212	1	0	0	0	0	0.0000000000E+00	0.0000000000E+00	-5.4257321610E+03	5.4257321610E+03	9.3827000000E-01	0.000E+00	0.0
	51	2	1	2	0	0	9.8792938614E+01	-7.5269933570E+01	-8.5016211875E+02	1.3516516114E+03	1.0434370335E+03	0.000E+00	0.0
	1000022	2	5	5	0	0	-9.8792938614E+01	7.5269933570E+01	-6.5807356948E+02	1.0876308210E+03	8.5700313435E+02	0.000E+00	0.0
	14	1	6	6	0	0	-3.5122045162E+01	2.8896058528E+02	-1.9042534240E+02	4.7604473417E+02	3.2500000000E+02	0.000E+00	0.0
	-14	1	6	6	0	0	-6.3670893452E+01	-2.1369065170E+02	-4.6764822708E+02	6.1158608682E+02	3.2500000000E+02	0.000E+00	0.0
	25	2	5	5	0	0	9.8792938614E+01	-7.5269933570E+01	-1.6282150632E+02	2.4000978113E+02	1.2517285848E+02	0.000E+00	0.0
	-5	1	9	9	0	501	1.0841713764E+02	-2.1135586811E+01	-6.6436603713E+01	1.2896621060E+02	4.1800000000E+00	0.000E+00	0.0
	5	1	9	9	501	0	-9.6241990257E+00	-5.4134346759E+01	-9.6384902607E+01	1.1104357053E+02	4.1800000000E+00	0.000E+00	0.0
</event>
<event>
    11  -1  1.0000000E+00  1.0000000E+00  -1.0000000E+00  -1.0000000E+00
	2212	-1	0	0	0	0	0.0000000000E+00	0.0000000000E+00	6.5000000000E+03	6.5000000000E+03	9.3827000000E-01	0.000E+00	0.0
	2212	-1	0	0	0	0	0.0000000000E+00	0.0000000000E+00	-6.5000000000E+03	6.5000000000E+03	9.3827000000E-01	0.000E+00	0.0
	2212	1	0	0	0	0	0.0000000000E+00	0.0000000000E+00	5.8200680565E+03	5.8200680565E+03	9.3827000000E-01	0.000E+00	0.0
	2212	1	0	0	0	0	0.0000000000E+00	0.0000000000E+00	-6.0912708592E+03	6.0912708592E+03	9.3827000000E-01	0.000E+00	0.0
	51	2	1	2	0	0	3.5877798244E+00	3.3446935742E+01	4.1101656793E+02	1.1321211000E+03	1.0543396019E+03	0.000E+00	0.0
	1000022	2	5	5	0	0	-3.5877798244E+00	-3.3446935742E+01	8.5878138213E+01	8.6251141947E+02	8.5756593007E+02	0.000E+00	0.0
	14	1	6	6	0	0	4.4275350666E+01	-2.1985044001E+02	2.3147792021E+02	4.5771339307E+02	3.2500000000E+02	0.000E+00	0.0
	-14	1	6	6	0	0	-4.7863130491E+01	1.8640350427E+02	-1.4559978199E+02	4.0479802640E+02	3.2500000000E+02	0.000E+00	0.0
	25	2	5	5	0	0	3.5877798244E+00	3.3446935742E+01	1.8532466445E+02	2.2614966478E+02	1.2516736776E+02	0.000E+00	0.0
	-5	1	9	9	0	501	-3.5157351679E+01	-3.4506482356E+01	5.3812552513E+01	7.3075303008E+01	4.1800000000E+00	0.000E+00	0.0
	5	1	9	9	501	0	3.8745131504E+01	6.7953418098E+01	1.3151211193E+02	1.5307436177E+02	4.1800000000E+00	0.000E+00	0.0
</event>
<event>
    11  -1  1.0000000E+00  1.0000000E+00  -1.0000000E+00  -1.0000000E+00
	2212	-1	0	0	0	0	0.0000000000E+00	0.0000000000E+00	6.5000000000E+03	6.5000000000E+03	9.3827000000E-01	0.000E+00	0.0
	2212	-1	0	0	0	0	0.0000000000E+00	0.0000000000E+00	-6.5000000000E+03	6.5000000000E+03	9.3827000000E-01	0.000E+00	0.0
	2212	1	0	0	0	0	0.0000000000E+00	0.0000000000E+00	5.0072726372E+03	5.0072726372E+03	9.3827000000E-01	0.000E+00	0.0
	2212	1	0	0	0	0	0.0000000000E+00	0.0000000000E+00	-6.3152035836E+03	6.3152035836E+03	9.3827000000E-01	0.000E+00	0.0
	51	2	1	2	0	0	1.0880518275E+02	-3.8638338904E+01	1.1729441893E+03	1.5787755475E+03	1.0504297546E+03	0.000E+00	0.0
	1000022	2	5	5	0	0	-1.0880518275E+02	3.8638338904E+01	1.2144561032E+03	1.4832521323E+03	8.4368345510E+02	0.000E+00	0.0
	14	1	6	6	0	0	5.4908063445E+01	-1.9073587873E+02	7.9952081457E+02	8.8558094141E+02	3.2500000000E+02	0.000E+00	0.0
	-14	1	6	6	0	0	-1.6371324619E+02	2.2937421763E+02	4.1493528862E+02	5.9767119090E+02	3.2500000000E+02	0.000E+00	0.0
	25	2	5	5	0	0	1.0880518275E+02	-3.8638338904E+01	9.3474843159E+01	1.9427164689E+02	1.2518960602E+02	0.000E+00	0.0
	-5	1	9	9	0	501	2.1827056590E+00	-4.6086459246E+01	7.1307110041E+01	8.5034712161E+01	4.1800000000E+00	0.000E+00	0.0
	5	1	9	9	501	0	1.0662247709E+02	7.4481203424E+00	2.2167733118E+01	1.0923693473E+02	4.1800000000E+00	0.000E+00	0.0
</event>
<event>
    11  -1  1.0000000E+00  1.0000000E+00  -1.0000000E+00  -1.0000000E+00
	2212	-1	0	0	0	0	0.0000000000E+00	0.0000000000E+00	6.5000000000E+03	6.5000000000E+03	9.3827000000E-01	0.000E+00	0.0
	2212	-1	0	0	0	0	0.0000000000E+00	0.0000000000E+00	-6.5000000000E+03	6.5000000000E+03	9.3827000000E-01	0.000E+00	0.0
	2212	1	0	0	0	0	0.0000000000E+00	0.0000000000E+00	6.1514016061E+03	6.1514016061E+03	9.3827000000E-01	0.000E+00	0.0
	2212	1	0	0	0	0	0.0000000000E+00	0.0000000000E+00	-5.6997315555E+03	5.6997315555E+03	9.3827000000E-01	0.000E+00	0.0
	51	2	1	2	0	0	-9.9521729932E+01	-8.7218624739E+00	-3.3708497737E+02	1.1133265942E+03	1.0563565581E+03	0.000E+00	0.0
	1000022	2	5	5	0	0	9.9521729932E+01	8.7218624739E+00	-4.8773654426E+02	9.8468741516E+02	8.4955383781E+02	0.000E+00	0.0
	14	1	6	6	0	0	-4.5351604259E+01	-2.4979793011E+02	-2.7843663474E+02	4.9760198297E+02	3.2500000000E+02	0.000E+00	0.0
	-14	1	6	6	0	0	1.4487333419E+02	2.5851979258E+02	-2.0929990952E+02	4.8708543218E+02	3.2500000000E+02	0.000E+00	0.0
	25	2	5	5	0	0	-9.9521729932E+01	-8.7218624739E+00	3.6066493639E+01	1.6417942326E+02	1.2519363180E+02	0.000E+00	0.0
	-5	1	9	9	0	501	3.7117343110E+00	-3.7803677929E+01	-1.9949429150E+01	4.3108550892E+01	4.1800000000E+00	0.000E+00	0.0
	5	1	9	9	501	0	-1.0323346424E+02	2.9081815456E+01	5.6015922789E+01	1.2107087237E+02	4.1800000000E+00	0.000E+00	0.0
</event>
<event>
    11  -1  1.0000000E+00  1.0000000E+00  -1.0000000E+00  -1.0000000E+00
	2212	-1	0	0	0	0	0.0000000000E+00	0.0000000000E+00	6.5000000000E+03	6.5000000000E+03	9.3827000000E-01	0.000E+00	0.0
	2212	-1	0	0	0	0	0.0000000000E+00	0.0000000000E+00	-6.5000000000E+03	6.5000000000E+03	9.3827000000E-01	0.000E+00	0.0
	2212	1	0	0	0	0	0.0000000000E+00	0.0000000000E+00	6.3048731426E+03	6.3048731426E+03	9.3827000000E-01	0.000E+00	0.0
	2212	1	0	0	0	0	0.0000000000E+00	0.0000000000E+00	-4.9366996030E+03	4.9366996030E+03	9.3827000000E-01	0.000E+00	0.0
	51	2	1	2	0	0	-2.2182227163E+01	-1.2317073792E+02	-1.6236034864E+03	1.9677192222E+03	1.1046119565E+03	0.000E+00	0.0
	1000022	2	5	5	0	0	2.2182227163E+01	1.2317073792E+02	-8.4824544615E+02	1.2091924823E+03	8.5262127605E+02	0.000E+00	0.0
	14	1	6	6	0	0	-1.7723672829E+02	-1.0337936992E+02	-2.2868205260E+02	4.4723666348E+02	3.2500000000E+02	0.000E+00	0.0
	-14	1	6	6	0	0	1.9941895545E+02	2.2655010784E+02	-6.1956339355E+02	7.6195581878E+02	3.2500000000E+02	0.000E+00	0.0
	25	2	5	5	0	0	-2.2182227163E+01	-1.2317073792E+02	-5.1992809349E+02	5.4923477216E+02	1.2518199020E+02	0.000E+00	0.0
	-5	1	9	9	0	501	-6.8918660144E+00	-1.0373787977E+02	-1.7646275691E+02	2.0485512562E+02	4.1800000000E+00	0.000E+00	0.0
	5	1	9	9	501	0	-1.5290361148E+01	-1.9432858144E+01	-3.4346533657E+02	3.4437964653E+02	4.1800000000E+00	0.000E+00	0.0
</event>
<event>
    11  -1  1.0000000E+00  1.0000000E+00  -1.0000000E+00  -1.0000000E+00
	2212	-1	0	0	0	0	0.0000000000E+00	0.0000000000E+00	6.5000000000E+03	6.5000000000E+03	9.3827000000E-01	0.000E+00	0.0
	2212	-1	0	0	0	0	0.0000000000E+00	0.0000000000E+00	-6.5000000000E+03	6.5000000000E+03	9.3827000000E-01	0.000E+00	0.0
	2212	1	0	0	0	0	0.0000000000E+00	0.0000000000E+00	4.8639793964E+03	4.8639793964E+03	9.3827000000E-01	0.000E+00	0.0
	2212	1	0	0	0	0	0.0000000000E+00	0.0000000000E+00	-6.3311489793E+03	6.3311489793E+03	9.3827000000E-01	0.000E+00	0.0
	51	2	1	2	0	0	-1.1052250846E+02	8.1549474127E+01	1.5465183949E+03	1.8749825819E+03	1.0511779085E+03	0.000E+00	0.0
	1000022	2	5	5	0	0	1.1052250846E+02	-8.1549474127E+01	1.1364114243E+03	1.4254838107E+03	8.4953377081E+02	0.000E+00	0.0
	14	1	6	6	0	0	-9.3001275595E+00	-3.0702067791E+02	6.0019659837E+02	7.4847120568E+02	3.2500000000E+02	0.000E+00	0.0
	-14	1	6	6	0	0	1.1982263602E+02	2.2547120379E+02	5.3621482591E+02	6.7701260503E+02	3.2500000000E+02	0.000E+00	0.0
	25	2	5	5	0	0	-1.1052250846E+02	8.1549474127E+01	3.3075815857E+02	3.7938781356E+02	1.2517432647E+02	0.000E+00	0.0
	-5	1	9	9	0	501	-7.7195764260E+01	1.1490801091E+02	2.4714820109E+02	2.8330679959E+02	4.1800000000E+00	0.000E+00	0.0
	5	1	9	9	501	0	-3.3326744202E+01	-3.3358536784E+01	8.3609957481E+01	9.6081013970E+01	4.1800000000E+00	0.000E+00	0.0
</event>
<event>
    11  -1  1.0000000E+00  1.0000000E+00  -1.0000000E+00  -1.0000000E+00
	2212	-1	0	0	0	0	0.0000000000E+00	0.0000000000E+00	6.5000000000E+03	6.5000000000E+03	9.3827000000E-01	0.000E+00	0.0
	2212	-1	0	0	0	0	0.0000000000E+00	0.0000000000E+00	-6.5000000000E+03	6.5000000000E+03	9.3827000000E-01	0.000E+00	0.0
	2212	1	0	0	0	0	0.0000000000E+00	0.0000000000E+00	6.3128265064E+03	6.3128265064E+03	9.3827000000E-01	0.000E+00	0.0
	2212	1	0	0	0	0	0.0000000000E+00	0.0000000000E+00	-5.0078257840E+03	5.0078257840E+03	9.3827000000E-01	0.000E+00	0.0
	51	2	1	2	0	0	-7.6085793874E+01	4.3872081304E+01	-1.4968543109E+03	1.8345213218E+03	1.0569682325E+03	0.000E+00	0.0
	1000022	2	5	5	0	0	7.6085793874E+01	-4.3872081304E+01	-8.9005367881E+02	1.2370849975E+03	8.5467533745E+02	0.000E+00	0.0
	14	1	6	6	0	0	2.9732608719E+02	4.1828939717E+01	-5.7777655659E+02	7.2773842256E+02	3.2500000000E+02	0.000E+00	0.0
	-14	1	6	6	0	0	-2.2124029332E+02	-8.5701021021E+01	-3.1227712221E+02	5.0934657499E+02	3.2500000000E+02	0.000E+00	0.0
	25	2	5	5	0	0	-7.6085793874E+01	4.3872081304E+01	-4.1494704360E+02	4.4226271213E+02	1.2530542684E+02	0.000E+00	0.0
	-5	1	9	9	0	501	-7.1750833545E+01	-3.0708920269E+01	-2.0702809125E+02	2.2129013278E+02	4.1800000000E+00	0.000E+00	0.0
	5	1	9	9	501	0	-4.3349603296E+00	7.4581001573E+01	-2.0791895235E+02	2.2097257934E+02	4.1800000000E+00	0.000E+00	0.0
</event>
<event>
    11  -1  1.0000000E+00  1.0000000E+00  -1.0000000E+00  -1.0000000E+00
	2212	-1	0	0	0	0	0.0000000000E+00	0.0000000000E+00	6.5000000000E+03	6.5000000000E+03	9.3827000000E-01	0.000E+00	0.0
	2212	-1	0	0	0	0	0.0000000000E+00	0.0000000000E+00	-6.5000000000E+03	6.5000000000E+03	9.3827000000E-01	0.000E+00	0.0
	2212	1	0	0	0	0	0.0000000000E+00	0.0000000000E+00	6.1552136554E+03	6.1552136554E+03	9.3827000000E-01	0.000E+00	0.0
	2212	1	0	0	0	0	0.0000000000E+00	0.0000000000E+00	-5.6761659397E+03	5.6761659397E+03	9.3827000000E-01	0.000E+00	0.0
	51	2	1	2	0	0	-1.1465192885E+02	1.3522516014E+02	-5.2152958165E+02	1.1998378849E+03	1.0659206991E+03	0.000E+00	0.0
	1000022	2	5	5	0	0	1.1465192885E+02	-1.3522516014E+02	-3.4472503535E+02	9.1336042110E+02	8.2701934688E+02	0.000E+00	0.0
	14	1	6	6	0	0	-1.5516103148E+02	-9.5815513168E+01	-9.7090842117E+00	3.7279327324E+02	3.2500000000E+02	0.000E+00	0.0
	-14	1	6	6	0	0	2.6981296033E+02	-3.9409646970E+01	-3.3501595114E+02	5.4056714786E+02	3.2500000000E+02	0.000E+00	0.0
	25	2	5	5	0	0	-1.1465192885E+02	1.3522516014E+02	-1.3432268032E+02	2.5525998378E+02	1.2523644897E+02	0.000E+00	0.0
	-5	1	9	9	0	501	-4.8203533548E+01	1.3598559198E+01	1.4046817449E+01	5.2185121818E+01	4.1800000000E+00	0.000E+00	0.0
	5	1	9	9	501	0	-6.6448395300E+01	1.2162660094E+02	-1.4836949777E+02	2.0307486196E+02	4.1800000000E+00	0.000E+00	0.0
</event>
<event>
    11  -1  1.0000000E+00  1.0000000E+00  -1.0000000E+00  -1.0000000E+00
	2212	-1	0	0	0	0	0.0000000000E+00	0.0000000000E+00	6.5000000000E+03	6.5000000000E+03	9.3827000000E-01	0.000E+00	0.0
	2212	-1	0	0	0	0	0.0000000000E+00	0.0000000000E+00	-6.5000000000E+03	6.5000000000E+03	9.3827000000E-01	0.000E+00	0.0
	2212	1	0	0	0	0	0.0000000000E+00	0.0000000000E+00	5.1311937592E+03	5.1311937592E+03	9.3827000000E-01	0.000E+00	0.0
	2212	1	0	0	0	0	0.0000000000E+00	0.0000000000E+00	-6.2983983180E+03	6.2983983180E+03	9.3827000000E-01	0.000E+00	0.0
	51	2	1	2	0	0	6.1183013718E+01	2.1511137818E+01	1.3386610753E+03	1.7029486564E+03	1.0506257953E+03	0.000E+00	0.0
	1000022	2	5	5	0	0	-6.1183013718E+01	-2.1511137818E+01	8.0622563906E+02	1.1828754814E+03	8.6312718245E+02	0.000E+00	0.0
	14	1	6	6	0	0	1.3219707830E+02	-2.2222355877E+02	5.3008515443E+02	6.7340526322E+02	3.2500000000E+02	0.000E+00	0.0
	-14	1	6	6	0	0	-1.9338009201E+02	2.0071242095E+02	2.7614048463E+02	5.0947021813E+02	3.2500000000E+02	0.000E+00	0.0
	25	2	5	5	0	0	6.1183013718E+01	2.1511137818E+01	3.6097891979E+02	3.8753244143E+02	1.2517796295E+02	0.000E+00	0.0
	-5	1	9	9	0	501	4.4000270074E+01	5.9636351937E+00	2.5792630881E+01	5.1520102087E+01	4.1800000000E+00	0.000E+00	0.0
	5	1	9	9	501	0	1.7182743644E+01	1.5547502625E+01	3.3518628891E+02	3.3601233934E+02	4.1800000000E+00	0.000E+00	0.0
</event>
<event>
    11  -1  1.0000000E+00  1.0000000E+00  -1.0000000E+00  -1.0000000E+00
	2212	-1	0	0	0	0	0.0000000000E+00	0.0000000000E+00	6.5000000000E+03	6.5000000000E+03	9.3827000000E-01	0.000E+00	0.0
	2212	-1	0	0	0	0	0.0000000000E+00	0.0000000000E+00	-6.5000000000E+03	6.5000000000E+03	9.3827000000E-01	0.000E+00	0.0
	2212	1	0	0	0	0	0.0000000000E+00	0.0000000000E+00	6.3279849111E+03	6.3279849111E+03	9.3827000000E-01	0.000E+00	0.0
	2212	1	0	0	0	0	0.0000000000E+00	0.0000000000E+00	-4.9059763967E+03	4.9059763967E+03	9.3827000000E-01	0.000E+00	0.0
	51	2	1	2	0	0	8.7361979588E+00	-9.5989303679E+01	-1.6006964285E+03	1.9152816427E+03	1.0472747716E+03	0.000E+00	0.0
	1000022	2	5	5	0	0	-8.7361979588E+00	9.5989303679E+01	-1.0026809129E+03	1.3179374757E+03	8.4988229130E+02	0.000E+00	0.0
	14	1	6	6	0	0	-1.2919599351E+02	-8.1520477307E+01	-1.6713552089E+02	3.9610159720E+02	3.2500000000E+02	0.000E+00	0.0
	-14	1	6	6	0	0	1.2045979555E+02	1.7750978099E+02	-8.3554539205E+02	9.2183587849E+02	3.2500000000E+02	0.000E+00	0.0
	25	2	5	5	0	0	8.7361979588E+00	-9.5989303679E+01	-4.1932760146E+02	4.4810121650E+02	1.2517505865E+02	0.000E+00	0.0
	-5	1	9	9	0	501	-5.4872325271E+01	-6.9003977319E+01	-2.5255200528E+02	2.6753038844E+02	4.1800000000E+00	0.000E+00	0.0
	5	1	9	9	501	0	6.3608523230E+01	-2.6985326360E+01	-1.6677559618E+02	1.8057082806E+02	4.1800000000E+00	0.000E+00	0.0
</event>
<event>
    11  -1  1.0000000E+00  1.0000000E+00  -1.0000000E+00  -1.0000000E+00
	2212	-1	0	0	0	0	0.0000000000E+00	0.0000000000E+00	6.5000000000E+03	6.5000000000E+03	9.3827000000E-01	0.000E+00	0.0
	2212	-1	0	0	0	0	0.0000000000E+00	0.0000000000E+00	-6.5000000000E+03	6.5000000000E+03	9.3827000000E-01	0.000E+00	0.0
	2212	1	0	0	0	0	0.0000000000E+00	0.0000000000E+00	4.8816160588E+03	4.8816160588E+03	9.3827000000E-01	0.000E+00	0.0
	2212	1	0	0	0	0	0.0000000000E+00	0.0000000000E+00	-6.3394944696E+03	6.3394944696E+03	9.3827000000E-01	0.000E+00	0.0
	51	2	1	2	0	0	7.5003851353E+01	-5.3135328945E+01	1.4171342118E+03	1.7480722544E+03	1.0193322774E+03	0.000E+00	0.0
	1000022	2	5	5	0	0	-7.5003851353E+01	5.3135328945E+01	1.2777272540E+03	1.5401722613E+03	8.5504076982E+02	0.000E+00	0.0
	14	1	6	6	0	0	-6.4543917886E+01	8.7327965910E+01	1.6483972051E+02	3.8024889799E+02	3.2500000000E+02	0.000E+00	0.0
	-14	1	6	6	0	0	-1.0459933468E+01	-3.4192636965E+01	1.1128875334E+03	1.1599233633E+03	3.2500000000E+02	0.000E+00	0.0
	25	2	5	5	0	0	7.5003851353E+01	-5.3135328945E+01	1.8015115686E+02	2.3871721037E+02	1.2681690072E+02	0.000E+00	0.0
	-5	1	9	9	0	501	3.8906716322E+01	-2.9566827553E+01	1.8835438501E+02	1.9463498303E+02	4.1800000000E+00	0.000E+00	0.0
	5	1	9	9	501	0	3.6097135031E+01	-2.3568501391E+01	-8.2032281485E+00	4.4082227341E+01	4.1800000000E+00	0.000E+00	0.0
</event>
<event>
    11  -1  1.0000000E+00  1.0000000E+00  -1.0000000E+00  -1.0000000E+00
	2212	-1	0	0	0	0	0.0000000000E+00	0.0000000000E+00	6.5000000000E+03	6.5000000000E+03	9.3827000000E-01	0.000E+00	0.0
	2212	-1	0	0	0	0	0.0000000000E+00	0.0000000000E+00	-6.5000000000E+03	6.5000000000E+03	9.3827000000E-01	0.000E+00	0.0
	2212	1	0	0	0	0	0.0000000000E+00	0.0000000000E+00	6.2102859931E+03	6.2102859931E+03	9.3827000000E-01	0.000E+00	0.0
	2212	1	0	0	0	0	0.0000000000E+00	0.0000000000E+00	-5.5480695085E+03	5.5480695085E+03	9.3827000000E-01	0.000E+00	0.0
	51	2	1	2	0	0	-1.2963948296E+02	-6.3119884824E+01	-6.2767459550E+02	1.2320374594E+03	1.0503096629E+03	0.000E+00	0.0
	1000022	2	5	5	0	0	1.2963948296E+02	6.3119884824E+01	-5.8096013931E+02	1.0341318434E+03	8.4328137100E+02	0.000E+00	0.0
	14	1	6	6	0	0	1.0729694555E+02	1.9615131080E+02	-5.5551593377E+02	6.8133026054E+02	3.2500000000E+02	0.000E+00	0.0
	-14	1	6	6	0	0	2.2342537404E+01	-1.3303142598E+02	-2.5444205540E+01	3.5280158286E+02	3.2500000000E+02	0.000E+00	0.0
	25	2	5	5	0	0	-1.2963948296E+02	-6.3119884824E+01	-8.1256345234E+01	2.0751265500E+02	1.2517345143E+02	0.000E+00	0.0
	-5	1	9	9	0	501	-1.1322421473E+02	2.3635204861E-01	-8.5277367983E+01	1.4180790018E+02	4.1800000000E+00	0.000E+00	0.0
	5	1	9	9	501	0	-1.6415268224E+01	-6.3356236872E+01	4.0210227490E+00	6.5704754816E+01	4.1800000000E+00	0.000E+00	0.0
</event>
<event>
    11  -1  1.0000000E+00  1.0000000E+00  -1.0000000E+00  -1.0000000E+00
	2212	-1	0	0	0	0	0.0000000000E+00	0.0000000000E+00	6.5000000000E+03	6.5000000000E+03	9.3827000000E-01	0.000E+00	0.0
	2212	-1	0	0	0	0	0.0000000000E+00	0.0000000000E+00	-6.5000000000E+03	6.5000000000E+03	9.3827000000E-01	0.000E+00	0.0
	2212	1	0	0	0	0	0.0000000000E+00	0.0000000000E+00	4.9418035704E+03	4.9418035704E+03	9.3827000000E-01	0.000E+00	0.0
	2212	1	0	0	0	0	0.0000000000E+00	0.0000000000E+00	-6.3221909958E+03	6.3221909958E+03	9.3827000000E-01	0.000E+00	0.0
	51	2	1	2	0	0	-1.2438566024E+02	3.5040599320E+01	1.2877145047E+03	1.6682786648E+03	1.0527323600E+03	0.000E+00	0.0
	1000022	2	5	5	0	0	1.2438566024E+02	-3.5040599320E+01	1.2355587275E+03	1.5050449698E+03	8.4962071298E+02	0.000E+00	0.0
	14	1	6	6	0	0	-1.1248348219E+02	1.7990279938E+02	7.1063971838E+02	8.0972301458E+02	3.2500000000E+02	0.000E+00	0.0
	-14	1	6	6	0	0	2.3686914243E+02	-2.1494339870E+02	5.2491900916E+02	6.9532195525E+02	3.2500000000E+02	0.000E+00	0.0
	25	2	5	5	0	0	-1.2438566024E+02	3.5040599320E+01	1.4482869788E+02	2.3096046395E+02	1.2517087562E+02	0.000E+00	0.0
	-5	1	9	9	0	501	-1.1904400682E+02	7.4510756298E-01	1.5411883315E+02	1.9478736580E+02	4.1800000000E+00	0.000E+00	0.0
	5	1	9	9	501	0	-5.3416534181E+00	3.4295491757E+01	-9.2901352669E+00	3.6173098145E+01	4.1800000000E+00	0.000E+00	0.0
</event>
<event>
    11  -1  1.0000000E+00  1.0000000E+00  -1.0000000E+00  -1.0000000E+00
	2212	-1	0	0	0	0	0.0000000000E+00	0.0000000000E+00	6.5000000000E+03	6.5000000000E+03	9.3827000000E-01	0.000E+00	0.0
	2212	-1	0	0	0	0	0.0000000000E+00	0.0000000000E+00	-6.5000000000E+03	6.5000000000E+03	9.3827000000E-01	0.000E+00	0.0
	2212	1	0	0	0	0	0.0000000000E+00	0.0000000000E+00	5.3540652011E+03	5.3540652011E+03	9.3827000000E-01	0.000E+00	0.0
	2212	1	0	0	0	0	0.0000000000E+00	0.0000000000E+00	-6.2580202435E+03	6.2580202435E+03	9.3827000000E-01	0.000E+00	0.0
	51	2	1	2	0	0	1.2419984643E+02	-4.6540028161E+01	9.8401331658E+02	1.4474273307E+03	1.0531723954E+03	0.000E+00	0.0
	1000022	2	5	5	0	0	-1.2419984643E+02	4.6540028161E+01	6.6887089338E+02	1.0903781417E+03	8.5084936614E+02	0.000E+00	0.0
	14	1	6	6	0	0	-3.0344624279E+02	1.0027940574E+02	2.2200168795E+02	5.0699638158E+02	3.2500000000E+02	0.000E+00	0.0
	-14	1	6	6	0	0	1.7924639636E+02	-5.3739377579E+01	4.4686920543E+02	5.8338176015E+02	3.2500000000E+02	0.000E+00	0.0
	25	2	5	5	0	0	1.2419984643E+02	-4.6540028161E+01	2.3508414898E+02	2.9753641363E+02	1.2518699717E+02	0.000E+00	0.0
	-5	1	9	9	0	501	2.9348932344E+01	2.1216615791E+01	1.5434688529E+00	3.6487796747E+01	4.1800000000E+00	0.000E+00	0.0
	5	1	9	9	501	0	9.4850914085E+01	-6.7756643951E+01	2.3354068013E+02	2.6104861688E+02	4.1800000000E+00	0.000E+00	0.0
</event>
<event>
    11  -1  1.0000000E+00  1.0000000E+00  -1.0000000E+00  -1.0000000E+00
	2212	-1	0	0	0	0	0.0000000000E+00	0.0000000000E+00	6.5000000000E+03	6.5000000000E+03	9.3827000000E-01	0.000E+00	0.0
	2212	-1	0	0	0	0	0.0000000000E+00	0.0000000000E+00	-6.5000000000E+03	6.5000000000E+03	9.3827000000E-01	0.000E+00	0.0
	2212	1	0	0	0	0	0.0000000000E+00	0.0000000000E+00	5.7640597770E+03	5.7640597770E+03	9.3827000000E-01	0.000E+00	0.0
	2212	1	0	0	0	0	0.0000000000E+00	0.0000000000E+00	-6.1244687387E+03	6.1244687387E+03	9.3827000000E-01	0.000E+00	0.0
	51	2	1	2	0	0	-4.1948818518E+01	-6.2248028183E+01	4.8505876829E+02	1.1603407990E+03	1.0514153511E+03	0.000E+00	0.0
	1000022	2	5	5	0	0	4.1948818518E+01	6.2248028183E+01	1.7511549755E+02	8.7558213571E+02	8.5460173093E+02	0.000E+00	0.0
	14	1	6	6	0	0	-1.0714502826E+00	7.8346430835E+01	3.6614556454E+02	4.9580932390E+02	3.2500000000E+02	0.000E+00	0.0
	-14	1	6	6	0	0	4.3020268801E+01	-1.6098402653E+01	-1.9103006700E+02	3.7977281181E+02	3.2500000000E+02	0.000E+00	0.0
	25	2	5	5	0	0	-4.1948818518E+01	-6.2248028183E+01	1.8529346423E+02	2.3588934857E+02	1.2520222240E+02	0.000E+00	0.0
	-5	1	9	9	0	501	-7.1964158452E+01	4.3526961808E+00	8.1434680580E+01	1.0884330786E+02	4.1800000000E+00	0.000E+00	0.0
	5	1	9	9	501	0	3.0015339934E+01	-6.6600724363E+01	1.0385878365E+02	1.2704604070E+02	4.1800000000E+00	0.000E+00	0.0
</event>
<event>
    11  -1  1.0000000E+00  1.0000000E+00  -1.0000000E+00  -1.0000000E+00
	2212	-1	0	0	0	0	0.0000000000E+00	0.0000000000E+00	6.5000000000E+03	6.5000000000E+03	9.3827000000E-01	0.000E+00	0.0
	2212	-1	0	0	0	0	0.0000000000E+00	0.0000000000E+00	-6.5000000000E+03	6.5000000000E+03	9.3827000000E-01	0.000E+00	0.0
	2212	1	0	0	0	0	0.0000000000E+00	0.0000000000E+00	5.9835337597E+03	5.9835337597E+03	9.3827000000E-01	0.000E+00	0.0
	2212	1	0	0	0	0	0.0000000000E+00	0.0000000000E+00	-5.9726082283E+03	5.9726082283E+03	9.3827000000E-01	0.000E+00	0.0
	51	2	1	2	0	0	7.2946986000E+01	1.0799088950E+02	-4.0872818485E+00	1.0519126308E+03	1.0438008344E+03	0.000E+00	0.0
	1000022	2	5	5	0	0	-7.2946986000E+01	-1.0799088950E+02	-1.5956033602E+01	8.6308579611E+02	8.5304114875E+02	0.000E+00	0.0
	14	1	6	6	0	0	-2.5366107951E+02	-2.2880782301E+02	-2.2286531279E+01	4.7203670684E+02	3.2500000000E+02	0.000E+00	0.0
	-14	1	6	6	0	0	1.8071409351E+02	1.2081693351E+02	6.3304976777E+00	3.9104908927E+02	3.2500000000E+02	0.000E+00	0.0
	25	2	5	5	0	0	7.2946986000E+01	1.0799088950E+02	5.0305022145E+00	1.8077221589E+02	1.2517984305E+02	0.000E+00	0.0
	-5	1	9	9	0	501	-1.4387365782E+01	7.0988801503E+01	-3.1433223140E+01	7.9069122607E+01	4.1800000000E+00	0.000E+00	0.0
	5	1	9	9	501	0	8.7334351782E+01	3.7002087998E+01	3.6463725354E+01	1.0170309329E+02	4.1800000000E+00	0.000E+00	0.0
</event>
<event>
    11  -1  1.0000000E+00  1.0000000E+00  -1.0000000E+00  -1.0000000E+00
	2212	-1	0	0	0	0	0.0000000000E+00	0.0000000000E+00	6.5000000000E+03	6.5000000000E+03	9.3827000000E-01	0.000E+00	0.0
	2212	-1	0	0	0	0	0.0000000000E+00	0.0000000000E+00	-6.5000000000E+03	6.5000000000E+03	9.3827000000E-01	0.000E+00	0.0
	2212	1	0	0	0	0	0.0000000000E+00	0.0000000000E+00	5.4446299767E+03	5.4446299767E+03	9.3827000000E-01	0.000E+00	0.0
	2212	1	0	0	0	0	0.0000000000E+00	0.0000000000E+00	-6.2365300154E+03	6.2365300154E+03	9.3827000000E-01	0.000E+00	0.0
	51	2	1	2	0	0	1.0188238338E+02	-5.0846452263E+01	9.2355089796E+02	1.4064654060E+03	1.0546247178E+03	0.000E+00	0.0
	1000022	2	5	5	0	0	-1.0188238338E+02	5.0846452263E+01	5.2114190780E+02	9.9954365870E+02	8.4530068960E+02	0.000E+00	0.0
	14	1	6	6	0	0	-2.8711280641E+02	-1.5704601046E+01	1.2713746983E+02	4.5218285497E+02	3.2500000000E+02	0.000E+00	0.0
	-14	1	6	6	0	0	1.8523042303E+02	6.6551053308E+01	3.9400443797E+02	5.4736080372E+02	3.2500000000E+02	0.000E+00	0.0
	25	2	5	5	0	0	1.0188238338E+02	-5.0846452263E+01	2.7075813092E+02	3.1929634928E+02	1.2519908727E+02	0.000E+00	0.0
	-5	1	9	9	0	501	4.1470646416E+01	-5.2425852211E+01	3.4389347577E+01	7.5288671930E+01	4.1800000000E+00	0.000E+00	0.0
	5	1	9	9	501	0	6.0411736960E+01	1.5793999480E+00	2.3636878335E+02	2.4400767735E+02	4.1800000000E+00	0.000E+00	0.0
</event>
<event>
    11  -1  1.0000000E+00  1.0000000E+00  -1.0000000E+00  -1.0000000E+00
	2212	-1	0	0	0	0	0.0000000000E+00	0.0000000000E+00	6.5000000000E+03	6.5000000000E+03	9.3827000000E-01	0.000E+00	0.0
	2212	-1	0	0	0	0	0.0000000000E+00	0.0000000000E+00	-6.5000000000E+03	6.5000000000E+03	9.3827000000E-01	0.000E+00	0.0
	2212	1	0	0	0	0	0.0000000000E+00	0.0000000000E+00	5.8610223400E+03	5.8610223400E+03	9.3827000000E-01	0.000E+00	0.0
	2212	1	0	0	0	0	0.0000000000E+00	0.0000000000E+00	-6.0615755784E+03	6.0615755784E+03	9.3827000000E-01	0.000E+00	0.0
	51	2	1	2	0	0	-5.7077612495E+00	1.5211832692E+02	2.2949041415E+02	1.0938062250E+03	1.0585715110E+03	0.000E+00	0.0
	1000022	2	5	5	0	0	5.7077612495E+00	-1.5211832692E+02	1.3606984848E+02	8.7003834326E+02	8.4574177570E+02	0.000E+00	0.0
	14	1	6	6	0	0	1.5876891906E+02	2.7572429012E+01	2.6381193261E+02	4.4854157476E+02	3.2500000000E+02	0.000E+00	0.0
	-14	1	6	6	0	0	-1.5306115781E+02	-1.7969075593E+02	-1.2774208414E+02	4.2149676850E+02	3.2500000000E+02	0.000E+00	0.0
	25	2	5	5	0	0	-5.7077612495E+00	1.5211832692E+02	6.4483389915E+01	2.0736373826E+02	1.2517606978E+02	0.000E+00	0.0
	-5	1	9	9	0	501	-3.0468882921E+01	1.6514831198E+02	6.1603684745E+01	1.7892681228E+02	4.1800000000E+00	0.000E+00	0.0
	5	1	9	9	501	0	2.4761121671E+01	-1.3029985068E+01	2.8797051700E+00	2.8436925979E+01	4.1800000000E+00	0.000E+00	0.0
</event>
<event>
    11  -1  1.0000000E+00  1.0000000E+00  -1.0000000E+00  -1.0000000E+00
	2212	-1	0	0	0	0	0.0000000000E+00	0.0000000000E+00	6.5000000000E+03	6.5000000000E+03	9.3827000000E-01	0.000E+00	0.0
	2212	-1	0	0	0	0	0.0000000000E+00	0.0000000000E+00	-6.5000000000E+03	6.5000000000E+03	9.3827000000E-01	0.000E+00	0.0
	2212	1	0	0	0	0	0.0000000000E+00	0.0000000000E+00	6.0322476410E+03	6.0322476410E+03	9.3827000000E-01	0.000E+00	0.0
	2212	1	0	0	0	0	0.0000000000E+00	0.0000000000E+00	-5.9114148402E+03	5.9114148402E+03	9.3827000000E-01	0.000E+00	0.0
	51	2	1	2	0	0	-3.7434652421E+01	-1.7864446592E+01	6.6901513660E+00	1.0502445609E+03	1.0494038250E+03	0.000E+00	0.0
	1000022	2	5	5	0	0	3.7434652421E+01	1.7864446592E+01	-2.2820564552E+02	8.8627537246E+02	8.5538630310E+02	0.000E+00	0.0
	14	1	6	6	0	0	9.8607111489E+01	-1.7361481293E+02	8.6630233370E+01	3.9114608913E+02	3.2500000000E+02	0.000E+00	0.0
	-14	1	6	6	0	0	-6.1172459067E+01	1.9147925952E+02	-3.1483587890E+02	4.9512928333E+02	3.2500000000E+02	0.000E+00	0.0
	25	2	5	5	0	0	-3.7434652421E+01	-1.7864446592E+01	1.0737284466E+02	1.7006214634E+02	1.2518671732E+02	0.000E+00	0.0
	-5	1	9	9	0	501	-4.8552118985E+00	-9.3870002779E+00	1.2921618889E+02	1.2971501350E+02	4.1800000000E+00	0.000E+00	0.0
	5	1	9	9	501	0	-3.2579440523E+01	-8.4774463139E+00	-2.1843344232E+01	4.0347132835E+01	4.1800000000E+00	0.000E+00	0.0
</event>
<event>
    11  -1  1.0000000E+00  1.0000000E+00  -1.0000000E+00  -1.0000000E+00
	2212	-1	0	0	0	0	0.0000000000E+00	0.0000000000E+00	6.5000000000E+03	6.5000000000E+03	9.3827000000E-01	0.000E+00	0.0
	2212	-1	0	0	0	0	0.0000000000E+00	0.0000000000E+00	-6.5000000000E+03	6.5000000000E+03	9.3827000000E-01	0.000E+00	0.0
	2212	1	0	0	0	0	0.0000000000E+00	0.0000000000E+00	6.1904147461E+03	6.1904147461E+03	9.3827000000E-01	0.000E+00	0.0
	2212	1	0	0	0	0	0.0000000000E+00	0.0000000000E+00	-5.6088637307E+03	5.6088637307E+03	9.3827000000E-01	0.000E+00	0.0
	51	2	1	2	0	0	-5.5900607433E+00	1.1756577562E+02	-6.7341078571E+02	1.2533417888E+03	1.0504906439E+03	0.000E+00	0.0
	1000022	2	5	5	0	0	5.5900607433E+00	-1.1756577562E+02	-3.9083260258E+02	9.4398898442E+02	8.5118277655E+02	0.000E+00	0.0
	14	1	6	6	0	0	-2.2222835738E+01	-1.8345775683E+02	6.5138744796E+01	3.7949790387E+02	3.2500000000E+02	0.000E+00	0.0
	-14	1	6	6	0	0	2.7812896481E+01	6.5891981208E+01	-4.5597134737E+02	5.6449108055E+02	3.2500000000E+02	0.000E+00	0.0
	25	2	5	5	0	0	-5.5900607433E+00	1.1756577562E+02	-1.9071841280E+02	2.5673253883E+02	1.2524026164E+02	0.000E+00	0.0
	-5	1	9	9	0	501	5.1300884228E+01	1.4298434318E+01	-6.8441138626E+01	8.6821010147E+01	4.1800000000E+00	0.000E+00	0.0
	5	1	9	9	501	0	-5.6890944971E+01	1.0326734131E+02	-1.2227727417E+02	1.6991152868E+02	4.1800000000E+00	0.000E+00	0.0
</event>
<event>
    11  -1  1.0000000E+00  1.0000000E+00  -1.0000000E+00  -1.0000000E+00
	2212	-1	0	0	0	0	0.0000000000E+00	0.0000000000E+00	6.5000000000E+03	6.5000000000E+03	9.3827000000E-01	0.000E+00	0.0
	2212	-1	0	0	0	0	0.0000000000E+00	0.0000000000E+00	-6.5000000000E+03	6.5000000000E+03	9.3827000000E-01	0.000E+00	0.0
	2212	1	0	0	0	0	0.0000000000E+00	0.0000000000E+00	6.1905625548E+03	6.1905625548E+03	9.3827000000E-01	0.000E+00	0.0
	2212	1	0	0	0	0	0.0000000000E+00	0.0000000000E+00	-5.5695102897E+03	5.5695102897E+03	9.3827000000E-01	0.000E+00	0.0
	51	2	1	2	0	0	-2.3679513783E+01	1.6597558199E+02	-6.2432101158E+02	1.2528362916E+03	1.0731791253E+03	0.000E+00	0.0
	1000022	2	5	5	0	0	2.3679513783E+01	-1.6597558199E+02	-5.0421504058E+02	1.0002792278E+03	8.4747691020E+02	0.000E+00	0.0
	14	1	6	6	0	0	6.6395011209E+00	-3.1349522519E+02	-1.0335606975E+02	4.6328265276E+02	3.2500000000E+02	0.000E+00	0.0
	-14	1	6	6	0	0	1.7040012662E+01	1.4751964320E+02	-4.0085897083E+02	5.3699657508E+02	3.2500000000E+02	0.000E+00	0.0
	25	2	5	5	0	0	-2.3679513783E+01	1.6597558199E+02	-1.1683722459E+02	2.3964792767E+02	1.2518617733E+02	0.000E+00	0.0
	-5	1	9	9	0	501	-6.7383320384E+01	4.6624312385E+01	-4.7419396998E+01	9.4765025104E+01	4.1800000000E+00	0.000E+00	0.0
	5	1	9	9	501	0	4.3703806601E+01	1.1935126961E+02	-6.9417827589E+01	1.4488290256E+02	4.1800000000E+00	0.000E+00	0.0
</event>
<event>
    11  -1  1.0000000E+00  1.0000000E+00  -1.0000000E+00  -1.0000000E+00
	2212	-1	0	0	0	0	0.0000000000E+00	0.0000000000E+00	6.5000000000E+03	6.5000000000E+03	9.3827000000E-01	0.000E+00	0.0
	2212	-1	0	0	0	0	0.0000000000E+00	0.0000000000E+00	-6.5000000000E+03	6.5000000000E+03	9.3827000000E-01	0.000E+00	0.0
	2212	1	0	0	0	0	0.0000000000E+00	0.0000000000E+00	6.2466797775E+03	6.2466797775E+03	9.3827000000E-01	0.000E+00	0.0
	2212	1	0	0	0	0	0.0000000000E+00	0.0000000000E+00	-5.3885479516E+03	5.3885479516E+03	9.3827000000E-01	0.000E+00	0.0
	51	2	1	2	0	0	-1.4520052309E+02	1.0960473616E+01	-8.1601144828E+02	1.3465849874E+03	1.0612318883E+03	0.000E+00	0.0
	1000022	2	5	5	0	0	1.4520052309E+02	-1.0960473616E+01	-7.5035573288E+02	1.1445643096E+03	8.5193333604E+02	0.000E+00	0.0
	14	1	6	6	0	0	3.4990637532E+02	2.6158504836E+01	-4.0535854878E+02	6.2694440896E+02	3.2500000000E+02	0.000E+00	0.0
	-14	1	6	6	0	0	-2.0470585223E+02	-3.7118978452E+01	-3.4499718410E+02	5.1761990064E+02	3.2500000000E+02	0.000E+00	0.0
	25	2	5	5	0	0	-1.4520052309E+02	1.0960473616E+01	-1.0777609305E+02	2.2020796132E+02	1.2519000004E+02	0.000E+00	0.0
	-5	1	9	9	0	501	-3.2795189641E+01	1.1068217122E+01	-1.0175707691E+02	1.0756395770E+02	4.1800000000E+00	0.000E+00	0.0
	5	1	9	9	501	0	-1.1240533345E+02	-1.0774350679E-01	-6.0190161325E+00	1.1264400362E+02	4.1800000000E+00	0.000E+00	0.0
</event>
<event>
    11  -1  1.0000000E+00  1.0000000E+00  -1.0000000E+00  -1.0000000E+00
	2212	-1	0	0	0	0	0.0000000000E+00	0.0000000000E+00	6.5000000000E+03	6.5000000000E+03	9.3827000000E-01	0.000E+00	0.0
	2212	-1	0	0	0	0	0.0000000000E+00	0.0000000000E+00	-6.5000000000E+03	6.5000000000E+03	9.3827000000E-01	0.000E+00	0.0
	2212	1	0	0	0	0	0.0000000000E+00	0.0000000000E+00	5.7801219855E+03	5.7801219855E+03	9.3827000000E-01	0.000E+00	0.0
	2212	1	0	0	0	0	0.0000000000E+00	0.0000000000E+00	-6.1215246353E+03	6.1215246353E+03	9.3827000000E-01	0.000E+00	0.0
	51	2	1	2	0	0	-8.0510019461E+00	1.4210700890E+02	3.6662827050E+02	1.1155715511E+03	1.0439465390E+03	0.000E+00	0.0
	1000022	2	5	5	0	0	8.0510019461E+00	-1.4210700890E+02	2.5704112231E+02	8.9088441913E+02	8.4103845874E+02	0.000E+00	0.0
	14	1	6	6	0	0	9.6919090575E+01	-8.1392150097E+01	3.9037035899E+02	5.2348066764E+02	3.2500000000E+02	0.000E+00	0.0
	-14	1	6	6	0	0	-8.8868088629E+01	-6.0714858799E+01	-1.3332923668E+02	3.6740375149E+02	3.2500000000E+02	0.000E+00	0.0
	25	2	5	5	0	0	-8.0510019461E+00	1.4210700890E+02	8.4361527566E+01	2.0746896008E+02	1.2516901155E+02	0.000E+00	0.0
	-5	1	9	9	0	501	5.7510340319E+01	6.2475971967E+01	5.0191529544E+01	9.8728660250E+01	4.1800000000E+00	0.000E+00	0.0
	5	1	9	9	501	0	-6.5561342265E+01	7.9631036929E+01	3.4169998022E+01	1.0874029983E+02	4.1800000000E+00	0.000E+00	0.0
</event>
<event>
    11  -1  1.0000000E+00  1.0000000E+00  -1.0000000E+00  -1.0000000E+00
	2212	-1	0	0	0	0	0.0000000000E+00	0.0000000000E+00	6.5000000000E+03	6.5000000000E+03	9.3827000000E-01	0.000E+00	0.0
	2212	-1	0	0	0	0	0.0000000000E+00	0.0000000000E+00	-6.5000000000E+03	6.5000000000E+03	9.3827000000E-01	0.000E+00	0.0
	2212	1	0	0	0	0	0.0000000000E+00	0.0000000000E+00	6.2649954161E+03	6.2649954161E+03	9.3827000000E-01	0.000E+00	0.0
	2212	1	0	0	0	0	0.0000000000E+00	0.0000000000E+00	-5.3357026181E+03	5.3357026181E+03	9.3827000000E-01	0.000E+00	0.0
	51	2	1	2	0	0	3.9261767360E+02	-1.2247804853E+02	-1.3122501922E+03	1.7278920580E+03	1.0461648469E+03	0.000E+00	0.0
	1000022	2	5	5	0	0	-3.9261767360E+02	1.2247804853E+02	-2.0545265455E+02	5.5742058133E+02	3.1521009063E+02	0.000E+00	0.0
	14	1	6	6	0	0	0.0000000000E+00	0.0000000000E+00	0.0000000000E+00	0.0000000000E+00	0.0000000000E+00	0.000E+00	0.0
	-14	1	6	6	0	0	0.0000000000E+00	0.0000000000E+00	0.0000000000E+00	0.0000000000E+00	0.0000000000E+00	0.000E+00	0.0
	25	2	5	5	0	0	3.9261767360E+02	-1.2247804853E+02	-7.2384014350E+02	8.4188138445E+02	1.2518067804E+02	0.000E+00	0.0
	-5	1	9	9	0	501	-6.2870329397E+00	4.7714952419E+00	-5.7431559953E+00	1.0618389276E+01	4.1800000000E+00	0.000E+00	0.0
	5	1	9	9	501	0	3.9890470654E+02	-1.2724954378E+02	-7.1809698750E+02	8.3126299518E+02	4.1800000000E+00	0.000E+00	0.0
</event>
<event>
    11  -1  1.0000000E+00  1.0000000E+00  -1.0000000E+00  -1.0000000E+00
	2212	-1	0	0	0	0	0.0000000000E+00	0.0000000000E+00	6.5000000000E+03	6.5000000000E+03	9.3827000000E-01	0.000E+00	0.0
	2212	-1	0	0	0	0	0.0000000000E+00	0.0000000000E+00	-6.5000000000E+03	6.5000000000E+03	9.3827000000E-01	0.000E+00	0.0
	2212	1	0	0	0	0	0.0000000000E+00	0.0000000000E+00	5.9035543558E+03	5.9035543558E+03	9.3827000000E-01	0.000E+00	0.0
	2212	1	0	0	0	0	0.0000000000E+00	0.0000000000E+00	-6.0333299991E+03	6.0333299991E+03	9.3827000000E-01	0.000E+00	0.0
	51	2	1	2	0	0	-5.0088815992E+01	-1.0189258358E+02	3.1592273131E+01	1.0617260555E+03	1.0551649905E+03	0.000E+00	0.0
	1000022	2	5	5	0	0	5.0088815992E+01	1.0189258358E+02	2.0519765118E+02	8.7804528086E+02	8.4614800781E+02	0.000E+00	0.0
	14	1	6	6	0	0	1.1860116670E+02	-1.7101334608E+02	2.2678275249E+02	4.4762396954E+02	3.2500000000E+02	0.000E+00	0.0
	-14	1	6	6	0	0	-6.8512350710E+01	2.7290592966E+02	-2.1585101308E+01	4.3042131132E+02	3.2500000000E+02	0.000E+00	0.0
	25	2	5	5	0	0	-5.0088815992E+01	-1.0189258358E+02	-7.5422007832E+01	1.8507036419E+02	1.2518615084E+02	0.000E+00	0.0
	-5	1	9	9	0	501	-1.6641654628E+01	-1.2558033603E+02	-6.5601267254E+01	1.4271777791E+02	4.1800000000E+00	0.000E+00	0.0
	5	1	9	9	501	0	-3.3447161364E+01	2.3687752452E+01	-9.8207405787E+00	4.2352586285E+01	4.1800000000E+00	0.000E+00	0.0
</event>
<event>
    11  -1  1.0000000E+00  1.0000000E+00  -1.0000000E+00  -1.0000000E+00
	2212	-1	0	0	0	0	0.0000000000E+00	0.0000000000E+00	6.5000000000E+03	6.5000000000E+03	9.3827000000E-01	0.000E+00	0.0
	2212	-1	0	0	0	0	0.0000000000E+00	0.0000000000E+00	-6.5000000000E+03	6.5000000000E+03	9.3827000000E-01	0.000E+00	0.0
	2212	1	0	0	0	0	0.0000000000E+00	0.0000000000E+00	6.2131279210E+03	6.2131279210E+03	9.3827000000E-01	0.000E+00	0.0
	2212	1	0	0	0	0	0.0000000000E+00	0.0000000000E+00	-5.5163599352E+03	5.5163599352E+03	9.3827000000E-01	0.000E+00	0.0
	51	2	1	2	0	0	1.1333150878E+02	-7.4277281225E+01	-6.2055938212E+02	1.2378087791E+03	1.0624102228E+03	0.000E+00	0.0
	1000022	2	5	5	0	0	-1.1333150878E+02	7.4277281225E+01	-6.5077529023E+02	1.0803892049E+03	8.5168727265E+02	0.000E+00	0.0
	14	1	6	6	0	0	-8.4028082783E+01	-1.6489692931E+02	-8.2813806876E+01	3.8305984206E+02	3.2500000000E+02	0.000E+00	0.0
	-14	1	6	6	0	0	-2.9303425995E+01	2.3917421053E+02	-5.6796148336E+02	6.9732936288E+02	3.2500000000E+02	0.000E+00	0.0
	25	2	5	5	0	0	1.1333150878E+02	-7.4277281225E+01	-4.5992695587E+01	1.9012293888E+02	1.2518090292E+02	0.000E+00	0.0
	-5	1	9	9	0	501	-2.3619561190E+01	-5.1615633489E+00	1.0373407911E+01	2.6638419598E+01	4.1800000000E+00	0.000E+00	0.0
	5	1	9	9	501	0	1.3695106997E+02	-6.9115717876E+01	-5.6366103498E+01	1.6348451929E+02	4.1800000000E+00	0.000E+00	0.0
</event>
<event>
    11  -1  1.0000000E+00  1.0000000E+00  -1.0000000E+00  -1.0000000E+00
	2212	-1	0	0	0	0	0.0000000000E+00	0.0000000000E+00	6.5000000000E+03	6.5000000000E+03	9.3827000000E-01	0.000E+00	0.0
	2212	-1	0	0	0	0	0.0000000000E+00	0.0000000000E+00	-6.5000000000E+03	6.5000000000E+03	9.3827000000E-01	0.000E+00	0.0
	2212	1	0	0	0	0	0.0000000000E+00	0.0000000000E+00	6.2186728907E+03	6.2186728907E+03	9.3827000000E-01	0.000E+00	0.0
	2212	1	0	0	0	0	0.0000000000E+00	0.0000000000E+00	-5.5145299030E+03	5.5145299030E+03	9.3827000000E-01	0.000E+00	0.0
	51	2	1	2	0	0	-4.4679361426E+01	-6.3074887254E-01	-7.2569810978E+02	1.2796844160E+03	1.0530706599E+03	0.000E+00	0.0
	1000022	2	5	5	0	0	4.4679361426E+01	6.3074887254E-01	-5.9368164268E+02	1.0939621496E+03	9.1776829796E+02	0.000E+00	0.0
	14	1	6	6	0	0	-2.3099603503E+02	1.7206455590E+02	-4.1619726650E+02	6.0150689459E+02	3.2500000000E+02	0.000E+00	0.0
	-14	1	6	6	0	0	2.7567539646E+02	-1.7143380703E+02	-1.7748437618E+02	4.9245525502E+02	3.2500000000E+02	0.000E+00	0.0
	25	2	5	5	0	0	-4.4679361426E+01	-6.3074887254E-01	-1.1046134505E+02	1.7283505673E+02	1.2519426865E+02	0.000E+00	0.0
	-5	1	9	9	0	501	-3.9692170121E+01	5.6172829288E+01	-3.2585471175E+01	7.6224277306E+01	4.1800000000E+00	0.000E+00	0.0
	5	1	9	9	501	0	-4.9871913047E+00	-5.6803578161E+01	-7.7875873876E+01	9.6610779424E+01	4.1800000000E+00	0.000E+00	0.0
</event>
<event>
    11  -1  1.0000000E+00  1.0000000E+00  -1.0000000E+00  -1.0000000E+00
	2212	-1	0	0	0	0	0.0000000000E+00	0.0000000000E+00	6.5000000000E+03	6.5000000000E+03	9.3827000000E-01	0.000E+00	0.0
	2212	-1	0	0	0	0	0.0000000000E+00	0.0000000000E+00	-6.5000000000E+03	6.5000000000E+03	9.3827000000E-01	0.000E+00	0.0
	2212	1	0	0	0	0	0.0000000000E+00	0.0000000000E+00	6.1760462214E+03	6.1760462214E+03	9.3827000000E-01	0.000E+00	0.0
	2212	1	0	0	0	0	0.0000000000E+00	0.0000000000E+00	-5.6636759926E+03	5.6636759926E+03	9.3827000000E-01	0.000E+00	0.0
	51	2	1	2	0	0	-3.2768386642E+01	1.2173048126E+02	-4.7148684466E+02	1.1497448461E+03	1.0410193511E+03	0.000E+00	0.0
	1000022	2	5	5	0	0	3.2768386642E+01	-1.2173048126E+02	-4.6770851550E+02	9.7709128113E+02	8.4856587191E+02	0.000E+00	0.0
	14	1	6	6	0	0	-6.0536986563E+01	1.5810497808E+02	-4.7599476917E+01	3.6953027080E+02	3.2500000000E+02	0.000E+00	0.0
	-14	1	6	6	0	0	9.3305373206E+01	-2.7983545934E+02	-4.2010903859E+02	6.0756101033E+02	3.2500000000E+02	0.000E+00	0.0
	25	2	5	5	0	0	-3.2768386642E+01	1.2173048126E+02	-4.4661713264E+01	1.8318650482E+02	1.2518206615E+02	0.000E+00	0.0
	-5	1	9	9	0	501	-4.0518197833E+01	1.1933526668E+02	-7.8235719702E+01	1.4839450956E+02	4.1800000000E+00	0.000E+00	0.0
	5	1	9	9	501	0	7.7498111911E+00	2.3952145837E+00	3.3574006438E+01	3.4791995268E+01	4.1800000000E+00	0.000E+00	0.0
</event>
<event>
    11  -1  1.0000000E+00  1.0000000E+00  -1.0000000E+00  -1.0000000E+00
	2212	-1	0	0	0	0	0.0000000000E+00	0.0000000000E+00	6.5000000000E+03	6.5000000000E+03	9.3827000000E-01	0.000E+00	0.0
	2212	-1	0	0	0	0	0.0000000000E+00	0.0000000000E+00	-6.5000000000E+03	6.5000000000E+03	9.3827000000E-01	0.000E+00	0.0
	2212	1	0	0	0	0	0.0000000000E+00	0.0000000000E+00	5.8353428509E+03	5.8353428509E+03	9.3827000000E-01	0.000E+00	0.0
	2212	1	0	0	0	0	0.0000000000E+00	0.0000000000E+00	-6.0773941543E+03	6.0773941543E+03	9.3827000000E-01	0.000E+00	0.0
	51	2	1	2	0	0	1.0015254532E+02	-7.4743987526E+01	2.4134591059E+02	1.0942655211E+03	1.0599773517E+03	0.000E+00	0.0
	1000022	2	5	5	0	0	-1.0015254532E+02	7.4743987526E+01	2.0403840345E+02	9.0634292963E+02	8.7419027677E+02	0.000E+00	0.0
	14	1	6	6	0	0	-2.1646371444E+02	-1.4458863347E+02	2.6394319250E+02	4.9300448423E+02	3.2500000000E+02	0.000E+00	0.0
	-14	1	6	6	0	0	1.1631116912E+02	2.1933262100E+02	-5.9904789055E+01	4.1333844540E+02	3.2500000000E+02	0.000E+00	0.0
	25	2	5	5	0	0	1.0015254532E+02	-7.4743987526E+01	3.8012899939E+01	1.8092006508E+02	1.2517944473E+02	0.000E+00	0.0
	-5	1	9	9	0	501	-1.2433205585E+01	-6.1844995030E+01	1.8337752846E+01	6.5826541689E+01	4.1800000000E+00	0.000E+00	0.0
	5	1	9	9	501	0	1.1258575091E+02	-1.2898992497E+01	1.9675147092E+01	1.1509352340E+02	4.1800000000E+00	0.000E+00	0.0
</event>
<event>
    11  -1  1.0000000E+00  1.0000000E+00  -1.0000000E+00  -1.0000000E+00
	2212	-1	0	0	0	0	0.0000000000E+00	0.0000000000E+00	6.5000000000E+03	6.5000000000E+03	9.3827000000E-01	0.000E+00	0.0
	2212	-1	0	0	0	0	0.0000000000E+00	0.0000000000E+00	-6.5000000000E+03	6.5000000000E+03	9.3827000000E-01	0.000E+00	0.0
	2212	1	0	0	0	0	0.0000000000E+00	0.0000000000E+00	6.2261233954E+03	6.2261233954E+03	9.3827000000E-01	0.000E+00	0.0
	2212	1	0	0	0	0	0.0000000000E+00	0.0000000000E+00	-5.4750090270E+03	5.4750090270E+03	9.3827000000E-01	0.000E+00	0.0
	51	2	1	2	0	0	-6.0518197977E+01	-9.8276783287E+01	-6.3960148285E+02	1.2430989602E+03	1.0596622998E+03	0.000E+00	0.0
	1000022	2	5	5	0	0	6.0518197977E+01	9.8276783287E+01	-7.3124889225E+02	1.1274496283E+03	8.5035107074E+02	0.000E+00	0.0
	14	1	6	6	0	0	-1.7800971590E+02	-3.4096455150E+01	-5.5450568189E+02	6.6779606053E+02	3.2500000000E+02	0.000E+00	0.0
	-14	1	6	6	0	0	2.3852791388E+02	1.3237323844E+02	-1.7674321036E+02	4.5965356777E+02	3.2500000000E+02	0.000E+00	0.0
	25	2	5	5	0	0	-6.0518197977E+01	-9.8276783287E+01	-1.9865476186E+01	1.7141794925E+02	1.2517466901E+02	0.000E+00	0.0
	-5	1	9	9	0	501	-6.4341075845E+01	-2.9643199154E+01	3.8863705995E+01	8.0909538008E+01	4.1800000000E+00	0.000E+00	0.0
	5	1	9	9	501	0	3.8228778685E+00	-6.8633584133E+01	-5.8729182182E+01	9.0508411243E+01	4.1800000000E+00	0.000E+00	0.0
</event>
<event>
    11  -1  1.0000000E+00  1.0000000E+00  -1.0000000E+00  -1.0000000E+00
	2212	-1	0	0	0	0	0.0000000000E+00	0.0000000000E+00	6.5000000000E+03	6.5000000000E+03	9.3827000000E-01	0.000E+00	0.0
	2212	-1	0	0	0	0	0.0000000000E+00	0.0000000000E+00	-6.5000000000E+03	6.5000000000E+03	9.3827000000E-01	0.000E+00	0.0
	2212	1	0	0	0	0	0.0000000000E+00	0.0000000000E+00	5.8009971613E+03	5.8009971613E+03	9.3827000000E-01	0.000E+00	0.0
	2212	1	0	0	0	0	0.0000000000E+00	0.0000000000E+00	-6.1122616166E+03	6.1122616166E+03	9.3827000000E-01	0.000E+00	0.0
	51	2	1	2	0	0	1.1039719758E+01	-1.2207116033E+02	3.7643975136E+02	1.1139349409E+03	1.0412112767E+03	0.000E+00	0.0
	1000022	2	5	5	0	0	-1.1039719758E+01	1.2207116033E+02	1.9340186754E+02	8.7559636190E+02	8.4512807491E+02	0.000E+00	0.0
	14	1	6	6	0	0	-2.6971183449E+02	4.8609696243E+00	9.7621055677E+01	4.3350083414E+02	3.2500000000E+02	0.000E+00	0.0
	-14	1	6	6	0	0	2.5867211473E+02	1.1721019071E+02	9.5780811865E+01	4.4209552776E+02	3.2500000000E+02	0.000E+00	0.0
	25	2	5	5	0	0	1.1039719758E+01	-1.2207116033E+02	1.1786258778E+02	2.1114486018E+02	1.2516916069E+02	0.000E+00	0.0
	-5	1	9	9	0	501	2.9797095018E+01	-1.4326951493E+02	9.4973529736E+01	1.7450347999E+02	4.1800000000E+00	0.000E+00	0.0
	5	1	9	9	501	0	-1.8757375261E+01	2.1198354597E+01	2.2889058041E+01	3.6641380191E+01	4.1800000000E+00	0.000E+00	0.0
</event>
<event>
    11  -1  1.0000000E+00  1.0000000E+00  -1.0000000E+00  -1.0000000E+00
	2212	-1	0	0	0	0	0.0000000000E+00	0.0000000000E+00	6.5000000000E+03	6.5000000000E+03	9.3827000000E-01	0.000E+00	0.0
	2212	-1	0	0	0	0	0.0000000000E+00	0.0000000000E+00	-6.5000000000E+03	6.5000000000E+03	9.3827000000E-01	0.000E+00	0.0
	2212	1	0	0	0	0	0.0000000000E+00	0.0000000000E+00	6.2682096601E+03	6.2682096601E+03	9.3827000000E-01	0.000E+00	0.0
	2212	1	0	0	0	0	0.0000000000E+00	0.0000000000E+00	-5.3348372221E+03	5.3348372221E+03	9.3827000000E-01	0.000E+00	0.0
	51	2	1	2	0	0	-2.1224339593E+02	1.7722818419E+02	-9.0952551702E+02	1.4085409685E+03	1.0393718803E+03	0.000E+00	0.0
	1000022	2	5	5	0	0	2.1224339593E+02	-1.7722818419E+02	-7.1520422414E+02	1.0231478036E+03	6.7739003340E+02	0.000E+00	0.0
	14	1	6	6	0	0	7.7526387749E+01	-2.5644258846E+00	-2.7118696418E+02	4.3033043887E+02	3.2500000000E+02	0.000E+00	0.0
	-14	1	6	6	0	0	1.3471700818E+02	-1.7466375830E+02	-4.4401725996E+02	5.9281736471E+02	3.2500000000E+02	0.000E+00	0.0
	25	2	5	5	0	0	-2.1224339593E+02	1.7722818419E+02	-2.1816821381E+02	3.7380531426E+02	1.2520365437E+02	0.000E+00	0.0
	-5	1	9	9	0	501	-2.0045725061E+00	1.4276652950E+01	1.4140575379E+01	2.0622061062E+01	4.1800000000E+00	0.000E+00	0.0
	5	1	9	9	501	0	-2.1023882342E+02	1.6295153124E+02	-2.3230878919E+02	3.5318325320E+02	4.1800000000E+00	0.000E+00	0.0
</event>
<event>
    11  -1  1.0000000E+00  1.0000000E+00  -1.0000000E+00  -1.0000000E+00
	2212	-1	0	0	0	0	0.0000000000E+00	0.0000000000E+00	6.5000000000E+03	6.5000000000E+03	9.3827000000E-01	0.000E+00	0.0
	2212	-1	0	0	0	0	0.0000000000E+00	0.0000000000E+00	-6.5000000000E+03	6.5000000000E+03	9.3827000000E-01	0.000E+00	0.0
	2212	1	0	0	0	0	0.0000000000E+00	0.0000000000E+00	4.9743497797E+03	4.9743497797E+03	9.3827000000E-01	0.000E+00	0.0
	2212	1	0	0	0	0	0.0000000000E+00	0.0000000000E+00	-6.3201510140E+03	6.3201510140E+03	9.3827000000E-01	0.000E+00	0.0
	51	2	1	2	0	0	2.7205060882E+01	-5.0770788059E+01	1.1225057914E+03	1.5365167166E+03	1.0476385734E+03	0.000E+00	0.0
	1000022	2	5	5	0	0	-2.7205060882E+01	5.0770788059E+01	1.3258845557E+03	1.5662652451E+03	8.3180476952E+02	0.000E+00	0.0
	14	1	6	6	0	0	-1.0910710849E+02	7.8146304410E+00	1.1182964985E+03	1.1696911935E+03	3.2500000000E+02	0.000E+00	0.0
	-14	1	6	6	0	0	8.1902047604E+01	4.2956157618E+01	2.0758805718E+02	3.9657405155E+02	3.2500000000E+02	0.000E+00	0.0
	25	2	5	5	0	0	2.7205060882E+01	-5.0770788059E+01	1.9916678537E+01	1.3923396119E+02	1.2518639546E+02	0.000E+00	0.0
	-5	1	9	9	0	501	5.4228700518E+01	-6.6896573263E+01	4.6384005100E+01	9.7902256376E+01	4.1800000000E+00	0.000E+00	0.0
	5	1	9	9	501	0	-2.7023639636E+01	1.6125785204E+01	-2.6467326564E+01	4.1331704817E+01	4.1800000000E+00	0.000E+00	0.0
</event>
<event>
    11  -1  1.0000000E+00  1.0000000E+00  -1.0000000E+00  -1.0000000E+00
	2212	-1	0	0	0	0	0.0000000000E+00	0.0000000000E+00	6.5000000000E+03	6.5000000000E+03	9.3827000000E-01	0.000E+00	0.0
	2212	-1	0	0	0	0	0.0000000000E+00	0.0000000000E+00	-6.5000000000E+03	6.5000000000E+03	9.3827000000E-01	0.000E+00	0.0
	2212	1	0	0	0	0	0.0000000000E+00	0.0000000000E+00	5.8987565034E+03	5.8987565034E+03	9.3827000000E-01	0.000E+00	0.0
	2212	1	0	0	0	0	0.0000000000E+00	0.0000000000E+00	-6.0321191542E+03	6.0321191542E+03	9.3827000000E-01	0.000E+00	0.0
	51	2	1	2	0	0	1.2821432122E+02	-1.8467893463E+01	2.1573296330E+02	1.0902118829E+03	1.0607738981E+03	0.000E+00	0.0
	1000022	2	5	5	0	0	-1.2821432122E+02	1.8467893463E+01	2.7562581217E+01	8.6020817353E+02	8.4995201669E+02	0.000E+00	0.0
	14	1	6	6	0	0	-2.0164225554E+00	2.6106207445E+02	-7.4260855780E+01	4.2343493878E+02	3.2500000000E+02	0.000E+00	0.0
	-14	1	6	6	0	0	-1.2619789867E+02	-2.4259418099E+02	1.0182343700E+02	4.3677323475E+02	3.2500000000E+02	0.000E+00	0.0
	25	2	5	5	0	0	1.2821432122E+02	-1.8467893463E+01	1.0580006965E+02	2.0891616884E+02	1.2518919926E+02	0.000E+00	0.0
	-5	1	9	9	0	501	-5.1055048626E+00	9.8769000106E+00	6.5719183029E+01	6.6784000717E+01	4.1800000000E+00	0.000E+00	0.0
	5	1	9	9	501	0	1.3331982608E+02	-2.8344793473E+01	4.0080886625E+01	1.4213216813E+02	4.1800000000E+00	0.000E+00	0.0
</event>
<event>
    11  -1  1.0000000E+00  1.0000000E+00  -1.0000000E+00  -1.0000000E+00
	2212	-1	0	0	0	0	0.0000000000E+00	0.0000000000E+00	6.5000000000E+03	6.5000000000E+03	9.3827000000E-01	0.000E+00	0.0
	2212	-1	0	0	0	0	0.0000000000E+00	0.0000000000E+00	-6.5000000000E+03	6.5000000000E+03	9.3827000000E-01	0.000E+00	0.0
	2212	1	0	0	0	0	0.0000000000E+00	0.0000000000E+00	5.5948446071E+03	5.5948446071E+03	9.3827000000E-01	0.000E+00	0.0
	2212	1	0	0	0	0	0.0000000000E+00	0.0000000000E+00	-6.1912411130E+03	6.1912411130E+03	9.3827000000E-01	0.000E+00	0.0
	51	2	1	2	0	0	-1.4779468545E+01	1.4544350676E+02	5.6165482902E+02	1.2061208397E+03	1.0573074703E+03	0.000E+00	0.0
	1000022	2	5	5	0	0	1.4779468545E+01	-1.4544350676E+02	5.2676841736E+02	1.0092719542E+03	8.4839416877E+02	0.000E+00	0.0
	14	1	6	6	0	0	-1.7435124337E+02	9.9220034786E-01	4.7659245524E+02	6.0263148683E+02	3.2500000000E+02	0.000E+00	0.0
	-14	1	6	6	0	0	1.8913071191E+02	-1.4643570711E+02	5.0175962116E+01	4.0664046734E+02	3.2500000000E+02	0.000E+00	0.0
	25	2	5	5	0	0	-1.4779468545E+01	1.4544350676E+02	6.9628088473E+01	2.0464232571E+02	1.2513258736E+02	0.000E+00	0.0
	-5	1	9	9	0	501	4.1344473339E+01	1.0563563303E+02	7.4103821936E+01	1.3556216754E+02	4.1800000000E+00	0.000E+00	0.0
	5	1	9	9	501	0	-5.6123941884E+01	3.9807873730E+01	-4.4757334633E+00	6.9080158176E+01	4.1800000000E+00	0.000E+00	0.0
</event>
<event>
    11  -1  1.0000000E+00  1.0000000E+00  -1.0000000E+00  -1.0000000E+00
	2212	-1	0	0	0	0	0.0000000000E+00	0.0000000000E+00	6.5000000000E+03	6.5000000000E+03	9.3827000000E-01	0.000E+00	0.0
	2212	-1	0	0	0	0	0.0000000000E+00	0.0000000000E+00	-6.5000000000E+03	6.5000000000E+03	9.3827000000E-01	0.000E+00	0.0
	2212	1	0	0	0	0	0.0000000000E+00	0.0000000000E+00	5.2273949936E+03	5.2273949936E+03	9.3827000000E-01	0.000E+00	0.0
	2212	1	0	0	0	0	0.0000000000E+00	0.0000000000E+00	-6.2833828285E+03	6.2833828285E+03	9.3827000000E-01	0.000E+00	0.0
	51	2	1	2	0	0	1.0171719993E+02	4.4157825071E+01	8.9765684733E+02	1.3859135996E+03	1.0500820862E+03	0.000E+00	0.0
	1000022	2	5	5	0	0	-1.0171719993E+02	-4.4157825071E+01	1.0197363204E+03	1.3181179572E+03	8.2781428085E+02	0.000E+00	0.0
	14	1	6	6	0	0	-3.1063988471E+01	-2.1936366851E+02	7.7630558435E+02	8.7026475899E+02	3.2500000000E+02	0.000E+00	0.0
	-14	1	6	6	0	0	-7.0653211459E+01	1.7520584344E+02	2.4343073605E+02	4.4785319818E+02	3.2500000000E+02	0.000E+00	0.0
	25	2	5	5	0	0	1.0171719993E+02	4.4157825071E+01	3.6251514530E+01	1.7110422078E+02	1.2516461076E+02	0.000E+00	0.0
	-5	1	9	9	0	501	6.9063735906E+01	-3.3260074882E+01	4.0641560267E+01	8.6863346812E+01	4.1800000000E+00	0.000E+00	0.0
	5	1	9	9	501	0	3.2653464023E+01	7.7417899953E+01	-4.3900457373E+00	8.4240873971E+01	4.1800000000E+00	0.000E+00	0.0
</event>
<event>
    11  -1  1.0000000E+00  1.0000000E+00  -1.0000000E+00  -1.0000000E+00
	2212	-1	0	0	0	0	0.0000000000E+00	0.0000000000E+00	6.5000000000E+03	6.5000000000E+03	9.3827000000E-01	0.000E+00	0.0
	2212	-1	0	0	0	0	0.0000000000E+00	0.0000000000E+00	-6.5000000000E+03	6.5000000000E+03	9.3827000000E-01	0.000E+00	0.0
	2212	1	0	0	0	0	0.0000000000E+00	0.0000000000E+00	5.2308353520E+03	5.2308353520E+03	9.3827000000E-01	0.000E+00	0.0
	2212	1	0	0	0	0	0.0000000000E+00	0.0000000000E+00	-6.2821080423E+03	6.2821080423E+03	9.3827000000E-01	0.000E+00	0.0
	51	2	1	2	0	0	6.1242377995E+01	1.2954612473E+02	1.0144006742E+03	1.4682318054E+03	1.0517428770E+03	0.000E+00	0.0
	1000022	2	5	5	0	0	-6.1242377995E+01	-1.2954612473E+02	9.0530114240E+02	1.2472437261E+03	8.4588056285E+02	0.000E+00	0.0
	14	1	6	6	0	0	2.5834830351E+01	-2.7265314600E+02	7.2304337007E+02	8.3870369708E+02	3.2500000000E+02	0.000E+00	0.0
	-14	1	6	6	0	0	-8.7077208346E+01	1.4310702127E+02	1.8225777233E+02	4.0854002904E+02	3.2500000000E+02	0.000E+00	0.0
	25	2	5	5	0	0	6.1242377995E+01	1.2954612473E+02	1.4597154789E+02	2.3981287963E+02	1.2517866090E+02	0.000E+00	0.0
	-5	1	9	9	0	501	-2.1343143517E+01	9.8984001636E+01	8.8747805392E+01	1.3471082999E+02	4.1800000000E+00	0.000E+00	0.0
	5	1	9	9	501	0	8.2585521512E+01	3.0562123093E+01	5.7223742503E+01	1.0510204963E+02	4.1800000000E+00	0.000E+00	0.0
</event>
<event>
    11  -1  1.0000000E+00  1.0000000E+00  -1.0000000E+00  -1.0000000E+00
	2212	-1	0	0	0	0	0.0000000000E+00	0.0000000000E+00	6.5000000000E+03	6.5000000000E+03	9.3827000000E-01	0.000E+00	0.0
	2212	-1	0	0	0	0	0.0000000000E+00	0.0000000000E+00	-6.5000000000E+03	6.5000000000E+03	9.3827000000E-01	0.000E+00	0.0
	2212	1	0	0	0	0	0.0000000000E+00	0.0000000000E+00	6.3033980714E+03	6.3033980714E+03	9.3827000000E-01	0.000E+00	0.0
	2212	1	0	0	0	0	0.0000000000E+00	0.0000000000E+00	-5.0504005538E+03	5.0504005538E+03	9.3827000000E-01	0.000E+00	0.0
	51	2	1	2	0	0	-4.1921524502E+01	1.1610358590E+02	-1.0584547233E+03	1.5084893255E+03	1.0676966737E+03	0.000E+00	0.0
	1000022	2	5	5	0	0	4.1921524502E+01	-1.1610358590E+02	-1.2037629576E+03	1.4636361607E+03	8.2337603561E+02	0.000E+00	0.0
	14	1	6	6	0	0	1.7460949547E+02	-2.5490408975E+02	-5.6071232685E+02	7.1797484939E+02	3.2500000000E+02	0.000E+00	0.0
	-14	1	6	6	0	0	-1.3268797097E+02	1.3880050385E+02	-6.4305063075E+02	7.4566131133E+02	3.2500000000E+02	0.000E+00	0.0
	25	2	5	5	0	0	-4.1921524502E+01	1.1610358590E+02	-4.9234559989E+01	1.8256521400E+02	1.2517411310E+02	0.000E+00	0.0
	-5	1	9	9	0	501	4.3910820875E+01	5.3591004422E+01	-1.6083748130E+01	7.1248265234E+01	4.1800000000E+00	0.000E+00	0.0
	5	1	9	9	501	0	-8.5832345377E+01	6.2512581479E+01	-3.3150811859E+01	1.1131694877E+02	4.1800000000E+00	0.000E+00	0.0
</event>
<event>
    11  -1  1.0000000E+00  1.0000000E+00  -1.0000000E+00  -1.0000000E+00
	2212	-1	0	0	0	0	0.0000000000E+00	0.0000000000E+00	6.5000000000E+03	6.5000000000E+03	9.3827000000E-01	0.000E+00	0.0
	2212	-1	0	0	0	0	0.0000000000E+00	0.0000000000E+00	-6.5000000000E+03	6.5000000000E+03	9.3827000000E-01	0.000E+00	0.0
	2212	1	0	0	0	0	0.0000000000E+00	0.0000000000E+00	5.7640276926E+03	5.7640276926E+03	9.3827000000E-01	0.000E+00	0.0
	2212	1	0	0	0	0	0.0000000000E+00	0.0000000000E+00	-6.1246247666E+03	6.1246247666E+03	9.3827000000E-01	0.000E+00	0.0
	51	2	1	2	0	0	-1.0640131820E+02	-7.6150836769E+01	4.1622659582E+02	1.1381686501E+03	1.0512198184E+03	0.000E+00	0.0
	1000022	2	5	5	0	0	1.0640131820E+02	7.6150836769E+01	2.4374443048E+02	8.9583891642E+02	8.5205388699E+02	0.000E+00	0.0
	14	1	6	6	0	0	3.2687540481E+02	-1.6485796179E+00	1.4885746306E+02	4.8439012417E+02	3.2500000000E+02	0.000E+00	0.0
	-14	1	6	6	0	0	-2.2047408661E+02	7.7799416386E+01	9.4886967416E+01	4.1144879225E+02	3.2500000000E+02	0.000E+00	0.0
	25	2	5	5	0	0	-1.0640131820E+02	-7.6150836769E+01	1.1685264355E+02	2.1550862432E+02	1.2517682052E+02	0.000E+00	0.0
	-5	1	9	9	0	501	-2.8005433514E+00	2.9882727799E+01	7.4124432764E+00	3.1196749496E+01	4.1800000000E+00	0.000E+00	0.0
	5	1	9	9	501	0	-1.0360077485E+02	-1.0603356457E+02	1.0944020028E+02	1.8431187482E+02	4.1800000000E+00	0.000E+00	0.0
</event>
<event>
    11  -1  1.0000000E+00  1.0000000E+00  -1.0000000E+00  -1.0000000E+00
	2212	-1	0	0	0	0	0.0000000000E+00	0.0000000000E+00	6.5000000000E+03	6.5000000000E+03	9.3827000000E-01	0.000E+00	0.0
	2212	-1	0	0	0	0	0.0000000000E+00	0.0000000000E+00	-6.5000000000E+03	6.5000000000E+03	9.3827000000E-01	0.000E+00	0.0
	2212	1	0	0	0	0	0.0000000000E+00	0.0000000000E+00	5.0733187383E+03	5.0733187383E+03	9.3827000000E-01	0.000E+00	0.0
	2212	1	0	0	0	0	0.0000000000E+00	0.0000000000E+00	-6.3018271512E+03	6.3018271512E+03	9.3827000000E-01	0.000E+00	0.0
	51	2	1	2	0	0	-6.2459003912E+01	1.3251451837E+02	1.1374765364E+03	1.5640434954E+03	1.0634462657E+03	0.000E+00	0.0
	1000022	2	5	5	0	0	6.2459003912E+01	-1.3251451837E+02	1.0972917465E+03	1.3917135776E+03	8.4341939766E+02	0.000E+00	0.0
	14	1	6	6	0	0	-9.5822721162E+00	-1.9841270449E+02	9.4669656215E+02	1.0204502938E+03	3.2500000000E+02	0.000E+00	0.0
	-14	1	6	6	0	0	7.2041276028E+01	6.5898186113E+01	1.5059518439E+02	3.7126328387E+02	3.2500000000E+02	0.000E+00	0.0
	25	2	5	5	0	0	-6.2459003912E+01	1.3251451837E+02	1.3121666630E+02	2.3314053291E+02	1.2520171653E+02	0.000E+00	0.0
	-5	1	9	9	0	501	-5.5527285822E+01	6.0534128823E+01	-1.1416943235E+00	8.2258349661E+01	4.1800000000E+00	0.000E+00	0.0
	5	1	9	9	501	0	-6.9317180901E+00	7.1980389551E+01	1.3235836062E+02	1.5088218325E+02	4.1800000000E+00	0.000E+00	0.0
</event>
<event>
    11  -1  1.0000000E+00  1.0000000E+00  -1.0000000E+00  -1.0000000E+00
	2212	-1	0	0	0	0	0.0000000000E+00	0.0000000000E+00	6.5000000000E+03	6.5000000000E+03	9.3827000000E-01	0.000E+00	0.0
	2212	-1	0	0	0	0	0.0000000000E+00	0.0000000000E+00	-6.5000000000E+03	6.5000000000E+03	9.3827000000E-01	0.000E+00	0.0
	2212	1	0	0	0	0	0.0000000000E+00	0.0000000000E+00	5.1001456574E+03	5.1001456574E+03	9.3827000000E-01	0.000E+00	0.0
	2212	1	0	0	0	0	0.0000000000E+00	0.0000000000E+00	-6.3021352486E+03	6.3021352486E+03	9.3827000000E-01	0.000E+00	0.0
	51	2	1	2	0	0	2.6572118497E+01	-6.5874914329E+01	1.0151517909E+03	1.4640717423E+03	1.0525812682E+03	0.000E+00	0.0
	1000022	2	5	5	0	0	-2.6572118497E+01	6.5874914329E+01	1.1785955087E+03	1.4519201880E+03	8.4494927500E+02	0.000E+00	0.0
	14	1	6	6	0	0	-1.8459721996E+02	5.2493768242E+01	2.4306776225E+02	4.4893058079E+02	3.2500000000E+02	0.000E+00	0.0
	-14	1	6	6	0	0	1.5802510146E+02	1.3381146087E+01	9.3552774644E+02	1.0029896072E+03	3.2500000000E+02	0.000E+00	0.0
	25	2	5	5	0	0	2.6572118497E+01	-6.5874914329E+01	2.3394082433E+01	1.4579890603E+02	1.2515772484E+02	0.000E+00	0.0
	-5	1	9	9	0	501	7.3865071268E+01	-1.7544405224E+01	9.3283154079E+00	7.6605122390E+01	4.1800000000E+00	0.000E+00	0.0
	5	1	9	9	501	0	-4.7292952771E+01	-4.8330509105E+01	1.4065767025E+01	6.9193783638E+01	4.1800000000E+00	0.000E+00	0.0
</event>
<event>
    11  -1  1.0000000E+00  1.0000000E+00  -1.0000000E+00  -1.0000000E+00
	2212	-1	0	0	0	0	0.0000000000E+00	0.0000000000E+00	6.5000000000E+03	6.5000000000E+03	9.3827000000E-01	0.000E+00	0.0
	2212	-1	0	0	0	0	0.0000000000E+00	0.0000000000E+00	-6.5000000000E+03	6.5000000000E+03	9.3827000000E-01	0.000E+00	0.0
	2212	1	0	0	0	0	0.0000000000E+00	0.0000000000E+00	6.2803250865E+03	6.2803250865E+03	9.3827000000E-01	0.000E+00	0.0
	2212	1	0	0	0	0	0.0000000000E+00	0.0000000000E+00	-5.2494432644E+03	5.2494432644E+03	9.3827000000E-01	0.000E+00	0.0
	51	2	1	2	0	0	9.3022688574E+01	8.4825748745E+01	-1.0716182658E+03	1.5043530526E+03	1.0482670323E+03	0.000E+00	0.0
	1000022	2	5	5	0	0	-9.3022688574E+01	-8.4825748745E+01	-8.2180742743E+02	1.1960286205E+03	8.5980717899E+02	0.000E+00	0.0
	14	1	6	6	0	0	-1.7428478230E+02	-2.8537691251E+02	-5.4583401307E+02	7.1789618843E+02	3.2500000000E+02	0.000E+00	0.0
	-14	1	6	6	0	0	8.1262093723E+01	2.0055116377E+02	-2.7597341437E+02	4.7813243208E+02	3.2500000000E+02	0.000E+00	0.0
	25	2	5	5	0	0	9.3022688574E+01	8.4825748745E+01	-2.0907439468E+02	2.7420302867E+02	1.2500628057E+02	0.000E+00	0.0
	-5	1	9	9	0	501	1.3529878748E+01	-3.9227129232E+00	1.4616758934E+01	2.0726006305E+01	4.1800000000E+00	0.000E+00	0.0
	5	1	9	9	501	0	7.9492809826E+01	8.8748461668E+01	-2.2369115361E+02	2.5347702236E+02	4.1800000000E+00	0.000E+00	0.0
</event>
<event>
    11  -1  1.0000000E+00  1.0000000E+00  -1.0000000E+00  -1.0000000E+00
	2212	-1	0	0	0	0	0.0000000000E+00	0.0000000000E+00	6.5000000000E+03	6.5000000000E+03	9.3827000000E-01	0.000E+00	0.0
	2212	-1	0	0	0	0	0.0000000000E+00	0.0000000000E+00	-6.5000000000E+03	6.5000000000E+03	9.3827000000E-01	0.000E+00	0.0
	2212	1	0	0	0	0	0.0000000000E+00	0.0000000000E+00	4.9556831135E+03	4.9556831135E+03	9.3827000000E-01	0.000E+00	0.0
	2212	1	0	0	0	0	0.0000000000E+00	0.0000000000E+00	-6.3199415221E+03	6.3199415221E+03	9.3827000000E-01	0.000E+00	0.0
	51	2	1	2	0	0	8.3811059252E+01	-1.7436108427E+01	1.5625538201E+03	1.8871068184E+03	1.0546418312E+03	0.000E+00	0.0
	1000022	2	5	5	0	0	-8.3811059252E+01	1.7436108427E+01	9.3313007933E+02	1.2673511688E+03	8.5329885064E+02	0.000E+00	0.0
	14	1	6	6	0	0	1.2683900015E+02	-1.0363289257E+02	1.6706700757E+02	4.0045510784E+02	3.2500000000E+02	0.000E+00	0.0
	-14	1	6	6	0	0	-2.1065005940E+02	1.2106900099E+02	7.6606307176E+02	8.6689606092E+02	3.2500000000E+02	0.000E+00	0.0
	25	2	5	5	0	0	8.3811059252E+01	-1.7436108427E+01	4.3112832922E+02	4.5702419564E+02	1.2518453426E+02	0.000E+00	0.0
	-5	1	9	9	0	501	1.8159261037E+01	5.1077738423E+01	1.2049788757E+02	1.3219647285E+02	4.1800000000E+00	0.000E+00	0.0
	5	1	9	9	501	0	6.5651798215E+01	-6.8513846849E+01	3.1063044165E+02	3.2482772280E+02	4.1800000000E+00	0.000E+00	0.0
</event>
<event>
    11  -1  1.0000000E+00  1.0000000E+00  -1.0000000E+00  -1.0000000E+00
	2212	-1	0	0	0	0	0.0000000000E+00	0.0000000000E+00	6.5000000000E+03	6.5000000000E+03	9.3827000000E-01	0.000E+00	0.0
	2212	-1	0	0	0	0	0.0000000000E+00	0.0000000000E+00	-6.5000000000E+03	6.5000000000E+03	9.3827000000E-01	0.000E+00	0.0
	2212	1	0	0	0	0	0.0000000000E+00	0.0000000000E+00	6.2550140473E+03	6.2550140473E+03	9.3827000000E-01	0.000E+00	0.0
	2212	1	0	0	0	0	0.0000000000E+00	0.0000000000E+00	-5.3594137284E+03	5.3594137284E+03	9.3827000000E-01	0.000E+00	0.0
	51	2	1	2	0	0	-1.3760068718E+02	8.5292469758E+01	-9.3441081369E+02	1.4202263132E+03	1.0572182639E+03	0.000E+00	0.0
	1000022	2	5	5	0	0	1.3760068718E+02	-8.5292469758E+01	-6.9307623281E+02	1.0976388543E+03	8.3561213225E+02	0.000E+00	0.0
	14	1	6	6	0	0	-1.5822217212E+02	-1.3430696420E+01	-4.8783609090E+02	6.0730856321E+02	3.2500000000E+02	0.000E+00	0.0
	-14	1	6	6	0	0	2.9582285930E+02	-7.1861773339E+01	-2.0524014190E+02	4.9033029113E+02	3.2500000000E+02	0.000E+00	0.0
	25	2	5	5	0	0	-1.3760068718E+02	8.5292469758E+01	-2.0252408610E+02	2.8793336996E+02	1.2522326292E+02	0.000E+00	0.0
	-5	1	9	9	0	501	-1.4834568736E+02	3.5017237705E+01	-1.6069254015E+02	2.2152249266E+02	4.1800000000E+00	0.000E+00	0.0
	5	1	9	9	501	0	1.0745000184E+01	5.0275232053E+01	-4.1831545945E+01	6.6410877295E+01	4.1800000000E+00	0.000E+00	0.0
</event>
<event>
    11  -1  1.0000000E+00  1.0000000E+00  -1.0000000E+00  -1.0000000E+00
	2212	-1	0	0	0	0	0.0000000000E+00	0.0000000000E+00	6.5000000000E+03	6.5000000000E+03	9.3827000000E-01	0.000E+00	0.0
	2212	-1	0	0	0	0	0.0000000000E+00	0.0000000000E+00	-6.5000000000E+03	6.5000000000E+03	9.3827000000E-01	0.000E+00	0.0
	2212	1	0	0	0	0	0.0000000000E+00	0.0000000000E+00	6.3175149448E+03	6.3175149448E+03	9.3827000000E-01	0.000E+00	0.0
	2212	1	0	0	0	0	0.0000000000E+00	0.0000000000E+00	-4.9975687750E+03	4.9975687750E+03	9.3827000000E-01	0.000E+00	0.0
	51	2	1	2	0	0	-1.2466033377E+02	5.5979310658E+01	-1.3800718936E+03	1.7378024323E+03	1.0472272820E+03	0.000E+00	0.0
	1000022	2	5	5	0	0	1.2466033377E+02	-5.5979310658E+01	-1.0349101201E+03	1.3449312460E+03	8.4801368965E+02	0.000E+00	0.0
	14	1	6	6	0	0	-1.9462291932E+02	2.0419535485E+01	-3.3380770838E+02	5.0531932907E+02	3.2500000000E+02	0.000E+00	0.0
	-14	1	6	6	0	0	3.1928325309E+02	-7.6398846143E+01	-7.0110241169E+02	8.3961191695E+02	3.2500000000E+02	0.000E+00	0.0
	25	2	5	5	0	0	-1.2466033377E+02	5.5979310658E+01	-2.8503604978E+02	3.3998503423E+02	1.2518143548E+02	0.000E+00	0.0
	-5	1	9	9	0	501	-1.3949848406E+02	1.4871898938E+01	-2.3182323129E+02	2.7099904686E+02	4.1800000000E+00	0.000E+00	0.0
	5	1	9	9	501	0	1.4838150283E+01	4.1107411720E+01	-5.3212818492E+01	6.8985987374E+01	4.1800000000E+00	0.000E+00	0.0
</event>
<event>
    11  -1  1.0000000E+00  1.0000000E+00  -1.0000000E+00  -1.0000000E+00
	2212	-1	0	0	0	0	0.0000000000E+00	0.0000000000E+00	6.5000000000E+03	6.5000000000E+03	9.3827000000E-01	0.000E+00	0.0
	2212	-1	0	0	0	0	0.0000000000E+00	0.0000000000E+00	-6.5000000000E+03	6.5000000000E+03	9.3827000000E-01	0.000E+00	0.0
	2212	1	0	0	0	0	0.0000000000E+00	0.0000000000E+00	6.2596704217E+03	6.2596704217E+03	9.3827000000E-01	0.000E+00	0.0
	2212	1	0	0	0	0	0.0000000000E+00	0.0000000000E+00	-5.3469831797E+03	5.3469831797E+03	9.3827000000E-01	0.000E+00	0.0
	51	2	1	2	0	0	1.0788700244E+02	5.9285692801E+01	-7.7806899858E+02	1.3148999771E+03	1.0528134615E+03	0.000E+00	0.0
	1000022	2	5	5	0	0	-1.0788700244E+02	-5.9285692801E+01	-8.7878974144E+02	1.2145296588E+03	8.2925055554E+02	0.000E+00	0.0
	14	1	6	6	0	0	5.8832592582E+01	-2.0400423011E+02	-2.1656786275E+02	4.4452855817E+02	3.2500000000E+02	0.000E+00	0.0
	-14	1	6	6	0	0	-1.6671959502E+02	1.4471853731E+02	-6.6222187869E+02	7.7000110066E+02	3.2500000000E+02	0.000E+00	0.0
	25	2	5	5	0	0	1.0788700244E+02	5.9285692801E+01	-3.3897500590E+01	1.7881673975E+02	1.2518780773E+02	0.000E+00	0.0
	-5	1	9	9	0	501	1.1392219112E+01	1.4509067272E+01	-6.5169645041E+01	6.7859050422E+01	4.1800000000E+00	0.000E+00	0.0
	5	1	9	9	501	0	9.6494783327E+01	4.4776625529E+01	3.1272144451E+01	1.1095768933E+02	4.1800000000E+00	0.000E+00	0.0
</event>
<event>
    11  -1  1.0000000E+00  1.0000000E+00  -1.0000000E+00  -1.0000000E+00
	2212	-1	0	0	0	0	0.0000000000E+00	0.0000000000E+00	6.5000000000E+03	6.5000000000E+03	9.3827000000E-01	0.000E+00	0.0
	2212	-1	0	0	0	0	0.0000000000E+00	0.0000000000E+00	-6.5000000000E+03	6.5000000000E+03	9.3827000000E-01	0.000E+00	0.0
	2212	1	0	0	0	0	0.0000000000E+00	0.0000000000E+00	5.1324553401E+03	5.1324553401E+03	9.3827000000E-01	0.000E+00	0.0
	2212	1	0	0	0	0	0.0000000000E+00	0.0000000000E+00	-6.2976401956E+03	6.2976401956E+03	9.3827000000E-01	0.000E+00	0.0
	51	2	1	2	0	0	1.0168615034E+02	9.7027737352E+01	1.0935497324E+03	1.5239913884E+03	1.0521141951E+03	0.000E+00	0.0
	1000022	2	5	5	0	0	-1.0168615034E+02	-9.7027737352E+01	1.0313351607E+03	1.3389588672E+03	8.4226134870E+02	0.000E+00	0.0
	14	1	6	6	0	0	-2.7708574764E+01	-2.6611537868E+02	2.9765432082E+02	5.1556595561E+02	3.2500000000E+02	0.000E+00	0.0
	-14	1	6	6	0	0	-7.3977575575E+01	1.6908764132E+02	7.3368083986E+02	8.2339291163E+02	3.2500000000E+02	0.000E+00	0.0
	25	2	5	5	0	0	1.0168615034E+02	9.7027737352E+01	1.3384969478E+02	2.3094559704E+02	1.2516258631E+02	0.000E+00	0.0
	-5	1	9	9	0	501	4.3611208936E+01	-2.5131468183E+01	5.3447902675E+01	7.3536922279E+01	4.1800000000E+00	0.000E+00	0.0
	5	1	9	9	501	0	5.8074941404E+01	1.2215920554E+02	8.0401792101E+01	1.5740867476E+02	4.1800000000E+00	0.000E+00	0.0
</event>
<event>
    11  -1  1.0000000E+00  1.0000000E+00  -1.0000000E+00  -1.0000000E+00
	2212	-1	0	0	0	0	0.0000000000E+00	0.0000000000E+00	6.5000000000E+03	6.5000000000E+03	9.3827000000E-01	0.000E+00	0.0
	2212	-1	0	0	0	0	0.0000000000E+00	0.0000000000E+00	-6.5000000000E+03	6.5000000000E+03	9.3827000000E-01	0.000E+00	0.0
	2212	1	0	0	0	0	0.0000000000E+00	0.0000000000E+00	6.2555214717E+03	6.2555214717E+03	9.3827000000E-01	0.000E+00	0.0
	2212	1	0	0	0	0	0.0000000000E+00	0.0000000000E+00	-5.3655532553E+03	5.3655532553E+03	9.3827000000E-01	0.000E+00	0.0
	51	2	1	2	0	0	-8.4515789763E+01	8.5264303556E+01	-9.9978265354E+02	1.4571786976E+03	1.0532765460E+03	0.000E+00	0.0
	1000022	2	5	5	0	0	8.4515789763E+01	-8.5264303556E+01	-6.2774008562E+02	1.0645206125E+03	8.5131286801E+02	0.000E+00	0.0
	14	1	6	6	0	0	-1.1566635538E+02	1.2263734388E+02	-4.8367334878E+02	6.0661646219E+02	3.2500000000E+02	0.000E+00	0.0
	-14	1	6	6	0	0	2.0018214514E+02	-2.0790164743E+02	-1.4406673684E+02	4.5790415034E+02	3.2500000000E+02	0.000E+00	0.0
	25	2	5	5	0	0	-8.4515789763E+01	8.5264303556E+01	-2.6222813080E+02	3.1440466046E+02	1.2519495898E+02	0.000E+00	0.0
	-5	1	9	9	0	501	-9.4346213779E+01	5.1139372293E+01	-9.4960472580E+01	1.4335761998E+02	4.1800000000E+00	0.000E+00	0.0
	5	1	9	9	501	0	9.8304240163E+00	3.4124931263E+01	-1.6726765822E+02	1.7104704048E+02	4.1800000000E+00	0.000E+00	0.0
</event>
<event>
    11  -1  1.0000000E+00  1.0000000E+00  -1.0000000E+00  -1.0000000E+00
	2212	-1	0	0	0	0	0.0000000000E+00	0.0000000000E+00	6.5000000000E+03	6.5000000000E+03	9.3827000000E-01	0.000E+00	0.0
	2212	-1	0	0	0	0	0.0000000000E+00	0.0000000000E+00	-6.5000000000E+03	6.5000000000E+03	9.3827000000E-01	0.000E+00	0.0
	2212	1	0	0	0	0	0.0000000000E+00	0.0000000000E+00	5.1599883456E+03	5.1599883456E+03	9.3827000000E-01	0.000E+00	0.0
	2212	1	0	0	0	0	0.0000000000E+00	0.0000000000E+00	-6.2943676728E+03	6.2943676728E+03	9.3827000000E-01	0.000E+00	0.0
	51	2	1	2	0	0	9.5477418262E+01	7.7127788518E-02	1.2991686430E+03	1.6730672329E+03	1.0498565900E+03	0.000E+00	0.0
	1000022	2	5	5	0	0	-9.5477418262E+01	-7.7127788518E-02	7.7545549569E+02	1.1537035278E+03	8.4887258230E+02	0.000E+00	0.0
	14	1	6	6	0	0	1.0885014525E+02	-7.2363263847E+01	8.5100330997E+01	3.6048836654E+02	3.2500000000E+02	0.000E+00	0.0
	-14	1	6	6	0	0	-2.0432756351E+02	7.2286136058E+01	6.9035516469E+02	7.9321516129E+02	3.2500000000E+02	0.000E+00	0.0
	25	2	5	5	0	0	9.5477418262E+01	7.7127788518E-02	3.5892383161E+02	3.9194045377E+02	1.2520007612E+02	0.000E+00	0.0
	-5	1	9	9	0	501	4.6122270150E+01	-1.4099641132E+00	3.3263212814E+02	3.3584350057E+02	4.1800000000E+00	0.000E+00	0.0
	5	1	9	9	501	0	4.9355148112E+01	1.4870919017E+00	2.6291703463E+01	5.6096953202E+01	4.1800000000E+00	0.000E+00	0.0
</event>
<event>
    11  -1  1.0000000E+00  1.0000000E+00  -1.0000000E+00  -1.0000000E+00
	2212	-1	0	0	0	0	0.0000000000E+00	0.0000000000E+00	6.5000000000E+03	6.5000000000E+03	9.3827000000E-01	0.000E+00	0.0
	2212	-1	0	0	0	0	0.0000000000E+00	0.0000000000E+00	-6.5000000000E+03	6.5000000000E+03	9.3827000000E-01	0.000E+00	0.0
	2212	1	0	0	0	0	0.0000000000E+00	0.0000000000E+00	6.2313758809E+03	6.2313758809E+03	9.3827000000E-01	0.000E+00	0.0
	2212	1	0	0	0	0	0.0000000000E+00	0.0000000000E+00	-5.4697438557E+03	5.4697438557E+03	9.3827000000E-01	0.000E+00	0.0
	51	2	1	2	0	0	2.6016590788E+01	1.3446934662E+02	-7.4639579835E+02	1.2972556235E+03	1.0521438099E+03	0.000E+00	0.0
	1000022	2	5	5	0	0	-2.6016590788E+01	-1.3446934662E+02	-6.4847329318E+02	1.0815413190E+03	8.5466668627E+02	0.000E+00	0.0
	14	1	6	6	0	0	1.3957891617E+02	1.5804861393E+02	-2.1057141626E+02	4.4093872539E+02	3.2500000000E+02	0.000E+00	0.0
	-14	1	6	6	0	0	-1.6559550696E+02	-2.9251796055E+02	-4.3790187691E+02	6.4060259364E+02	3.2500000000E+02	0.000E+00	0.0
	25	2	5	5	0	0	2.6016590788E+01	1.3446934662E+02	-1.1315873207E+02	2.1733894434E+02	1.2518965576E+02	0.000E+00	0.0
	-5	1	9	9	0	501	-1.1416124856E+01	8.9310833267E+00	-8.0988838008E+01	8.2381772486E+01	4.1800000000E+00	0.000E+00	0.0
	5	1	9	9	501	0	3.7432715644E+01	1.2553826330E+02	-3.2169894058E+01	1.3495717186E+02	4.1800000000E+00	0.000E+00	0.0
</event>
<event>
    11  -1  1.0000000E+00  1.0000000E+00  -1.0000000E+00  -1.0000000E+00
	2212	-1	0	0	0	0	0.0000000000E+00	0.0000000000E+00	6.5000000000E+03	6.5000000000E+03	9.3827000000E-01	0.000E+00	0.0
	2212	-1	0	0	0	0	0.0000000000E+00	0.0000000000E+00	-6.5000000000E+03	6.5000000000E+03	9.3827000000E-01	0.000E+00	0.0
	2212	1	0	0	0	0	0.0000000000E+00	0.0000000000E+00	6.0968748659E+03	6.0968748659E+03	9.3827000000E-01	0.000E+00	0.0
	2212	1	0	0	0	0	0.0000000000E+00	0.0000000000E+00	-5.3821244567E+03	5.3821244567E+03	9.3827000000E-01	0.000E+00	0.0
	51	2	1	2	0	0	9.5722253670E+01	-3.2948309556E+02	-9.4809603820E+02	1.6790422482E+03	1.3426000571E+03	0.000E+00	0.0
	1000022	2	5	5	0	0	-9.5722253670E+01	3.2948309556E+02	-2.9377144737E+02	9.6367227524E+02	8.5125832194E+02	0.000E+00	0.0
	14	1	6	6	0	0	-2.0813636540E+02	1.2604274788E+02	-3.7868272949E+02	5.5518747330E+02	3.2500000000E+02	0.000E+00	0.0
	-14	1	6	6	0	0	1.1241411173E+02	2.0344034768E+02	8.4911282123E+01	4.0848480194E+02	3.2500000000E+02	0.000E+00	0.0
	25	2	5	5	0	0	9.5722253670E+01	-3.2948309556E+02	-4.2097896176E+02	5.5732840217E+02	1.2517907778E+02	0.000E+00	0.0
	-5	1	9	9	0	501	1.1092912696E+02	-3.2820492305E+02	-3.8453974318E+02	5.1760219204E+02	4.1800000000E+00	0.000E+00	0.0
	5	1	9	9	501	0	-1.5206873292E+01	-1.2781725106E+00	-3.6439218584E+01	3.9726210130E+01	4.1800000000E+00	0.000E+00	0.0
</event>
<event>
    11  -1  1.0000000E+00  1.0000000E+00  -1.0000000E+00  -1.0000000E+00
	2212	-1	0	0	0	0	0.0000000000E+00	0.0000000000E+00	6.5000000000E+03	6.5000000000E+03	9.3827000000E-01	0.000E+00	0.0
	2212	-1	0	0	0	0	0.0000000000E+00	0.0000000000E+00	-6.5000000000E+03	6.5000000000E+03	9.3827000000E-01	0.000E+00	0.0
	2212	1	0	0	0	0	0.0000000000E+00	0.0000000000E+00	4.8411245132E+03	4.8411245132E+03	9.3827000000E-01	0.000E+00	0.0
	2212	1	0	0	0	0	0.0000000000E+00	0.0000000000E+00	-6.3327862406E+03	6.3327862406E+03	9.3827000000E-01	0.000E+00	0.0
	51	2	1	2	0	0	1.3070368250E+02	5.8864826321E+01	1.5373195173E+03	1.8690765219E+03	1.0533504764E+03	0.000E+00	0.0
	1000022	2	5	5	0	0	-1.3070368250E+02	-5.8864826321E+01	1.1892331000E+03	1.4687636346E+03	8.4996630977E+02	0.000E+00	0.0
	14	1	6	6	0	0	-2.2935223663E+02	1.7661432457E+02	4.8029353834E+02	6.4815272202E+02	3.2500000000E+02	0.000E+00	0.0
	-14	1	6	6	0	0	9.8648554122E+01	-2.3547915089E+02	7.0893956168E+02	8.2061091258E+02	3.2500000000E+02	0.000E+00	0.0
	25	2	5	5	0	0	1.3070368250E+02	5.8864826321E+01	3.0242862741E+02	3.5732561163E+02	1.2517986122E+02	0.000E+00	0.0
	-5	1	9	9	0	501	1.4106014461E+02	7.7405777112E+01	2.9171673275E+02	3.3317524413E+02	4.1800000000E+00	0.000E+00	0.0
	5	1	9	9	501	0	-1.0356462109E+01	-1.8540950791E+01	1.0711894654E+01	2.4150367507E+01	4.1800000000E+00	0.000E+00	0.0
</event>
<event>
    11  -1  1.0000000E+00  1.0000000E+00  -1.0000000E+00  -1.0000000E+00
	2212	-1	0	0	0	0	0.0000000000E+00	0.0000000000E+00	6.5000000000E+03	6.5000000000E+03	9.3827000000E-01	0.000E+00	0.0
	2212	-1	0	0	0	0	0.0000000000E+00	0.0000000000E+00	-6.5000000000E+03	6.5000000000E+03	9.3827000000E-01	0.000E+00	0.0
	2212	1	0	0	0	0	0.0000000000E+00	0.0000000000E+00	5.9803110763E+03	5.9803110763E+03	9.3827000000E-01	0.000E+00	0.0
	2212	1	0	0	0	0	0.0000000000E+00	0.0000000000E+00	-5.9723792479E+03	5.9723792479E+03	9.3827000000E-01	0.000E+00	0.0
	51	2	1	2	0	0	-6.5942871759E+01	8.6627432488E+00	-1.4826393695E+02	1.0598114661E+03	1.0472796394E+03	0.000E+00	0.0
	1000022	2	5	5	0	0	6.5942871759E+01	-8.6627432488E+00	1.3382403274E+02	8.4681717519E+02	8.3352681481E+02	0.000E+00	0.0
	14	1	6	6	0	0	-1.6103508953E+02	6.0076863313E+01	2.2932443175E+02	4.3330846352E+02	3.2500000000E+02	0.000E+00	0.0
	-14	1	6	6	0	0	2.2697796128E+02	-6.8739606562E+01	-9.5500399004E+01	4.1350871167E+02	3.2500000000E+02	0.000E+00	0.0
	25	2	5	5	0	0	-6.5942871759E+01	8.6627432488E+00	-1.4175586124E+02	2.0049250061E+02	1.2521586620E+02	0.000E+00	0.0
	-5	1	9	9	0	501	3.4267320711E+01	-1.6636112176E+01	-3.9961049022E+01	5.5365759599E+01	4.1800000000E+00	0.000E+00	0.0
	5	1	9	9	501	0	-1.0021019247E+02	2.5298855425E+01	-1.0179481222E+02	1.4512674101E+02	4.1800000000E+00	0.000E+00	0.0
</event>
<event>
    11  -1  1.0000000E+00  1.0000000E+00  -1.0000000E+00  -1.0000000E+00
	2212	-1	0	0	0	0	0.0000000000E+00	0.0000000000E+00	6.5000000000E+03	6.5000000000E+03	9.3827000000E-01	0.000E+00	0.0
	2212	-1	0	0	0	0	0.0000000000E+00	0.0000000000E+00	-6.5000000000E+03	6.5000000000E+03	9.3827000000E-01	0.000E+00	0.0
	2212	1	0	0	0	0	0.0000000000E+00	0.0000000000E+00	5.7497169401E+03	5.7497169401E+03	9.3827000000E-01	0.000E+00	0.0
	2212	1	0	0	0	0	0.0000000000E+00	0.0000000000E+00	-6.1420418646E+03	6.1420418646E+03	9.3827000000E-01	0.000E+00	0.0
	51	2	1	2	0	0	8.5393952610E+01	-1.1852464710E+00	3.1257648498E+02	1.0859453446E+03	1.0364746502E+03	0.000E+00	0.0
	1000022	2	5	5	0	0	-8.5393952610E+01	1.1852464710E+00	4.1011456618E+02	9.5551555779E+02	8.5879129702E+02	0.000E+00	0.0
	14	1	6	6	0	0	-3.1393551465E+01	-2.1949254786E+02	1.2001234664E+01	3.9361346937E+02	3.2500000000E+02	0.000E+00	0.0
	-14	1	6	6	0	0	-5.4000401145E+01	2.2067779433E+02	3.9811333152E+02	5.6190208841E+02	3.2500000000E+02	0.000E+00	0.0
	25	2	5	5	0	0	8.5393952610E+01	-1.1852464710E+00	-1.7789641711E+01	1.5272563745E+02	1.2535994987E+02	0.000E+00	0.0
	-5	1	9	9	0	501	7.2615141500E+00	3.0680178766E+01	-5.2505902325E+01	6.1386848232E+01	4.1800000000E+00	0.000E+00	0.0
	5	1	9	9	501	0	7.8132438460E+01	-3.1865425237E+01	3.4716260614E+01	9.1338789221E+01	4.1800000000E+00	0.000E+00	0.0
</event>
<event>
    11  -1  1.0000000E+00  1.0000000E+00  -1.0000000E+00  -1.0000000E+00
	2212	-1	0	0	0	0	0.0000000000E+00	0.0000000000E+00	6.5000000000E+03	6.5000000000E+03	9.3827000000E-01	0.000E+00	0.0
	2212	-1	0	0	0	0	0.0000000000E+00	0.0000000000E+00	-6.5000000000E+03	6.5000000000E+03	9.3827000000E-01	0.000E+00	0.0
	2212	1	0	0	0	0	0.0000000000E+00	0.0000000000E+00	5.3201154359E+03	5.3201154359E+03	9.3827000000E-01	0.000E+00	0.0
	2212	1	0	0	0	0	0.0000000000E+00	0.0000000000E+00	-6.2651823051E+03	6.2651823051E+03	9.3827000000E-01	0.000E+00	0.0
	51	2	1	2	0	0	-6.0281970792E+01	-1.3147831512E+02	8.9319131162E+02	1.3881434641E+03	1.0527255551E+03	0.000E+00	0.0
	1000022	2	5	5	0	0	6.0281970792E+01	1.3147831512E+02	8.3011989822E+02	1.1915388218E+03	8.4246380042E+02	0.000E+00	0.0
	14	1	6	6	0	0	-4.4566045167E+01	3.2521148986E+02	4.6294079633E+02	6.5397846022E+02	3.2500000000E+02	0.000E+00	0.0
	-14	1	6	6	0	0	1.0484801596E+02	-1.9373317475E+02	3.6717910188E+02	5.3756036155E+02	3.2500000000E+02	0.000E+00	0.0
	25	2	5	5	0	0	-6.0281970792E+01	-1.3147831512E+02	1.1494697104E+02	2.2316343725E+02	1.2517447912E+02	0.000E+00	0.0
	-5	1	9	9	0	501	-2.2832121861E+01	-7.7397077296E+01	1.3228105925E+02	1.5500762691E+02	4.1800000000E+00	0.000E+00	0.0
	5	1	9	9	501	0	-3.7449848931E+01	-5.4081237820E+01	-1.7334088209E+01	6.8155810340E+01	4.1800000000E+00	0.000E+00	0.0
</event>
<event>
    11  -1  1.0000000E+00  1.0000000E+00  -1.0000000E+00  -1.0000000E+00
	2212	-1	0	0	0	0	0.0000000000E+00	0.0000000000E+00	6.5000000000E+03	6.5000000000E+03	9.3827000000E-01	0.000E+00	0.0
	2212	-1	0	0	0	0	0.0000000000E+00	0.0000000000E+00	-6.5000000000E+03	6.5000000000E+03	9.3827000000E-01	0.000E+00	0.0
	2212	1	0	0	0	0	0.0000000000E+00	0.0000000000E+00	5.5283936240E+03	5.5283936240E+03	9.3827000000E-01	0.000E+00	0.0
	2212	1	0	0	0	0	0.0000000000E+00	0.0000000000E+00	-6.2138090708E+03	6.2138090708E+03	9.3827000000E-01	0.000E+00	0.0
	51	2	1	2	0	0	-7.1769521999E+01	-6.1029758870E+01	5.4813851049E+02	1.1923049311E+03	1.0546372487E+03	0.000E+00	0.0
	1000022	2	5	5	0	0	7.1769521999E+01	6.1029758870E+01	7.0119422950E+02	1.1003299389E+03	8.4272007873E+02	0.000E+00	0.0
	14	1	6	6	0	0	-1.0274894081E+02	-1.6404027902E+02	4.9092162422E+02	6.1975446679E+02	3.2500000000E+02	0.000E+00	0.0
	-14	1	6	6	0	0	1.7451846281E+02	2.2507003789E+02	2.1027260528E+02	4.8057547206E+02	3.2500000000E+02	0.000E+00	0.0
	25	2	5	5	0	0	-7.1769521999E+01	-6.1029758870E+01	-1.5778782746E+01	1.5746736633E+02	1.2518588466E+02	0.000E+00	0.0
	-5	1	9	9	0	501	-1.3266562021E+01	3.5735329693E+01	1.3386499645E+01	4.0616329584E+01	4.1800000000E+00	0.000E+00	0.0
	5	1	9	9	501	0	-5.8502959979E+01	-9.6765088563E+01	-2.9165282391E+01	1.1685103674E+02	4.1800000000E+00	0.000E+00	0.0
</event>
<event>
    11  -1  1.0000000E+00  1.0000000E+00  -1.0000000E+00  -1.0000000E+00
	2212	-1	0	0	0	0	0.0000000000E+00	0.0000000000E+00	6.5000000000E+03	6.5000000000E+03	9.3827000000E-01	0.000E+00	0.0
	2212	-1	0	0	0	0	0.0000000000E+00	0.0000000000E+00	-6.5000000000E+03	6.5000000000E+03	9.3827000000E-01	0.000E+00	0.0
	2212	1	0	0	0	0	0.0000000000E+00	0.0000000000E+00	4.8402688941E+03	4.8402688941E+03	9.3827000000E-01	0.000E+00	0.0
	2212	1	0	0	0	0	0.0000000000E+00	0.0000000000E+00	-6.3340025385E+03	6.3340025385E+03	9.3827000000E-01	0.000E+00	0.0
	51	2	1	2	0	0	-1.4222674684E+02	8.7605623542E+00	1.5368010616E+03	1.8665763577E+03	1.0497831210E+03	0.000E+00	0.0
	1000022	2	5	5	0	0	1.4222674684E+02	-8.7605623542E+00	1.1936138610E+03	1.4706963505E+03	8.4730662171E+02	0.000E+00	0.0
	14	1	6	6	0	0	3.0016235083E+02	1.5560200540E+01	9.0548368626E+02	1.0079014152E+03	3.2500000000E+02	0.000E+00	0.0
	-14	1	6	6	0	0	-1.5793560399E+02	-2.4320762894E+01	2.8813017470E+02	4.6279493524E+02	3.2500000000E+02	0.000E+00	0.0
	25	2	5	5	0	0	-1.4222674684E+02	8.7605623542E+00	3.0011978353E+02	3.5503221695E+02	1.2518304851E+02	0.000E+00	0.0
	-5	1	9	9	0	501	-1.3571177970E+02	-3.5173671237E+01	2.5809765469E+02	2.9374605709E+02	4.1800000000E+00	0.000E+00	0.0
	5	1	9	9	501	0	-6.5149671416E+00	4.3934233591E+01	4.2022128838E+01	6.1286159858E+01	4.1800000000E+00	0.000E+00	0.0
</event>
<event>
    11  -1  1.0000000E+00  1.0000000E+00  -1.0000000E+00  -1.0000000E+00
	2212	-1	0	0	0	0	0.0000000000E+00	0.0000000000E+00	6.5000000000E+03	6.5000000000E+03	9.3827000000E-01	0.000E+00	0.0
	2212	-1	0	0	0	0	0.0000000000E+00	0.0000000000E+00	-6.5000000000E+03	6.5000000000E+03	9.3827000000E-01	0.000E+00	0.0
	2212	1	0	0	0	0	0.0000000000E+00	0.0000000000E+00	6.3339556048E+03	6.3339556048E+03	9.3827000000E-01	0.000E+00	0.0
	2212	1	0	0	0	0	0.0000000000E+00	0.0000000000E+00	-4.8853896449E+03	4.8853896449E+03	9.3827000000E-01	0.000E+00	0.0
	51	2	1	2	0	0	-1.2040892469E+02	-5.8282535915E+00	-1.4535930482E+03	1.7888133014E+03	1.0355616832E+03	0.000E+00	0.0
	1000022	2	5	5	0	0	1.2040892469E+02	5.8282535915E+00	-1.2101759289E+03	1.4856339894E+03	8.5325863241E+02	0.000E+00	0.0
	14	1	6	6	0	0	2.9798983620E+02	1.4341567190E+02	-7.1459361853E+02	8.5184214328E+02	3.2500000000E+02	0.000E+00	0.0
	-14	1	6	6	0	0	-1.7758091151E+02	-1.3758741831E+02	-4.9558231040E+02	6.3379184611E+02	3.2500000000E+02	0.000E+00	0.0
	25	2	5	5	0	0	-1.2040892469E+02	-5.8282535915E+00	-2.3839003100E+02	2.9502076095E+02	1.2520049851E+02	0.000E+00	0.0
	-5	1	9	9	0	501	-1.1535809735E+02	-2.8756220458E+00	-2.5334964195E+02	2.7842283187E+02	4.1800000000E+00	0.000E+00	0.0
	5	1	9	9	501	0	-5.0508273339E+00	-2.9526315457E+00	1.4959610955E+01	1.6597929080E+01	4.1800000000E+00	0.000E+00	0.0
</event>
<event>
    11  -1  1.0000000E+00  1.0000000E+00  -1.0000000E+00  -1.0000000E+00
	2212	-1	0	0	0	0	0.0000000000E+00	0.0000000000E+00	6.5000000000E+03	6.5000000000E+03	9.3827000000E-01	0.000E+00	0.0
	2212	-1	0	0	0	0	0.0000000000E+00	0.0000000000E+00	-6.5000000000E+03	6.5000000000E+03	9.3827000000E-01	0.000E+00	0.0
	2212	1	0	0	0	0	0.0000000000E+00	0.0000000000E+00	5.1751243160E+03	5.1751243160E+03	9.3827000000E-01	0.000E+00	0.0
	2212	1	0	0	0	0	0.0000000000E+00	0.0000000000E+00	-6.2927212403E+03	6.2927212403E+03	9.3827000000E-01	0.000E+00	0.0
	51	2	1	2	0	0	2.4579726162E+01	8.0767852433E+01	9.7947815317E+02	1.4370036240E+03	1.0480812726E+03	0.000E+00	0.0
	1000022	2	5	5	0	0	-2.4579726162E+01	-8.0767852433E+01	1.0710563031E+03	1.3741489577E+03	8.5673574957E+02	0.000E+00	0.0
	14	1	6	6	0	0	2.0292087610E+02	1.8565448870E+01	2.5286094199E+02	4.5944010909E+02	3.2500000000E+02	0.000E+00	0.0
	-14	1	6	6	0	0	-2.2750060227E+02	-9.9333301303E+01	8.1819536114E+02	9.1470884863E+02	3.2500000000E+02	0.000E+00	0.0
	25	2	5	5	0	0	2.4579726162E+01	8.0767852433E+01	4.6540621171E+01	1.5800548595E+02	1.2518823925E+02	0.000E+00	0.0
	-5	1	9	9	0	501	3.5896099495E+01	6.4273570637E+01	8.6173164660E+01	1.1341476336E+02	4.1800000000E+00	0.000E+00	0.0
	5	1	9	9	501	0	-1.1316373333E+01	1.6494281795E+01	-3.9632543489E+01	4.4590722586E+01	4.1800000000E+00	0.000E+00	0.0
</event>
<event>
    11  -1  1.0000000E+00  1.0000000E+00  -1.0000000E+00  -1.0000000E+00
	2212	-1	0	0	0	0	0.0000000000E+00	0.0000000000E+00	6.5000000000E+03	6.5000000000E+03	9.3827000000E-01	0.000E+00	0.0
	2212	-1	0	0	0	0	0.0000000000E+00	0.0000000000E+00	-6.5000000000E+03	6.5000000000E+03	9.3827000000E-01	0.000E+00	0.0
	2212	1	0	0	0	0	0.0000000000E+00	0.0000000000E+00	6.3218243739E+03	6.3218243739E+03	9.3827000000E-01	0.000E+00	0.0
	2212	1	0	0	0	0	0.0000000000E+00	0.0000000000E+00	-4.9529184124E+03	4.9529184124E+03	9.3827000000E-01	0.000E+00	0.0
	51	2	1	2	0	0	1.3278654074E+02	-1.6953706935E+01	-1.3072808369E+03	1.6821152762E+03	1.0500518664E+03	0.000E+00	0.0
	1000022	2	5	5	0	0	-1.3278654074E+02	1.6953706935E+01	-1.1968292580E+03	1.4738604642E+03	8.4967329098E+02	0.000E+00	0.0
	14	1	6	6	0	0	1.3550277019E+02	5.0071463029E+01	-2.4355314958E+02	4.3105833574E+02	3.2500000000E+02	0.000E+00	0.0
	-14	1	6	6	0	0	-2.6828931094E+02	-3.3117756094E+01	-9.5327610845E+02	1.0428021284E+03	3.2500000000E+02	0.000E+00	0.0
	25	2	5	5	0	0	1.3278654074E+02	-1.6953706935E+01	-1.7207670349E+02	2.5139674958E+02	1.2518083014E+02	0.000E+00	0.0
	-5	1	9	9	0	501	6.5281610965E+01	1.6956211758E+01	-4.7309985340E+00	6.7742575937E+01	4.1800000000E+00	0.000E+00	0.0
	5	1	9	9	501	0	6.7504929779E+01	-3.3909918692E+01	-1.6734570495E+02	1.8365417364E+02	4.1800000000E+00	0.000E+00	0.0
</event>
<event>
    11  -1  1.0000000E+00  1.0000000E+00  -1.0000000E+00  -1.0000000E+00
	2212	-1	0	0	0	0	0.0000000000E+00	0.0000000000E+00	6.5000000000E+03	6.5000000000E+03	9.3827000000E-01	0.000E+00	0.0
	2212	-1	0	0	0	0	0.0000000000E+00	0.0000000000E+00	-6.5000000000E+03	6.5000000000E+03	9.3827000000E-01	0.000E+00	0.0
	2212	1	0	0	0	0	0.0000000000E+00	0.0000000000E+00	5.8303533688E+03	5.8303533688E+03	9.3827000000E-01	0.000E+00	0.0
	2212	1	0	0	0	0	0.0000000000E+00	0.0000000000E+00	-6.0906671181E+03	6.0906671181E+03	9.3827000000E-01	0.000E+00	0.0
	51	2	1	2	0	0	9.2872363096E+00	3.6968331776E+01	1.2939044047E+02	1.0557596024E+03	1.0471072255E+03	0.000E+00	0.0
	1000022	2	5	5	0	0	-9.2872363096E+00	-3.6968331776E+01	3.4767750037E+02	9.2164856716E+02	8.5270365707E+02	0.000E+00	0.0
	14	1	6	6	0	0	-9.9959801709E+01	2.3361866681E+02	2.3466781699E+02	4.7461945574E+02	3.2500000000E+02	0.000E+00	0.0
	-14	1	6	6	0	0	9.0672565399E+01	-2.7058699858E+02	1.1300968338E+02	4.4702911142E+02	3.2500000000E+02	0.000E+00	0.0
	25	2	5	5	0	0	9.2872363096E+00	3.6968331776E+01	-8.7363751054E+01	1.5733094600E+02	1.2517064855E+02	0.000E+00	0.0
	-5	1	9	9	0	501	-1.7174699448E+01	7.8946189648E+01	-5.7672526071E+01	9.9353227549E+01	4.1800000000E+00	0.000E+00	0.0
	5	1	9	9	501	0	2.6461935758E+01	-4.1977857872E+01	-2.9691224983E+01	5.7977718449E+01	4.1800000000E+00	0.000E+00	0.0
</event>
<event>
    11  -1  1.0000000E+00  1.0000000E+00  -1.0000000E+00  -1.0000000E+00
	2212	-1	0	0	0	0	0.0000000000E+00	0.0000000000E+00	6.5000000000E+03	6.5000000000E+03	9.3827000000E-01	0.000E+00	0.0
	2212	-1	0	0	0	0	0.0000000000E+00	0.0000000000E+00	-6.5000000000E+03	6.5000000000E+03	9.3827000000E-01	0.000E+00	0.0
	2212	1	0	0	0	0	0.0000000000E+00	0.0000000000E+00	6.1294617692E+03	6.1294617692E+03	9.3827000000E-01	0.000E+00	0.0
	2212	1	0	0	0	0	0.0000000000E+00	0.0000000000E+00	-5.7551671902E+03	5.7551671902E+03	9.3827000000E-01	0.000E+00	0.0
	51	2	1	2	0	0	-1.3813058180E+02	-4.6861824293E+00	-3.6962700612E+02	1.1223556780E+03	1.0506931648E+03	0.000E+00	0.0
	1000022	2	5	5	0	0	1.3813058180E+02	4.6861824293E+00	-3.1571424871E+02	9.1991218113E+02	8.5291319384E+02	0.000E+00	0.0
	14	1	6	6	0	0	3.1439832589E+02	-1.1965313592E+02	-2.2681149010E+02	5.1983808277E+02	3.2500000000E+02	0.000E+00	0.0
	-14	1	6	6	0	0	-1.7626774409E+02	1.2433931834E+02	-8.8902758610E+01	4.0007409836E+02	3.2500000000E+02	0.000E+00	0.0
	25	2	5	5	0	0	-1.3813058180E+02	-4.6861824293E+00	-5.8580330315E+01	1.9545885953E+02	1.2518183868E+02	0.000E+00	0.0
	-5	1	9	9	0	501	-7.2864074069E+01	-2.4476103656E+01	3.0834934086E+01	8.2924776154E+01	4.1800000000E+00	0.000E+00	0.0
	5	1	9	9	501	0	-6.5266507728E+01	1.9789921226E+01	-8.9415264401E+01	1.1253408338E+02	4.1800000000E+00	0.000E+00	0.0
</event>
<event>
    11  -1  1.0000000E+00  1.0000000E+00  -1.0000000E+00  -1.0000000E+00
	2212	-1	0	0	0	0	0.0000000000E+00	0.0000000000E+00	6.5000000000E+03	6.5000000000E+03	9.3827000000E-01	0.000E+00	0.0
	2212	-1	0	0	0	0	0.0000000000E+00	0.0000000000E+00	-6.5000000000E+03	6.5000000000E+03	9.3827000000E-01	0.000E+00	0.0
	2212	1	0	0	0	0	0.0000000000E+00	0.0000000000E+00	6.2906481284E+03	6.2906481284E+03	9.3827000000E-01	0.000E+00	0.0
	2212	1	0	0	0	0	0.0000000000E+00	0.0000000000E+00	-5.1752738613E+03	5.1752738613E+03	9.3827000000E-01	0.000E+00	0.0
	51	2	1	2	0	0	1.8203697803E+01	1.8627230296E+01	-8.5202926500E+02	1.3549788939E+03	1.0532500113E+03	0.000E+00	0.0
	1000022	2	5	5	0	0	-1.8203697803E+01	-1.8627230296E+01	-1.1518312101E+03	1.4011168682E+03	7.9732991505E+02	0.000E+00	0.0
	14	1	6	6	0	0	7.1368270934E+01	3.3176601611E+01	-1.9911072345E+02	3.8918401455E+02	3.2500000000E+02	0.000E+00	0.0
	-14	1	6	6	0	0	-8.9571968737E+01	-5.1803831907E+01	-9.5272048664E+02	1.0119328536E+03	3.2500000000E+02	0.000E+00	0.0
	25	2	5	5	0	0	1.8203697803E+01	1.8627230296E+01	3.6456942991E+01	1.3296114220E+02	1.2518469683E+02	0.000E+00	0.0
	-5	1	9	9	0	501	-1.5188903045E+01	6.7044829407E+01	2.1080645094E+01	7.2024842405E+01	4.1800000000E+00	0.000E+00	0.0
	5	1	9	9	501	0	3.3392600848E+01	-4.8417599111E+01	1.5376297898E+01	6.0936299790E+01	4.1800000000E+00	0.000E+00	0.0
</event>
<event>
    11  -1  1.0000000E+00  1.0000000E+00  -1.0000000E+00  -1.0000000E+00
	2212	-1	0	0	0	0	0.0000000000E+00	0.0000000000E+00	6.5000000000E+03	6.5000000000E+03	9.3827000000E-01	0.000E+00	0.0
	2212	-1	0	0	0	0	0.0000000000E+00	0.0000000000E+00	-6.5000000000E+03	6.5000000000E+03	9.3827000000E-01	0.000E+00	0.0
	2212	1	0	0	0	0	0.0000000000E+00	0.0000000000E+00	5.2651747785E+03	5.2651747785E+03	9.3827000000E-01	0.000E+00	0.0
	2212	1	0	0	0	0	0.0000000000E+00	0.0000000000E+00	-6.2810142361E+03	6.2810142361E+03	9.3827000000E-01	0.000E+00	0.0
	51	2	1	2	0	0	5.7950058119E+01	2.4288614660E+01	1.2240405501E+03	1.6074389544E+03	1.0400175853E+03	0.000E+00	0.0
	1000022	2	5	5	0	0	-5.7950058119E+01	-2.4288614660E+01	6.2466310453E+02	1.0383193511E+03	8.2701567988E+02	0.000E+00	0.0
	14	1	6	6	0	0	-8.6241253837E+01	2.3703821618E+02	3.0759333664E+02	5.1367628964E+02	3.2500000000E+02	0.000E+00	0.0
	-14	1	6	6	0	0	2.8291195717E+01	-2.6132683084E+02	3.1706976789E+02	5.2464306150E+02	3.2500000000E+02	0.000E+00	0.0
	25	2	5	5	0	0	5.7950058119E+01	2.4288614660E+01	3.9117635299E+02	4.1549163425E+02	1.2516474327E+02	0.000E+00	0.0
	-5	1	9	9	0	501	-3.9028158968E+01	1.5451384838E+01	1.3298543978E+02	1.3951538295E+02	4.1800000000E+00	0.000E+00	0.0
	5	1	9	9	501	0	9.6978217088E+01	8.8372298218E+00	2.5819091321E+02	2.7597625131E+02	4.1800000000E+00	0.000E+00	0.0
</event>
<event>
    11  -1  1.0000000E+00  1.0000000E+00  -1.0000000E+00  -1.0000000E+00
	2212	-1	0	0	0	0	0.0000000000E+00	0.0000000000E+00	6.5000000000E+03	6.5000000000E+03	9.3827000000E-01	0.000E+00	0.0
	2212	-1	0	0	0	0	0.0000000000E+00	0.0000000000E+00	-6.5000000000E+03	6.5000000000E+03	9.3827000000E-01	0.000E+00	0.0
	2212	1	0	0	0	0	0.0000000000E+00	0.0000000000E+00	6.2094116164E+03	6.2094116164E+03	9.3827000000E-01	0.000E+00	0.0
	2212	1	0	0	0	0	0.0000000000E+00	0.0000000000E+00	-5.6561999274E+03	5.6561999274E+03	9.3827000000E-01	0.000E+00	0.0
	51	2	1	2	0	0	-3.6479020004E+01	1.0372807166E+01	-6.3209745317E+02	1.1754911744E+03	9.9035044142E+02	0.000E+00	0.0
	1000022	2	5	5	0	0	3.6479020004E+01	-1.0372807166E+01	-3.9381930617E+02	9.2820285811E+02	8.3965980365E+02	0.000E+00	0.0
	14	1	6	6	0	0	1.2092487365E+02	-2.5011328853E+02	-1.8668201632E+02	4.6653473331E+02	3.2500000000E+02	0.000E+00	0.0
	-14	1	6	6	0	0	-8.4445853647E+01	2.3974048137E+02	-2.0713728985E+02	4.6166812480E+02	3.2500000000E+02	0.000E+00	0.0
	25	2	5	5	0	0	-3.6479020004E+01	1.0372807166E+01	-1.5939238282E+02	2.0618559814E+02	1.2517290102E+02	0.000E+00	0.0
	-5	1	9	9	0	501	-1.8652938150E+01	5.8736832895E+01	-3.3910437493E+01	7.0465153169E+01	4.1800000000E+00	0.000E+00	0.0
	5	1	9	9	501	0	-1.7826081854E+01	-4.8364025729E+01	-1.2548194533E+02	1.3572044497E+02	4.1800000000E+00	0.000E+00	0.0
</event>
<event>
    11  -1  1.0000000E+00  1.0000000E+00  -1.0000000E+00  -1.0000000E+00
	2212	-1	0	0	0	0	0.0000000000E+00	0.0000000000E+00	6.5000000000E+03	6.5000000000E+03	9.3827000000E-01	0.000E+00	0.0
	2212	-1	0	0	0	0	0.0000000000E+00	0.0000000000E+00	-6.5000000000E+03	6.5000000000E+03	9.3827000000E-01	0.000E+00	0.0
	2212	1	0	0	0	0	0.0000000000E+00	0.0000000000E+00	5.6082082561E+03	5.6082082561E+03	9.3827000000E-01	0.000E+00	0.0
	2212	1	0	0	0	0	0.0000000000E+00	0.0000000000E+00	-6.1929015688E+03	6.1929015688E+03	9.3827000000E-01	0.000E+00	0.0
	51	2	1	2	0	0	-5.8441663370E+01	1.1450142105E+02	5.2065838565E+02	1.1760452968E+03	1.0466476877E+03	0.000E+00	0.0
	1000022	2	5	5	0	0	5.8441663370E+01	-1.1450142105E+02	5.4829844401E+02	1.0158077875E+03	8.4540420750E+02	0.000E+00	0.0
	14	1	6	6	0	0	2.3761516931E+01	-6.7287514443E+01	-4.6013214944E+01	3.3590837328E+02	3.2500000000E+02	0.000E+00	0.0
	-14	1	6	6	0	0	3.4680146439E+01	-4.7213906611E+01	5.9431165896E+02	6.7989941426E+02	3.2500000000E+02	0.000E+00	0.0
	25	2	5	5	0	0	-5.8441663370E+01	1.1450142105E+02	3.6394868630E+01	1.8308238759E+02	1.2517416165E+02	0.000E+00	0.0
	-5	1	9	9	0	501	-9.0771870307E+01	1.1099620289E+02	1.5685365146E+01	1.4430243440E+02	4.1800000000E+00	0.000E+00	0.0
	5	1	9	9	501	0	3.2330206937E+01	3.5052181644E+00	2.0709503484E+01	3.8779953191E+01	4.1800000000E+00	0.000E+00	0.0
</event>
<event>
    11  -1  1.0000000E+00  1.0000000E+00  -1.0000000E+00  -1.0000000E+00
	2212	-1	0	0	0	0	0.0000000000E+00	0.0000000000E+00	6.5000000000E+03	6.5000000000E+03	9.3827000000E-01	0.000E+00	0.0
	2212	-1	0	0	0	0	0.0000000000E+00	0.0000000000E+00	-6.5000000000E+03	6.5000000000E+03	9.3827000000E-01	0.000E+00	0.0
	2212	1	0	0	0	0	0.0000000000E+00	0.0000000000E+00	6.0170992695E+03	6.0170992695E+03	9.3827000000E-01	0.000E+00	0.0
	2212	1	0	0	0	0	0.0000000000E+00	0.0000000000E+00	-5.9171986066E+03	5.9171986066E+03	9.3827000000E-01	0.000E+00	0.0
	51	2	1	2	0	0	1.3183568639E+02	-1.7086620340E+01	1.2421385815E+01	1.0693772797E+03	1.0610093659E+03	0.000E+00	0.0
	1000022	2	5	5	0	0	-1.3183568639E+02	1.7086620340E+01	-1.9333923609E+02	8.6058526223E+02	8.2798208468E+02	0.000E+00	0.0
	14	1	6	6	0	0	-2.9374575023E+02	-4.3138652898E+01	9.5713850277E+00	4.4030003471E+02	3.2500000000E+02	0.000E+00	0.0
	-14	1	6	6	0	0	1.6191006384E+02	6.0225273237E+01	-2.0291062112E+02	4.2028522752E+02	3.2500000000E+02	0.000E+00	0.0
	25	2	5	5	0	0	1.3183568639E+02	-1.7086620340E+01	9.3438573191E+01	2.0511686175E+02	1.2517810996E+02	0.000E+00	0.0
	-5	1	9	9	0	501	9.0504345666E+01	-6.7876109836E+01	7.8678661282E+01	1.3786227552E+02	4.1800000000E+00	0.000E+00	0.0
	5	1	9	9	501	0	4.1331340725E+01	5.0789489497E+01	1.4759911909E+01	6.7254586230E+01	4.1800000000E+00	0.000E+00	0.0
</event>
<event>
    11  -1  1.0000000E+00  1.0000000E+00  -1.0000000E+00  -1.0000000E+00
	2212	-1	0	0	0	0	0.0000000000E+00	0.0000000000E+00	6.5000000000E+03	6.5000000000E+03	9.3827000000E-01	0.000E+00	0.0
	2212	-1	0	0	0	0	0.0000000000E+00	0.0000000000E+00	-6.5000000000E+03	6.5000000000E+03	9.3827000000E-01	0.000E+00	0.0
	2212	1	0	0	0	0	0.0000000000E+00	0.0000000000E+00	6.0831347281E+03	6.0831347281E+03	9.3827000000E-01	0.000E+00	0.0
	2212	1	0	0	0	0	0.0000000000E+00	0.0000000000E+00	-5.8368508988E+03	5.8368508988E+03	9.3827000000E-01	0.000E+00	0.0
	51	2	1	2	0	0	-2.0818093210E+01	-6.9730075589E+01	-3.7476008509E+02	1.1187118125E+03	1.0515585203E+03	0.000E+00	0.0
	1000022	2	5	5	0	0	2.0818093210E+01	6.9730075589E+01	-7.5588155496E+01	8.5617453831E+02	8.4972089203E+02	0.000E+00	0.0
	14	1	6	6	0	0	2.3786681933E+02	1.8107914711E+02	6.3551857933E+00	4.4162842939E+02	3.2500000000E+02	0.000E+00	0.0
	-14	1	6	6	0	0	-2.1704872612E+02	-1.1134907152E+02	-8.1943341289E+01	4.1454610892E+02	3.2500000000E+02	0.000E+00	0.0
	25	2	5	5	0	0	-2.0818093210E+01	-6.9730075589E+01	-1.7069567372E+02	2.2383983479E+02	1.2518619001E+02	0.000E+00	0.0
	-5	1	9	9	0	501	-5.0879454392E+01	-2.9018310202E+01	-1.6200817268E+02	1.7232208687E+02	4.1800000000E+00	0.000E+00	0.0
	5	1	9	9	501	0	3.0061361182E+01	-4.0711765387E+01	-8.6875010317E+00	5.1517747925E+01	4.1800000000E+00	0.000E+00	0.0
</event>
<event>
    11  -1  1.0000000E+00  1.0000000E+00  -1.0000000E+00  -1.0000000E+00
	2212	-1	0	0	0	0	0.0000000000E+00	0.0000000000E+00	6.5000000000E+03	6.5000000000E+03	9.3827000000E-01	0.000E+00	0.0
	2212	-1	0	0	0	0	0.0000000000E+00	0.0000000000E+00	-6.5000000000E+03	6.5000000000E+03	9.3827000000E-01	0.000E+00	0.0
	2212	1	0	0	0	0	0.0000000000E+00	0.0000000000E+00	6.3044603580E+03	6.3044603580E+03	9.3827000000E-01	0.000E+00	0.0
	2212	1	0	0	0	0	0.0000000000E+00	0.0000000000E+00	-5.1081659907E+03	5.1081659907E+03	9.3827000000E-01	0.000E+00	0.0
	51	2	1	2	0	0	5.0452829699E+01	2.9346746078E+01	-1.1165224124E+03	1.5292690778E+03	1.0433766796E+03	0.000E+00	0.0
	1000022	2	5	5	0	0	-5.0452829699E+01	-2.9346746078E+01	-1.1092079476E+03	1.4240723612E+03	8.9119756472E+02	0.000E+00	0.0
	14	1	6	6	0	0	-1.7560556677E+02	-1.6921517675E+02	-9.1574549476E+02	1.0018412560E+03	3.2500000000E+02	0.000E+00	0.0
	-14	1	6	6	0	0	1.2515273707E+02	1.3986843067E+02	-1.9346245280E+02	4.2223110513E+02	3.2500000000E+02	0.000E+00	0.0
	25	2	5	5	0	0	5.0452829699E+01	2.9346746078E+01	-8.7086419749E+01	1.6330129012E+02	1.2520601950E+02	0.000E+00	0.0
	-5	1	9	9	0	501	3.1525181904E+01	4.0532485890E+01	1.8976765466E+01	5.4902727929E+01	4.1800000000E+00	0.000E+00	0.0
	5	1	9	9	501	0	1.8927647794E+01	-1.1185739812E+01	-1.0606318522E+02	1.0839856219E+02	4.1800000000E+00	0.000E+00	0.0
</event>
<event>
    11  -1  1.0000000E+00  1.0000000E+00  -1.0000000E+00  -1.0000000E+00
	2212	-1	0	0	0	0	0.0000000000E+00	0.0000000000E+00	6.5000000000E+03	6.5000000000E+03	9.3827000000E-01	0.000E+00	0.0
	2212	-1	0	0	0	0	0.0000000000E+00	0.0000000000E+00	-6.5000000000E+03	6.5000000000E+03	9.3827000000E-01	0.000E+00	0.0
	2212	1	0	0	0	0	0.0000000000E+00	0.0000000000E+00	6.3314302137E+03	6.3314302137E+03	9.3827000000E-01	0.000E+00	0.0
	2212	1	0	0	0	0	0.0000000000E+00	0.0000000000E+00	-4.8631029895E+03	4.8631029895E+03	9.3827000000E-01	0.000E+00	0.0
	51	2	1	2	0	0	4.7631272461E+01	-1.0267633122E+02	-1.3106406316E+03	1.6835425594E+03	1.0505834174E+03	0.000E+00	0.0
	1000022	2	5	5	0	0	-4.7631272461E+01	1.0267633122E+02	-1.3666033410E+03	1.6084178564E+03	8.4059035314E+02	0.000E+00	0.0
	14	1	6	6	0	0	-2.1981129080E+02	2.3321085275E+02	-6.8923059479E+02	8.2666082416E+02	3.2500000000E+02	0.000E+00	0.0
	-14	1	6	6	0	0	1.7218001834E+02	-1.3053452153E+02	-6.7737274626E+02	7.8175703220E+02	3.2500000000E+02	0.000E+00	0.0
	25	2	5	5	0	0	4.7631272461E+01	-1.0267633122E+02	-1.0172388321E+02	1.9704894048E+02	1.2517735187E+02	0.000E+00	0.0
	-5	1	9	9	0	501	2.4029207192E+01	2.6082776685E+01	-9.7738181052E+00	3.7023154353E+01	4.1800000000E+00	0.000E+00	0.0
	5	1	9	9	501	0	2.3602065269E+01	-1.2875910791E+02	-9.1950065102E+01	1.6002578613E+02	4.1800000000E+00	0.000E+00	0.0
</event>
<event>
    11  -1  1.0000000E+00  1.0000000E+00  -1.0000000E+00  -1.0000000E+00
	2212	-1	0	0	0	0	0.0000000000E+00	0.0000000000E+00	6.5000000000E+03	6.5000000000E+03	9.3827000000E-01	0.000E+00	0.0
	2212	-1	0	0	0	0	0.0000000000E+00	0.0000000000E+00	-6.5000000000E+03	6.5000000000E+03	9.3827000000E-01	0.000E+00	0.0
	2212	1	0	0	0	0	0.0000000000E+00	0.0000000000E+00	6.3243004675E+03	6.3243004675E+03	9.3827000000E-01	0.000E+00	0.0
	2212	1	0	0	0	0	0.0000000000E+00	0.0000000000E+00	-4.9316326375E+03	4.9316326375E+03	9.3827000000E-01	0.000E+00	0.0
	51	2	1	2	0	0	-1.2141599893E+02	2.2726490353E+01	-1.2977586888E+03	1.6738224524E+03	1.0498788738E+03	0.000E+00	0.0
	1000022	2	5	5	0	0	1.2141599893E+02	-2.2726490353E+01	-1.2513147247E+03	1.5184352114E+03	8.5123358307E+02	0.000E+00	0.0
	14	1	6	6	0	0	-1.1706801096E+02	-1.2305610491E+02	-9.0891442921E+02	9.8010109875E+02	3.2500000000E+02	0.000E+00	0.0
	-14	1	6	6	0	0	2.3848400989E+02	1.0032961456E+02	-3.4240029546E+02	5.3833411267E+02	3.2500000000E+02	0.000E+00	0.0
	25	2	5	5	0	0	-1.2141599893E+02	2.2726490353E+01	-1.4135310532E+02	2.2563168364E+02	1.2518233948E+02	0.000E+00	0.0
	-5	1	9	9	0	501	1.8252153067E+01	-1.9588765347E+01	-8.9502431702E+00	2.8538396455E+01	4.1800000000E+00	0.000E+00	0.0
	5	1	9	9	501	0	-1.3966815200E+02	4.2315255700E+01	-1.3240286215E+02	1.9709328718E+02	4.1800000000E+00	0.000E+00	0.0
</event>
<event>
    11  -1  1.0000000E+00  1.0000000E+00  -1.0000000E+00  -1.0000000E+00
	2212	-1	0	0	0	0	0.0000000000E+00	0.0000000000E+00	6.5000000000E+03	6.5000000000E+03	9.3827000000E-01	0.000E+00	0.0
	2212	-1	0	0	0	0	0.0000000000E+00	0.0000000000E+00	-6.5000000000E+03	6.5000000000E+03	9.3827000000E-01	0.000E+00	0.0
	2212	1	0	0	0	0	0.0000000000E+00	0.0000000000E+00	5.2013436337E+03	5.2013436337E+03	9.3827000000E-01	0.000E+00	0.0
	2212	1	0	0	0	0	0.0000000000E+00	0.0000000000E+00	-6.2938495656E+03	6.2938495656E+03	9.3827000000E-01	0.000E+00	0.0
	51	2	1	2	0	0	7.6261082518E+01	3.8311853387E+01	9.8482481441E+02	1.4310966991E+03	1.0348305640E+03	0.000E+00	0.0
	1000022	2	5	5	0	0	-7.6261082518E+01	-3.8311853387E+01	1.0267635955E+03	1.3396451625E+03	8.5622551325E+02	0.000E+00	0.0
	14	1	6	6	0	0	1.6776868492E+02	1.7538666710E+01	7.7803667111E+02	8.5989534134E+02	3.2500000000E+02	0.000E+00	0.0
	-14	1	6	6	0	0	-2.4402976744E+02	-5.5850520097E+01	2.4872692442E+02	4.7974982118E+02	3.2500000000E+02	0.000E+00	0.0
	25	2	5	5	0	0	7.6261082518E+01	3.8311853387E+01	6.5742336327E+01	1.6516163816E+02	1.2519089870E+02	0.000E+00	0.0
	-5	1	9	9	0	501	2.3838950454E+01	4.0262988172E+01	-3.0120445774E+01	5.5804277873E+01	4.1800000000E+00	0.000E+00	0.0
	5	1	9	9	501	0	5.2422132063E+01	-1.9511347847E+00	9.5862782101E+01	1.0935736029E+02	4.1800000000E+00	0.000E+00	0.0
</event>
<event>
    11  -1  1.0000000E+00  1.0000000E+00  -1.0000000E+00  -1.0000000E+00
	2212	-1	0	0	0	0	0.0000000000E+00	0.0000000000E+00	6.5000000000E+03	6.5000000000E+03	9.3827000000E-01	0.000E+00	0.0
	2212	-1	0	0	0	0	0.0000000000E+00	0.0000000000E+00	-6.5000000000E+03	6.5000000000E+03	9.3827000000E-01	0.000E+00	0.0
	2212	1	0	0	0	0	0.0000000000E+00	0.0000000000E+00	6.2652361093E+03	6.2652361093E+03	9.3827000000E-01	0.000E+00	0.0
	2212	1	0	0	0	0	0.0000000000E+00	0.0000000000E+00	-5.3302918969E+03	5.3302918969E+03	9.3827000000E-01	0.000E+00	0.0
	51	2	1	2	0	0	1.2091187981E+02	-4.9013882802E-01	-8.3461570822E+02	1.3452227341E+03	1.0480557718E+03	0.000E+00	0.0
	1000022	2	5	5	0	0	-1.2091187981E+02	4.9013882802E-01	-8.7282431575E+02	1.2196914745E+03	8.4332975989E+02	0.000E+00	0.0
	14	1	6	6	0	0	1.0007111185E+02	1.0322954636E+01	-1.0328503922E+02	3.5554688881E+02	3.2500000000E+02	0.000E+00	0.0
	-14	1	6	6	0	0	-2.2098299166E+02	-9.8328158080E+00	-7.6953927653E+02	8.6414458570E+02	3.2500000000E+02	0.000E+00	0.0
	25	2	5	5	0	0	1.2091187981E+02	-4.9013882802E-01	-6.2119896688E+01	1.8478051926E+02	1.2516004082E+02	0.000E+00	0.0
	-5	1	9	9	0	501	-1.6176101573E+01	-7.1924807130E+00	-4.2296060963E+01	4.6041581357E+01	4.1800000000E+00	0.000E+00	0.0
	5	1	9	9	501	0	1.3708798138E+02	6.7023418850E+00	-1.9823835725E+01	1.3873893790E+02	4.1800000000E+00	0.000E+00	0.0
</event>
<event>
    11  -1  1.0000000E+00  1.0000000E+00  -1.0000000E+00  -1.0000000E+00
	2212	-1	0	0	0	0	0.0000000000E+00	0.0000000000E+00	6.5000000000E+03	6.5000000000E+03	9.3827000000E-01	0.000E+00	0.0
	2212	-1	0	0	0	0	0.0000000000E+00	0.0000000000E+00	-6.5000000000E+03	6.5000000000E+03	9.3827000000E-01	0.000E+00	0.0
	2212	1	0	0	0	0	0.0000000000E+00	0.0000000000E+00	6.1757385034E+03	6.1757385034E+03	9.3827000000E-01	0.000E+00	0.0
	2212	1	0	0	0	0	0.0000000000E+00	0.0000000000E+00	-5.6583017606E+03	5.6583017606E+03	9.3827000000E-01	0.000E+00	0.0
	51	2	1	2	0	0	5.0175382706E+01	5.5736281444E+00	-3.8567908845E+02	1.1149073131E+03	1.0448546900E+03	0.000E+00	0.0
	1000022	2	5	5	0	0	-5.0175382706E+01	-5.5736281444E+00	-5.6328016203E+02	1.0234183713E+03	8.5296658050E+02	0.000E+00	0.0
	14	1	6	6	0	0	-2.4992880634E+02	-1.2778450750E+02	-1.6943307598E+02	4.6165555973E+02	3.2500000000E+02	0.000E+00	0.0
	-14	1	6	6	0	0	1.9975342363E+02	1.2221087936E+02	-3.9384708605E+02	5.6176281158E+02	3.2500000000E+02	0.000E+00	0.0
	25	2	5	5	0	0	5.0175382706E+01	5.5736281444E+00	4.5843419247E+01	1.4254136467E+02	1.2517103177E+02	0.000E+00	0.0
	-5	1	9	9	0	501	-2.1841100614E+01	9.3259108255E+00	-2.9541976578E+01	3.8134067039E+01	4.1800000000E+00	0.000E+00	0.0
	5	1	9	9	501	0	7.2016483320E+01	-3.7522826812E+00	7.5385395825E+01	1.0440729763E+02	4.1800000000E+00	0.000E+00	0.0
</event>
<event>
    11  -1  1.0000000E+00  1.0000000E+00  -1.0000000E+00  -1.0000000E+00
	2212	-1	0	0	0	0	0.0000000000E+00	0.0000000000E+00	6.5000000000E+03	6.5000000000E+03	9.3827000000E-01	0.000E+00	0.0
	2212	-1	0	0	0	0	0.0000000000E+00	0.0000000000E+00	-6.5000000000E+03	6.5000000000E+03	9.3827000000E-01	0.000E+00	0.0
	2212	1	0	0	0	0	0.0000000000E+00	0.0000000000E+00	4.9473028011E+03	4.9473028011E+03	9.3827000000E-01	0.000E+00	0.0
	2212	1	0	0	0	0	0.0000000000E+00	0.0000000000E+00	-6.3216143078E+03	6.3216143078E+03	9.3827000000E-01	0.000E+00	0.0
	51	2	1	2	0	0	-2.3030944438E+01	-1.1769028674E+02	1.3759121804E+03	1.7364998170E+03	1.0525758207E+03	0.000E+00	0.0
	1000022	2	5	5	0	0	2.3030944438E+01	1.1769028674E+02	1.1552210696E+03	1.4517158405E+03	8.7095449597E+02	0.000E+00	0.0
	14	1	6	6	0	0	-1.5318816959E+02	-5.5651944021E+01	8.9881296171E+02	9.6956355867E+02	3.2500000000E+02	0.000E+00	0.0
	-14	1	6	6	0	0	1.7621911402E+02	1.7334223076E+02	2.5640810786E+02	4.8215228185E+02	3.2500000000E+02	0.000E+00	0.0
	25	2	5	5	0	0	-2.3030944438E+01	-1.1769028674E+02	2.1909043718E+02	2.7936705059E+02	1.2515550845E+02	0.000E+00	0.0
	-5	1	9	9	0	501	-6.9979030763E+01	-7.0844841917E+01	9.0519342440E+01	1.3463758810E+02	4.1800000000E+00	0.000E+00	0.0
	5	1	9	9	501	0	4.6948086325E+01	-4.6845444821E+01	1.2857109474E+02	1.4472946249E+02	4.1800000000E+00	0.000E+00	0.0
</event>
<event>
    11  -1  1.0000000E+00  1.0000000E+00  -1.0000000E+00  -1.0000000E+00
	2212	-1	0	0	0	0	0.0000000000E+00	0.0000000000E+00	6.5000000000E+03	6.5000000000E+03	9.3827000000E-01	0.000E+00	0.0
	2212	-1	0	0	0	0	0.0000000000E+00	0.0000000000E+00	-6.5000000000E+03	6.5000000000E+03	9.3827000000E-01	0.000E+00	0.0
	2212	1	0	0	0	0	0.0000000000E+00	0.0000000000E+00	6.2921917166E+03	6.2921917166E+03	9.3827000000E-01	0.000E+00	0.0
	2212	1	0	0	0	0	0.0000000000E+00	0.0000000000E+00	-5.1620200600E+03	5.1620200600E+03	9.3827000000E-01	0.000E+00	0.0
	51	2	1	2	0	0	8.5733966179E+01	3.3262118156E+01	-1.3678883978E+03	1.7296671959E+03	1.0545962537E+03	0.000E+00	0.0
	1000022	2	5	5	0	0	-8.5733966179E+01	-3.3262118156E+01	-6.7584175256E+02	1.0656373756E+03	8.1875775432E+02	0.000E+00	0.0
	14	1	6	6	0	0	-1.7529828369E+02	-1.5840524865E+02	-1.5061163830E+02	4.2910438900E+02	3.2500000000E+02	0.000E+00	0.0
	-14	1	6	6	0	0	8.9564317514E+01	1.2514313049E+02	-5.2523011426E+02	6.3653298658E+02	3.2500000000E+02	0.000E+00	0.0
	25	2	5	5	0	0	8.5733966179E+01	3.3262118156E+01	-4.5432990404E+02	4.8015084786E+02	1.2518982998E+02	0.000E+00	0.0
	-5	1	9	9	0	501	1.1544801190E+02	1.3304853732E+01	-3.0197197906E+02	3.2358895395E+02	4.1800000000E+00	0.000E+00	0.0
	5	1	9	9	501	0	-2.9714045725E+01	1.9957264424E+01	-1.5235792499E+02	1.5656189391E+02	4.1800000000E+00	0.000E+00	0.0
</event>
<event>
    11  -1  1.0000000E+00  1.0000000E+00  -1.0000000E+00  -1.0000000E+00
	2212	-1	0	0	0	0	0.0000000000E+00	0.0000000000E+00	6.5000000000E+03	6.5000000000E+03	9.3827000000E-01	0.000E+00	0.0
	2212	-1	0	0	0	0	0.0000000000E+00	0.0000000000E+00	-6.5000000000E+03	6.5000000000E+03	9.3827000000E-01	0.000E+00	0.0
	2212	1	0	0	0	0	0.0000000000E+00	0.0000000000E+00	6.3217238971E+03	6.3217238971E+03	9.3827000000E-01	0.000E+00	0.0
	2212	1	0	0	0	0	0.0000000000E+00	0.0000000000E+00	-4.9715104291E+03	4.9715104291E+03	9.3827000000E-01	0.000E+00	0.0
	51	2	1	2	0	0	-8.8826712873E+00	1.5050098798E+01	-1.1411354211E+03	1.5467605220E+03	1.0440175554E+03	0.000E+00	0.0
	1000022	2	5	5	0	0	8.8826712873E+00	-1.5050098798E+01	-1.3315302910E+03	1.5788644699E+03	8.4825390717E+02	0.000E+00	0.0
	14	1	6	6	0	0	-2.9556506702E+01	-7.5069797662E+01	-1.1542818892E+03	1.2018738458E+03	3.2500000000E+02	0.000E+00	0.0
	-14	1	6	6	0	0	3.8439177989E+01	6.0019698864E+01	-1.7724840180E+02	3.7699062402E+02	3.2500000000E+02	0.000E+00	0.0
	25	2	5	5	0	0	-8.8826712873E+00	1.5050098798E+01	-1.8683177080E+01	1.2790120394E+02	1.2531659723E+02	0.000E+00	0.0
	-5	1	9	9	0	501	-1.6629834924E+01	3.6775251246E+01	4.4671631609E+01	6.0348965065E+01	4.1800000000E+00	0.000E+00	0.0
	5	1	9	9	501	0	7.7471636372E+00	-2.1725152448E+01	-6.3354808689E+01	6.7552238877E+01	4.1800000000E+00	0.000E+00	0.0
</event>
<event>
    11  -1  1.0000000E+00  1.0000000E+00  -1.0000000E+00  -1.0000000E+00
	2212	-1	0	0	0	0	0.0000000000E+00	0.0000000000E+00	6.5000000000E+03	6.5000000000E+03	9.3827000000E-01	0.000E+00	0.0
	2212	-1	0	0	0	0	0.0000000000E+00	0.0000000000E+00	-6.5000000000E+03	6.5000000000E+03	9.3827000000E-01	0.000E+00	0.0
	2212	1	0	0	0	0	0.0000000000E+00	0.0000000000E+00	6.2454098804E+03	6.2454098804E+03	9.3827000000E-01	0.000E+00	0.0
	2212	1	0	0	0	0	0.0000000000E+00	0.0000000000E+00	-5.3686039789E+03	5.3686039789E+03	9.3827000000E-01	0.000E+00	0.0
	51	2	1	2	0	0	5.2636413069E+01	-1.4561436233E+02	-7.8251206067E+02	1.3373362527E+03	1.0733913514E+03	0.000E+00	0.0
	1000022	2	5	5	0	0	-5.2636413069E+01	1.4561436233E+02	-8.0680399586E+02	1.1749301721E+03	8.3997267049E+02	0.000E+00	0.0
	14	1	6	6	0	0	-1.8446268759E+02	3.1294913491E+01	-1.1725171357E+02	3.9291070113E+02	3.2500000000E+02	0.000E+00	0.0
	-14	1	6	6	0	0	1.3182627452E+02	1.1431944884E+02	-6.8955228228E+02	7.8201947101E+02	3.2500000000E+02	0.000E+00	0.0
	25	2	5	5	0	0	5.2636413069E+01	-1.4561436233E+02	-7.0001905671E+01	2.1105596854E+02	1.2518075157E+02	0.000E+00	0.0
	-5	1	9	9	0	501	3.9859650210E+01	9.9216139118E+00	-2.6246543592E+01	4.8924263796E+01	4.1800000000E+00	0.000E+00	0.0
	5	1	9	9	501	0	1.2776762859E+01	-1.5553597624E+02	-4.3755362079E+01	1.6213170475E+02	4.1800000000E+00	0.000E+00	0.0
</event>
<event>
    11  -1  1.0000000E+00  1.0000000E+00  -1.0000000E+00  -1.0000000E+00
	2212	-1	0	0	0	0	0.0000000000E+00	0.0000000000E+00	6.5000000000E+03	6.5000000000E+03	9.3827000000E-01	0.000E+00	0.0
	2212	-1	0	0	0	0	0.0000000000E+00	0.0000000000E+00	-6.5000000000E+03	6.5000000000E+03	9.3827000000E-01	0.000E+00	0.0
	2212	1	0	0	0	0	0.0000000000E+00	0.0000000000E+00	6.1322997024E+03	6.1322997024E+03	9.3827000000E-01	0.000E+00	0.0
	2212	1	0	0	0	0	0.0000000000E+00	0.0000000000E+00	-5.7845087459E+03	5.7845087459E+03	9.3827000000E-01	0.000E+00	0.0
	51	2	1	2	0	0	-5.1162862672E+01	6.2955843658E+01	-4.3660803176E+02	1.1178340837E+03	1.0258388706E+03	0.000E+00	0.0
	1000022	2	5	5	0	0	5.1162862672E+01	-6.2955843658E+01	-2.0345119836E+02	8.7562416401E+02	8.4778783296E+02	0.000E+00	0.0
	14	1	6	6	0	0	2.4430363473E+02	3.1304215524E+01	-2.5746940212E+02	4.8226518938E+02	3.2500000000E+02	0.000E+00	0.0
	-14	1	6	6	0	0	-1.9314077206E+02	-9.4260059181E+01	5.4018203767E+01	3.9335897464E+02	3.2500000000E+02	0.000E+00	0.0
	25	2	5	5	0	0	-5.1162862672E+01	6.2955843658E+01	-1.4433975814E+02	2.0756738776E+02	1.2517658692E+02	0.000E+00	0.0
	-5	1	9	9	0	501	-1.1092627613E+01	-3.8349011660E+01	-3.9516866456E+01	5.6327153462E+01	4.1800000000E+00	0.000E+00	0.0
	5	1	9	9	501	0	-4.0070235059E+01	1.0130485532E+02	-1.0482289169E+02	1.5124023430E+02	4.1800000000E+00	0.000E+00	0.0
</event>
<event>
    11  -1  1.0000000E+00  1.0000000E+00  -1.0000000E+00  -1.0000000E+00
	2212	-1	0	0	0	0	0.0000000000E+00	0.0000000000E+00	6.5000000000E+03	6.5000000000E+03	9.3827000000E-01	0.000E+00	0.0
	2212	-1	0	0	0	0	0.0000000000E+00	0.0000000000E+00	-6.5000000000E+03	6.5000000000E+03	9.3827000000E-01	0.000E+00	0.0
	2212	1	0	0	0	0	0.0000000000E+00	0.0000000000E+00	6.0141900064E+03	6.0141900064E+03	9.3827000000E-01	0.000E+00	0.0
	2212	1	0	0	0	0	0.0000000000E+00	0.0000000000E+00	-5.9348761918E+03	5.9348761918E+03	9.3827000000E-01	0.000E+00	0.0
	51	2	1	2	0	0	-3.4328384738E+00	-1.2806701570E+02	-2.9091987233E+01	1.0561394147E+03	1.0479366272E+03	0.000E+00	0.0
	1000022	2	5	5	0	0	3.4328384738E+00	1.2806701570E+02	-1.1612761651E+02	8.6806749616E+02	8.5067185782E+02	0.000E+00	0.0
	14	1	6	6	0	0	5.5665491996E-01	2.9544687143E+02	-2.1547590131E+02	4.8922799158E+02	3.2500000000E+02	0.000E+00	0.0
	-14	1	6	6	0	0	2.8761835538E+00	-1.6737985573E+02	9.9348284807E+01	3.7883950458E+02	3.2500000000E+02	0.000E+00	0.0
	25	2	5	5	0	0	-3.4328384738E+00	-1.2806701570E+02	3.6813801866E+01	1.8286630565E+02	1.2518739890E+02	0.000E+00	0.0
	-5	1	9	9	0	501	4.2796426143E+01	-4.9681787928E+01	5.9874688035E+01	8.8894683810E+01	4.1800000000E+00	0.000E+00	0.0
	5	1	9	9	501	0	-4.6229264617E+01	-7.8385227770E+01	-2.3060886169E+01	9.3971621836E+01	4.1800000000E+00	0.000E+00	0.0
</event>
<event>
    11  -1  1.0000000E+00  1.0000000E+00  -1.0000000E+00  -1.0000000E+00
	2212	-1	0	0	0	0	0.0000000000E+00	0.0000000000E+00	6.5000000000E+03	6.5000000000E+03	9.3827000000E-01	0.000E+00	0.0
	2212	-1	0	0	0	0	0.0000000000E+00	0.0000000000E+00	-6.5000000000E+03	6.5000000000E+03	9.3827000000E-01	0.000E+00	0.0
	2212	1	0	0	0	0	0.0000000000E+00	0.0000000000E+00	5.9022395839E+03	5.9022395839E+03	9.3827000000E-01	0.000E+00	0.0
	2212	1	0	0	0	0	0.0000000000E+00	0.0000000000E+00	-6.0396666755E+03	6.0396666755E+03	9.3827000000E-01	0.000E+00	0.0
	51	2	1	2	0	0	-6.2780466754E+01	4.0833537128E+01	8.4742344716E+01	1.0552090732E+03	1.0491311446E+03	0.000E+00	0.0
	1000022	2	5	5	0	0	6.2780466754E+01	-4.0833537128E+01	1.7031546260E+02	9.0855997906E+02	8.8930597321E+02	0.000E+00	0.0
	14	1	6	6	0	0	-2.3872705320E+02	-1.5899259686E+02	9.2126081902E+01	4.4314948579E+02	3.2500000000E+02	0.000E+00	0.0
	-14	1	6	6	0	0	3.0150751996E+02	1.1815905974E+02	7.8189380701E+01	4.6541049327E+02	3.2500000000E+02	0.000E+00	0.0
	25	2	5	5	0	0	-6.2780466754E+01	4.0833537128E+01	-3.2888371005E+01	1.4953376159E+02	1.2517961554E+02	0.000E+00	0.0
	-5	1	9	9	0	501	2.5968771875E+01	3.6565937831E+01	-4.0079748774E+01	6.0293478784E+01	4.1800000000E+00	0.000E+00	0.0
	5	1	9	9	501	0	-8.8749238628E+01	4.2675992977E+00	7.1913777688E+00	8.9240282805E+01	4.1800000000E+00	0.000E+00	0.0
</event>
<event>
    11  -1  1.0000000E+00  1.0000000E+00  -1.0000000E+00  -1.0000000E+00
	2212	-1	0	0	0	0	0.0000000000E+00	0.0000000000E+00	6.5000000000E+03	6.5000000000E+03	9.3827000000E-01	0.000E+00	0.0
	2212	-1	0	0	0	0	0.0000000000E+00	0.0000000000E+00	-6.5000000000E+03	6.5000000000E+03	9.3827000000E-01	0.000E+00	0.0
	2212	1	0	0	0	0	0.0000000000E+00	0.0000000000E+00	6.2985567853E+03	6.2985567853E+03	9.3827000000E-01	0.000E+00	0.0
	2212	1	0	0	0	0	0.0000000000E+00	0.0000000000E+00	-5.1500465081E+03	5.1500465081E+03	9.3827000000E-01	0.000E+00	0.0
	51	2	1	2	0	0	-2.7457092483E+01	1.0820004915E+02	-1.0496834251E+03	1.4839313730E+03	1.0429553607E+03	0.000E+00	0.0
	1000022	2	5	5	0	0	2.7457092483E+01	-1.0820004915E+02	-1.0554050000E+03	1.3596019540E+03	8.4980975326E+02	0.000E+00	0.0
	14	1	6	6	0	0	2.2529028428E+02	-1.8947759839E+02	-7.3375383409E+02	8.5479656148E+02	3.2500000000E+02	0.000E+00	0.0
	-14	1	6	6	0	0	-1.9783319180E+02	8.1277549240E+01	-3.2165116593E+02	5.0480539253E+02	3.2500000000E+02	0.000E+00	0.0
	25	2	5	5	0	0	-2.7457092483E+01	1.0820004915E+02	-9.3105277254E+01	1.9179475261E+02	1.2512190820E+02	0.000E+00	0.0
	-5	1	9	9	0	501	3.3708013766E+01	-5.2525707869E+00	-3.8897884358E+01	5.1907008192E+01	4.1800000000E+00	0.000E+00	0.0
	5	1	9	9	501	0	-6.1165106249E+01	1.1345261994E+02	-5.4207392896E+01	1.3988774441E+02	4.1800000000E+00	0.000E+00	0.0
</event>
<event>
    11  -1  1.0000000E+00  1.0000000E+00  -1.0000000E+00  -1.0000000E+00
	2212	-1	0	0	0	0	0.0000000000E+00	0.0000000000E+00	6.5000000000E+03	6.5000000000E+03	9.3827000000E-01	0.000E+00	0.0
	2212	-1	0	0	0	0	0.0000000000E+00	0.0000000000E+00	-6.5000000000E+03	6.5000000000E+03	9.3827000000E-01	0.000E+00	0.0
	2212	1	0	0	0	0	0.0000000000E+00	0.0000000000E+00	5.9563150788E+03	5.9563150788E+03	9.3827000000E-01	0.000E+00	0.0
	2212	1	0	0	0	0	0.0000000000E+00	0.0000000000E+00	-5.9971045042E+03	5.9971045042E+03	9.3827000000E-01	0.000E+00	0.0
	51	2	1	2	0	0	-1.2706040727E+02	4.3187649692E+00	8.4156279098E+01	1.0568406077E+03	1.0457852513E+03	0.000E+00	0.0
	1000022	2	5	5	0	0	1.2706040727E+02	-4.3187649692E+00	-9.4012339629E+00	8.6123412837E+02	8.5174693533E+02	0.000E+00	0.0
	14	1	6	6	0	0	8.0313850927E+01	-1.2501873157E+02	2.4099689675E+02	4.3102726379E+02	3.2500000000E+02	0.000E+00	0.0
	-14	1	6	6	0	0	4.6746556344E+01	1.2069996660E+02	-2.5039813071E+02	4.3020686458E+02	3.2500000000E+02	0.000E+00	0.0
	25	2	5	5	0	0	-1.2706040727E+02	4.3187649692E+00	5.0190659336E+01	1.8534628858E+02	1.2518444624E+02	0.000E+00	0.0
	-5	1	9	9	0	501	-4.8931967085E+01	5.1644192375E+01	-1.5277883717E+01	7.2885843205E+01	4.1800000000E+00	0.000E+00	0.0
	5	1	9	9	501	0	-7.8128440185E+01	-4.7325427406E+01	6.5468543053E+01	1.1246044538E+02	4.1800000000E+00	0.000E+00	0.0
</event>
<event>
    11  -1  1.0000000E+00  1.0000000E+00  -1.0000000E+00  -1.0000000E+00
	2212	-1	0	0	0	0	0.0000000000E+00	0.0000000000E+00	6.5000000000E+03	6.5000000000E+03	9.3827000000E-01	0.000E+00	0.0
	2212	-1	0	0	0	0	0.0000000000E+00	0.0000000000E+00	-6.5000000000E+03	6.5000000000E+03	9.3827000000E-01	0.000E+00	0.0
	2212	1	0	0	0	0	0.0000000000E+00	0.0000000000E+00	6.0964977683E+03	6.0964977683E+03	9.3827000000E-01	0.000E+00	0.0
	2212	1	0	0	0	0	0.0000000000E+00	0.0000000000E+00	-5.8172345699E+03	5.8172345699E+03	9.3827000000E-01	0.000E+00	0.0
	51	2	1	2	0	0	8.5168446174E+01	8.0061492052E+01	-1.9203722050E+02	1.0735601055E+03	1.0497568762E+03	0.000E+00	0.0
	1000022	2	5	5	0	0	-8.5168446174E+01	-8.0061492052E+01	-3.1835236022E+02	9.1173441138E+02	8.4631430622E+02	0.000E+00	0.0
	14	1	6	6	0	0	1.9612699646E+02	6.1981612562E+00	-2.7986554083E+02	4.7165022727E+02	3.2500000000E+02	0.000E+00	0.0
	-14	1	6	6	0	0	-2.8129544263E+02	-8.6259653308E+01	-3.8486819393E+01	4.4008418411E+02	3.2500000000E+02	0.000E+00	0.0
	25	2	5	5	0	0	8.5168446174E+01	8.0061492052E+01	3.9089161846E+01	1.7453325048E+02	1.2357340416E+02	0.000E+00	0.0
	-5	1	9	9	0	501	2.8580026699E+01	-1.2085068579E+01	-3.2226027614E+01	4.4931682191E+01	4.1800000000E+00	0.000E+00	0.0
	5	1	9	9	501	0	5.6588419475E+01	9.2146560631E+01	7.1315189460E+01	1.2960156829E+02	4.1800000000E+00	0.000E+00	0.0
</event>
<event>
    11  -1  1.0000000E+00  1.0000000E+00  -1.0000000E+00  -1.0000000E+00
	2212	-1	0	0	0	0	0.0000000000E+00	0.0000000000E+00	6.5000000000E+03	6.5000000000E+03	9.3827000000E-01	0.000E+00	0.0
	2212	-1	0	0	0	0	0.0000000000E+00	0.0000000000E+00	-6.5000000000E+03	6.5000000000E+03	9.3827000000E-01	0.000E+00	0.0
	2212	1	0	0	0	0	0.0000000000E+00	0.0000000000E+00	6.1657197079E+03	6.1657197079E+03	9.3827000000E-01	0.000E+00	0.0
	2212	1	0	0	0	0	0.0000000000E+00	0.0000000000E+00	-5.6803956232E+03	5.6803956232E+03	9.3827000000E-01	0.000E+00	0.0
	51	2	1	2	0	0	-7.0847684625E+01	7.3237728561E+01	-5.6661843799E+02	1.1947175296E+03	1.0468573742E+03	0.000E+00	0.0
	1000022	2	5	5	0	0	7.0847684625E+01	-7.3237728561E+01	-3.2573568939E+02	9.2690342260E+02	8.6177900658E+02	0.000E+00	0.0
	14	1	6	6	0	0	1.3308178318E+02	1.8618941440E+02	-3.1350573561E+02	5.0624905462E+02	3.2500000000E+02	0.000E+00	0.0
	-14	1	6	6	0	0	-6.2234098554E+01	-2.5942714296E+02	-1.2229953777E+01	4.2065436798E+02	3.2500000000E+02	0.000E+00	0.0
	25	2	5	5	0	0	-7.0847684625E+01	7.3237728561E+01	-1.5958839537E+02	2.2698124632E+02	1.2517536075E+02	0.000E+00	0.0
	-5	1	9	9	0	501	-4.7885531064E+01	2.6492338751E+00	-1.4289084013E+02	1.5078231700E+02	4.1800000000E+00	0.000E+00	0.0
	5	1	9	9	501	0	-2.2962153561E+01	7.0588494686E+01	-1.6697555240E+01	7.6198929318E+01	4.1800000000E+00	0.000E+00	0.0
</event>
<event>
    11  -1  1.0000000E+00  1.0000000E+00  -1.0000000E+00  -1.0000000E+00
	2212	-1	0	0	0	0	0.0000000000E+00	0.0000000000E+00	6.5000000000E+03	6.5000000000E+03	9.3827000000E-01	0.000E+00	0.0
	2212	-1	0	0	0	0	0.0000000000E+00	0.0000000000E+00	-6.5000000000E+03	6.5000000000E+03	9.3827000000E-01	0.000E+00	0.0
	2212	1	0	0	0	0	0.0000000000E+00	0.0000000000E+00	6.0594815284E+03	6.0594815284E+03	9.3827000000E-01	0.000E+00	0.0
	2212	1	0	0	0	0	0.0000000000E+00	0.0000000000E+00	-5.8737174541E+03	5.8737174541E+03	9.3827000000E-01	0.000E+00	0.0
	51	2	1	2	0	0	-4.4698297377E+01	1.3588486088E+02	-1.6921608659E+02	1.0736167085E+03	1.0505027937E+03	0.000E+00	0.0
	1000022	2	5	5	0	0	4.4698297377E+01	-1.3588486088E+02	-1.7028837385E+02	8.7608053596E+02	8.4738205198E+02	0.000E+00	0.0
	14	1	6	6	0	0	-4.6203240308E+01	-3.3200846784E+02	-6.1837794089E+01	4.7097056693E+02	3.2500000000E+02	0.000E+00	0.0
	-14	1	6	6	0	0	9.0901537685E+01	1.9612360696E+02	-1.0845057976E+02	4.0510996903E+02	3.2500000000E+02	0.000E+00	0.0
	25	2	5	5	0	0	-4.4698297377E+01	1.3588486088E+02	-1.5475700479E+01	1.9072048150E+02	1.2518854401E+02	0.000E+00	0.0
	-5	1	9	9	0	501	3.5903489716E+01	6.1547988656E+00	3.1528708473E+00	3.6801564063E+01	4.1800000000E+00	0.000E+00	0.0
	5	1	9	9	501	0	-8.0601787093E+01	1.2973006202E+02	-1.8628571326E+01	1.5391891743E+02	4.1800000000E+00	0.000E+00	0.0
</event>
<event>
    11  -1  1.0000000E+00  1.0000000E+00  -1.0000000E+00  -1.0000000E+00
	2212	-1	0	0	0	0	0.0000000000E+00	0.0000000000E+00	6.5000000000E+03	6.5000000000E+03	9.3827000000E-01	0.000E+00	0.0
	2212	-1	0	0	0	0	0.0000000000E+00	0.0000000000E+00	-6.5000000000E+03	6.5000000000E+03	9.3827000000E-01	0.000E+00	0.0
	2212	1	0	0	0	0	0.0000000000E+00	0.0000000000E+00	5.2269008964E+03	5.2269008964E+03	9.3827000000E-01	0.000E+00	0.0
	2212	1	0	0	0	0	0.0000000000E+00	0.0000000000E+00	-6.2842321604E+03	6.2842321604E+03	9.3827000000E-01	0.000E+00	0.0
	51	2	1	2	0	0	1.1251718733E+02	-1.0113931670E+02	1.1399390411E+03	1.5559966802E+03	1.0482248674E+03	0.000E+00	0.0
	1000022	2	5	5	0	0	-1.1251718733E+02	1.0113931670E+02	7.8255109080E+02	1.1511322049E+03	8.3055997052E+02	0.000E+00	0.0
	14	1	6	6	0	0	-6.6765269460E+01	2.7961282133E+02	5.8552384176E+02	7.2876889363E+02	3.2500000000E+02	0.000E+00	0.0
	-14	1	6	6	0	0	-4.5751917872E+01	-1.7847350463E+02	1.9702724904E+02	4.2236331127E+02	3.2500000000E+02	0.000E+00	0.0
	25	2	5	5	0	0	1.1251718733E+02	-1.0113931670E+02	2.7478017322E+02	3.3773473827E+02	1.2518518686E+02	0.000E+00	0.0
	-5	1	9	9	0	501	2.6343632345E+01	-9.3125144332E+01	2.0408209338E+02	2.2590540655E+02	4.1800000000E+00	0.000E+00	0.0
	5	1	9	9	501	0	8.6173554987E+01	-8.0141723630E+00	7.0698079847E+01	1.1182933172E+02	4.1800000000E+00	0.000E+00	0.0
</event>
<event>
    11  -1  1.0000000E+00  1.0000000E+00  -1.0000000E+00  -1.0000000E+00
	2212	-1	0	0	0	0	0.0000000000E+00	0.0000000000E+00	6.5000000000E+03	6.5000000000E+03	9.3827000000E-01	0.000E+00	0.0
	2212	-1	0	0	0	0	0.0000000000E+00	0.0000000000E+00	-6.5000000000E+03	6.5000000000E+03	9.3827000000E-01	0.000E+00	0.0
	2212	1	0	0	0	0	0.0000000000E+00	0.0000000000E+00	5.5601830515E+03	5.5601830515E+03	9.3827000000E-01	0.000E+00	0.0
	2212	1	0	0	0	0	0.0000000000E+00	0.0000000000E+00	-6.1991342339E+03	6.1991342339E+03	9.3827000000E-01	0.000E+00	0.0
	51	2	1	2	0	0	1.4496369504E+02	-4.3239492769E+01	6.6368270649E+02	1.2626930927E+03	1.0635012858E+03	0.000E+00	0.0
	1000022	2	5	5	0	0	-1.4496369504E+02	4.3239492769E+01	5.0237125238E+02	1.0014908246E+03	8.5306674414E+02	0.000E+00	0.0
	14	1	6	6	0	0	-1.3930828393E+01	-2.4584827586E+02	2.8780646594E+02	4.9909218042E+02	3.2500000000E+02	0.000E+00	0.0
	-14	1	6	6	0	0	-1.3103286665E+02	2.8908776863E+02	2.1456478644E+02	5.0239864420E+02	3.2500000000E+02	0.000E+00	0.0
	25	2	5	5	0	0	1.4496369504E+02	-4.3239492769E+01	1.3657992999E+02	2.3919189000E+02	1.2519806847E+02	0.000E+00	0.0
	-5	1	9	9	0	501	8.4834520978E+01	1.5990892360E+01	1.2772999467E+02	1.5422395574E+02	4.1800000000E+00	0.000E+00	0.0
	5	1	9	9	501	0	6.0129174063E+01	-5.9230385129E+01	8.8499353231E+00	8.4967934253E+01	4.1800000000E+00	0.000E+00	0.0
</event>
<event>
    11  -1  1.0000000E+00  1.0000000E+00  -1.0000000E+00  -1.0000000E+00
	2212	-1	0	0	0	0	0.0000000000E+00	0.0000000000E+00	6.5000000000E+03	6.5000000000E+03	9.3827000000E-01	0.000E+00	0.0
	2212	-1	0	0	0	0	0.0000000000E+00	0.0000000000E+00	-6.5000000000E+03	6.5000000000E+03	9.3827000000E-01	0.000E+00	0.0
	2212	1	0	0	0	0	0.0000000000E+00	0.0000000000E+00	5.7838832490E+03	5.7838832490E+03	9.3827000000E-01	0.000E+00	0.0
	2212	1	0	0	0	0	0.0000000000E+00	0.0000000000E+00	-6.1108502500E+03	6.1108502500E+03	9.3827000000E-01	0.000E+00	0.0
	51	2	1	2	0	0	-5.2644699806E+01	-5.1412291518E+01	1.9942443222E+02	1.0769825490E+03	1.0557966748E+03	0.000E+00	0.0
	1000022	2	5	5	0	0	5.2644699806E+01	5.1412291518E+01	3.9830424834E+02	9.4355617626E+02	8.5219557343E+02	0.000E+00	0.0
	14	1	6	6	0	0	2.2946979664E+02	2.1283305525E+02	2.2631222044E+02	5.0477372960E+02	3.2500000000E+02	0.000E+00	0.0
	-14	1	6	6	0	0	-1.7682509683E+02	-1.6142076373E+02	1.7199202789E+02	4.3878244665E+02	3.2500000000E+02	0.000E+00	0.0
	25	2	5	5	0	0	-5.2644699806E+01	-5.1412291518E+01	-7.1337247374E+01	1.6171032478E+02	1.2508612289E+02	0.000E+00	0.0
	-5	1	9	9	0	501	-4.4271168432E+01	-7.1387047780E+01	3.0116915456E+00	8.4158122787E+01	4.1800000000E+00	0.000E+00	0.0
	5	1	9	9	501	0	-8.3735313741E+00	1.9974756262E+01	-7.4348938920E+01	7.7552201993E+01	4.1800000000E+00	0.000E+00	0.0
</event>
<event>
    11  -1  1.0000000E+00  1.0000000E+00  -1.0000000E+00  -1.0000000E+00
	2212	-1	0	0	0	0	0.0000000000E+00	0.0000000000E+00	6.5000000000E+03	6.5000000000E+03	9.3827000000E-01	0.000E+00	0.0
	2212	-1	0	0	0	0	0.0000000000E+00	0.0000000000E+00	-6.5000000000E+03	6.5000000000E+03	9.3827000000E-01	0.000E+00	0.0
	2212	1	0	0	0	0	0.0000000000E+00	0.0000000000E+00	4.9123440234E+03	4.9123440234E+03	9.3827000000E-01	0.000E+00	0.0
	2212	1	0	0	0	0	0.0000000000E+00	0.0000000000E+00	-6.3271597473E+03	6.3271597473E+03	9.3827000000E-01	0.000E+00	0.0
	51	2	1	2	0	0	-3.8108322736E+01	-9.5513701555E+01	1.2683549093E+03	1.6483151180E+03	1.0476848003E+03	0.000E+00	0.0
	1000022	2	5	5	0	0	3.8108322736E+01	9.5513701555E+01	1.3203878300E+03	1.5729325359E+03	8.4859744827E+02	0.000E+00	0.0
	14	1	6	6	0	0	-1.9829967296E+02	7.8383377727E+01	9.4871736319E+02	1.0252591621E+03	3.2500000000E+02	0.000E+00	0.0
	-14	1	6	6	0	0	2.3640799569E+02	1.7130323828E+01	3.7167046684E+02	5.4767337378E+02	3.2500000000E+02	0.000E+00	0.0
	25	2	5	5	0	0	-3.8108322736E+01	-9.5513701555E+01	9.4427893865E+01	1.8756369345E+02	1.2525334532E+02	0.000E+00	0.0
	-5	1	9	9	0	501	-6.5180570552E+01	-4.9464703367E+01	1.0476200730E+02	1.3299554215E+02	4.1800000000E+00	0.000E+00	0.0
	5	1	9	9	501	0	2.7072247816E+01	-4.6048998188E+01	-1.0334113436E+01	5.4568151301E+01	4.1800000000E+00	0.000E+00	0.0
</event>
<event>
    11  -1  1.0000000E+00  1.0000000E+00  -1.0000000E+00  -1.0000000E+00
	2212	-1	0	0	0	0	0.0000000000E+00	0.0000000000E+00	6.5000000000E+03	6.5000000000E+03	9.3827000000E-01	0.000E+00	0.0
	2212	-1	0	0	0	0	0.0000000000E+00	0.0000000000E+00	-6.5000000000E+03	6.5000000000E+03	9.3827000000E-01	0.000E+00	0.0
	2212	1	0	0	0	0	0.0000000000E+00	0.0000000000E+00	6.2045082299E+03	6.2045082299E+03	9.3827000000E-01	0.000E+00	0.0
	2212	1	0	0	0	0	0.0000000000E+00	0.0000000000E+00	-5.5796010940E+03	5.5796010940E+03	9.3827000000E-01	0.000E+00	0.0
	51	2	1	2	0	0	6.1807560940E+01	5.7599482545E+01	-5.6458737502E+02	1.1890239639E+03	1.0430154398E+03	0.000E+00	0.0
	1000022	2	5	5	0	0	-6.1807560940E+01	-5.7599482545E+01	-5.9196502800E+02	1.0612964475E+03	8.7680652372E+02	0.000E+00	0.0
	14	1	6	6	0	0	-2.7825047604E+02	-2.7950536506E+01	-5.0072229999E+02	6.5920587195E+02	3.2500000000E+02	0.000E+00	0.0
	-14	1	6	6	0	0	2.1644291510E+02	-2.9648946039E+01	-9.1242728011E+01	4.0209057551E+02	3.2500000000E+02	0.000E+00	0.0
	25	2	5	5	0	0	6.1807560940E+01	5.7599482545E+01	-3.2942107961E+01	1.5459422862E+02	1.2520510400E+02	0.000E+00	0.0
	-5	1	9	9	0	501	2.7990698985E+01	-1.1290464756E+01	-6.4637218598E+01	7.1459052976E+01	4.1800000000E+00	0.000E+00	0.0
	5	1	9	9	501	0	3.3816861955E+01	6.8889947301E+01	3.1695110637E+01	8.3135175647E+01	4.1800000000E+00	0.000E+00	0.0
</event>
<event>
    11  -1  1.0000000E+00  1.0000000E+00  -1.0000000E+00  -1.0000000E+00
	2212	-1	0	0	0	0	0.0000000000E+00	0.0000000000E+00	6.5000000000E+03	6.5000000000E+03	9.3827000000E-01	0.000E+00	0.0
	2212	-1	0	0	0	0	0.0000000000E+00	0.0000000000E+00	-6.5000000000E+03	6.5000000000E+03	9.3827000000E-01	0.000E+00	0.0
	2212	1	0	0	0	0	0.0000000000E+00	0.0000000000E+00	6.3090144103E+03	6.3090144103E+03	9.3827000000E-01	0.000E+00	0.0
	2212	1	0	0	0	0	0.0000000000E+00	0.0000000000E+00	-5.1036389773E+03	5.1036389773E+03	9.3827000000E-01	0.000E+00	0.0
	51	2	1	2	0	0	7.5174657612E+01	-6.5398692395E+01	-1.1214990340E+03	1.5278833839E+03	1.0328307380E+03	0.000E+00	0.0
	1000022	2	5	5	0	0	-7.5174657612E+01	6.5398692395E+01	-1.0976185321E+03	1.3944499030E+03	8.5428090921E+02	0.000E+00	0.0
	14	1	6	6	0	0	-8.1979017606E+00	3.0879754367E+02	-5.5880640479E+02	7.1645846119E+02	3.2500000000E+02	0.000E+00	0.0
	-14	1	6	6	0	0	-6.6976755851E+01	-2.4339885128E+02	-5.3881212727E+02	6.7799144178E+02	3.2500000000E+02	0.000E+00	0.0
	25	2	5	5	0	0	7.5174657612E+01	-6.5398692395E+01	-1.0775690090E+02	1.9289670937E+02	1.2517736488E+02	0.000E+00	0.0
	-5	1	9	9	0	501	9.2680858662E+00	-2.7423596507E+01	-1.1282007286E+02	1.1654952725E+02	4.1800000000E+00	0.000E+00	0.0
	5	1	9	9	501	0	6.5906571746E+01	-3.7975095888E+01	5.0631719591E+00	7.6347182118E+01	4.1800000000E+00	0.000E+00	0.0
</event>
<event>
    11  -1  1.0000000E+00  1.0000000E+00  -1.0000000E+00  -1.0000000E+00
	2212	-1	0	0	0	0	0.0000000000E+00	0.0000000000E+00	6.5000000000E+03	6.5000000000E+03	9.3827000000E-01	0.000E+00	0.0
	2212	-1	0	0	0	0	0.0000000000E+00	0.0000000000E+00	-6.5000000000E+03	6.5000000000E+03	9.3827000000E-01	0.000E+00	0.0
	2212	1	0	0	0	0	0.0000000000E+00	0.0000000000E+00	5.3165880636E+03	5.3165880636E+03	9.3827000000E-01	0.000E+00	0.0
	2212	1	0	0	0	0	0.0000000000E+00	0.0000000000E+00	-6.2635684207E+03	6.2635684207E+03	9.3827000000E-01	0.000E+00	0.0
	51	2	1	2	0	0	-7.9624910114E+01	4.9334104348E+01	1.1618756732E+03	1.5741387716E+03	1.0579148417E+03	0.000E+00	0.0
	1000022	2	5	5	0	0	7.9624910114E+01	-4.9334104348E+01	5.5113570531E+02	9.9424406722E+02	8.2219019659E+02	0.000E+00	0.0
	14	1	6	6	0	0	1.1132937523E+02	1.7041463799E+02	4.4327546240E+02	5.8613438237E+02	3.2500000000E+02	0.000E+00	0.0
	-14	1	6	6	0	0	-3.1704465118E+01	-2.1974874234E+02	1.0786024291E+02	4.0810968485E+02	3.2500000000E+02	0.000E+00	0.0
	25	2	5	5	0	0	-7.9624910114E+01	4.9334104348E+01	3.9584465186E+02	4.2559944849E+02	1.2517157018E+02	0.000E+00	0.0
	-5	1	9	9	0	501	-1.1065653011E+02	5.2436446630E+01	3.4135061069E+02	3.6267362795E+02	4.1800000000E+00	0.000E+00	0.0
	5	1	9	9	501	0	3.1031619995E+01	-3.1023422821E+00	5.4494041175E+01	6.2925820541E+01	4.1800000000E+00	0.000E+00	0.0
</event>
<event>
    11  -1  1.0000000E+00  1.0000000E+00  -1.0000000E+00  -1.0000000E+00
	2212	-1	0	0	0	0	0.0000000000E+00	0.0000000000E+00	6.5000000000E+03	6.5000000000E+03	9.3827000000E-01	0.000E+00	0.0
	2212	-1	0	0	0	0	0.0000000000E+00	0.0000000000E+00	-6.5000000000E+03	6.5000000000E+03	9.3827000000E-01	0.000E+00	0.0
	2212	1	0	0	0	0	0.0000000000E+00	0.0000000000E+00	5.1974352751E+03	5.1974352751E+03	9.3827000000E-01	0.000E+00	0.0
	2212	1	0	0	0	0	0.0000000000E+00	0.0000000000E+00	-6.2912433300E+03	6.2912433300E+03	9.3827000000E-01	0.000E+00	0.0
	51	2	1	2	0	0	-4.3385161298E+01	4.7118739664E+01	1.2722318118E+03	1.6463148327E+03	1.0429172055E+03	0.000E+00	0.0
	1000022	2	5	5	0	0	4.3385161298E+01	-4.7118739664E+01	7.3245480151E+02	1.1235731335E+03	8.4960232010E+02	0.000E+00	0.0
	14	1	6	6	0	0	-8.1931458686E+01	-2.0212307067E+02	1.3343602931E+02	4.1351744043E+02	3.2500000000E+02	0.000E+00	0.0
	-14	1	6	6	0	0	1.2531661998E+02	1.5500433101E+02	5.9901877220E+02	7.1005569311E+02	3.2500000000E+02	0.000E+00	0.0
	25	2	5	5	0	0	-4.3385161298E+01	4.7118739664E+01	3.6135325342E+02	3.8774826135E+02	1.2518024035E+02	0.000E+00	0.0
	-5	1	9	9	0	501	-2.2011720825E+00	7.8578030571E+01	2.8276217381E+02	2.9351536823E+02	4.1800000000E+00	0.000E+00	0.0
	5	1	9	9	501	0	-4.1183989216E+01	-3.1459290907E+01	7.8591079604E+01	9.4232893118E+01	4.1800000000E+00	0.000E+00	0.0
</event>
<event>
    11  -1  1.0000000E+00  1.0000000E+00  -1.0000000E+00  -1.0000000E+00
	2212	-1	0	0	0	0	0.0000000000E+00	0.0000000000E+00	6.5000000000E+03	6.5000000000E+03	9.3827000000E-01	0.000E+00	0.0
	2212	-1	0	0	0	0	0.0000000000E+00	0.0000000000E+00	-6.5000000000E+03	6.5000000000E+03	9.3827000000E-01	0.000E+00	0.0
	2212	1	0	0	0	0	0.0000000000E+00	0.0000000000E+00	5.3759841279E+03	5.3759841279E+03	9.3827000000E-01	0.000E+00	0.0
	2212	1	0	0	0	0	0.0000000000E+00	0.0000000000E+00	-6.2620711879E+03	6.2620711879E+03	9.3827000000E-01	0.000E+00	0.0
	51	2	1	2	0	0	1.1326085906E+02	1.5941302821E+02	6.1128318110E+02	1.2172307539E+03	1.0342838319E+03	0.000E+00	0.0
	1000022	2	5	5	0	0	-1.1326085906E+02	-1.5941302821E+02	9.1455213351E+02	1.1280278438E+03	6.3071441687E+02	0.000E+00	0.0
	14	1	6	6	0	0	0.0000000000E+00	0.0000000000E+00	0.0000000000E+00	0.0000000000E+00	0.0000000000E+00	0.000E+00	0.0
	-14	1	6	6	0	0	0.0000000000E+00	0.0000000000E+00	0.0000000000E+00	0.0000000000E+00	0.0000000000E+00	0.000E+00	0.0
	25	2	5	5	0	0	1.1326085906E+02	1.5941302821E+02	-2.8465073538E+01	2.3391684040E+02	1.2516505924E+02	0.000E+00	0.0
	-5	1	9	9	0	501	1.0375971622E+02	5.4722069426E+01	1.8280246196E+01	1.1879487949E+02	4.1800000000E+00	0.000E+00	0.0
	5	1	9	9	501	0	9.5011428398E+00	1.0469095879E+02	-4.6745319734E+01	1.1512196091E+02	4.1800000000E+00	0.000E+00	0.0
</event>
<event>
    11  -1  1.0000000E+00  1.0000000E+00  -1.0000000E+00  -1.0000000E+00
	2212	-1	0	0	0	0	0.0000000000E+00	0.0000000000E+00	6.5000000000E+03	6.5000000000E+03	9.3827000000E-01	0.000E+00	0.0
	2212	-1	0	0	0	0	0.0000000000E+00	0.0000000000E+00	-6.5000000000E+03	6.5000000000E+03	9.3827000000E-01	0.000E+00	0.0
	2212	1	0	0	0	0	0.0000000000E+00	0.0000000000E+00	5.4489271611E+03	5.4489271611E+03	9.3827000000E-01	0.000E+00	0.0
	2212	1	0	0	0	0	0.0000000000E+00	0.0000000000E+00	-6.2391463488E+03	6.2391463488E+03	9.3827000000E-01	0.000E+00	0.0
	51	2	1	2	0	0	4.5651720307E+01	-1.0215703126E+02	8.8119949938E+02	1.3732215579E+03	1.0472367215E+03	0.000E+00	0.0
	1000022	2	5	5	0	0	-4.5651720307E+01	1.0215703126E+02	5.6876010848E+02	1.0340098137E+03	8.5625235486E+02	0.000E+00	0.0
	14	1	6	6	0	0	-7.6579290992E+01	1.2035680518E+02	6.0868306494E+02	7.0460643051E+02	3.2500000000E+02	0.000E+00	0.0
	-14	1	6	6	0	0	3.0927570685E+01	-1.8199773922E+01	-3.9922956459E+01	3.2940338318E+02	3.2500000000E+02	0.000E+00	0.0
	25	2	5	5	0	0	4.5651720307E+01	-1.0215703126E+02	2.2145907925E+02	2.7791667643E+02	1.2519351682E+02	0.000E+00	0.0
	-5	1	9	9	0	501	8.5576350077E+01	-9.3380997258E+01	1.7102837928E+02	2.1286498364E+02	4.1800000000E+00	0.000E+00	0.0
	5	1	9	9	501	0	-3.9924629770E+01	-8.7760339973E+00	5.0430699974E+01	6.5051692790E+01	4.1800000000E+00	0.000E+00	0.0
</event>
<event>
    11  -1  1.0000000E+00  1.0000000E+00  -1.0000000E+00  -1.0000000E+00
	2212	-1	0	0	0	0	0.0000000000E+00	0.0000000000E+00	6.5000000000E+03	6.5000000000E+03	9.3827000000E-01	0.000E+00	0.0
	2212	-1	0	0	0	0	0.0000000000E+00	0.0000000000E+00	-6.5000000000E+03	6.5000000000E+03	9.3827000000E-01	0.000E+00	0.0
	2212	1	0	0	0	0	0.0000000000E+00	0.0000000000E+00	6.2061548646E+03	6.2061548646E+03	9.3827000000E-01	0.000E+00	0.0
	2212	1	0	0	0	0	0.0000000000E+00	0.0000000000E+00	-5.5879382308E+03	5.5879382308E+03	9.3827000000E-01	0.000E+00	0.0
	51	2	1	2	0	0	1.7175252288E+01	2.6975410697E+01	-7.2541589208E+02	1.2646226847E+03	1.0353838207E+03	0.000E+00	0.0
	1000022	2	5	5	0	0	-1.7175252288E+01	-2.6975410697E+01	-4.1970956838E+02	9.6908411618E+02	8.7289474759E+02	0.000E+00	0.0
	14	1	6	6	0	0	1.9138001210E+02	1.5746135299E+02	-3.4459977006E+02	5.3459740763E+02	3.2500000000E+02	0.000E+00	0.0
	-14	1	6	6	0	0	-2.0855526439E+02	-1.8443676369E+02	-7.5109798324E+01	4.3448670855E+02	3.2500000000E+02	0.000E+00	0.0
	25	2	5	5	0	0	1.7175252288E+01	2.6975410697E+01	-1.9850706542E+02	2.3682278835E+02	1.2512919719E+02	0.000E+00	0.0
	-5	1	9	9	0	501	-1.2066507183E+01	-4.1743115150E+01	-3.1502251956E+01	5.3832634492E+01	4.1800000000E+00	0.000E+00	0.0
	5	1	9	9	501	0	2.9241759472E+01	6.8718525848E+01	-1.6700481346E+02	1.8299015386E+02	4.1800000000E+00	0.000E+00	0.0
</event>
<event>
    11  -1  1.0000000E+00  1.0000000E+00  -1.0000000E+00  -1.0000000E+00
	2212	-1	0	0	0	0	0.0000000000E+00	0.0000000000E+00	6.5000000000E+03	6.5000000000E+03	9.3827000000E-01	0.000E+00	0.0
	2212	-1	0	0	0	0	0.0000000000E+00	0.0000000000E+00	-6.5000000000E+03	6.5000000000E+03	9.3827000000E-01	0.000E+00	0.0
	2212	1	0	0	0	0	0.0000000000E+00	0.0000000000E+00	5.9046985101E+03	5.9046985101E+03	9.3827000000E-01	0.000E+00	0.0
	2212	1	0	0	0	0	0.0000000000E+00	0.0000000000E+00	-6.0308156203E+03	6.0308156203E+03	9.3827000000E-01	0.000E+00	0.0
	51	2	1	2	0	0	-3.0576309949E+01	9.6951244389E+01	2.2012827592E+02	1.0844425081E+03	1.0569884772E+03	0.000E+00	0.0
	1000022	2	5	5	0	0	3.0576309949E+01	-9.6951244389E+01	1.0996396437E+01	8.6635502710E+02	8.6029974877E+02	0.000E+00	0.0
	14	1	6	6	0	0	2.9358171726E+02	-8.0475934093E+01	-2.7684815044E+01	4.4615922008E+02	3.2500000000E+02	0.000E+00	0.0
	-14	1	6	6	0	0	-2.6300540731E+02	-1.6475310296E+01	3.8681211481E+01	4.2019580703E+02	3.2500000000E+02	0.000E+00	0.0
	25	2	5	5	0	0	-3.0576309949E+01	9.6951244389E+01	1.1512071382E+02	1.9813084245E+02	1.2517426838E+02	0.000E+00	0.0
	-5	1	9	9	0	501	2.8701040804E+01	-1.6176180890E+01	2.8405732034E+01	4.3700990650E+01	4.1800000000E+00	0.000E+00	0.0
	5	1	9	9	501	0	-5.9277350753E+01	1.1312742528E+02	8.6714981782E+01	1.5442985180E+02	4.1800000000E+00	0.000E+00	0.0
</event>
<event>
    11  -1  1.0000000E+00  1.0000000E+00  -1.0000000E+00  -1.0000000E+00
	2212	-1	0	0	0	0	0.0000000000E+00	0.0000000000E+00	6.5000000000E+03	6.5000000000E+03	9.3827000000E-01	0.000E+00	0.0
	2212	-1	0	0	0	0	0.0000000000E+00	0.0000000000E+00	-6.5000000000E+03	6.5000000000E+03	9.3827000000E-01	0.000E+00	0.0
	2212	1	0	0	0	0	0.0000000000E+00	0.0000000000E+00	5.5054988963E+03	5.5054988963E+03	9.3827000000E-01	0.000E+00	0.0
	2212	1	0	0	0	0	0.0000000000E+00	0.0000000000E+00	-6.2180103761E+03	6.2180103761E+03	9.3827000000E-01	0.000E+00	0.0
	51	2	1	2	0	0	1.1653235424E+02	2.0342449106E+01	6.0172073234E+02	1.2238535097E+03	1.0591298167E+03	0.000E+00	0.0
	1000022	2	5	5	0	0	-1.1653235424E+02	-2.0342449106E+01	6.9740832864E+02	1.1035843592E+03	8.4706933381E+02	0.000E+00	0.0
	14	1	6	6	0	0	1.1665696492E+02	1.9567714487E+02	2.7349997981E+02	4.8200169237E+02	3.2500000000E+02	0.000E+00	0.0
	-14	1	6	6	0	0	-2.3318931916E+02	-2.1601959398E+02	4.2390834883E+02	6.2158266688E+02	3.2500000000E+02	0.000E+00	0.0
	25	2	5	5	0	0	1.1653235424E+02	2.0342449106E+01	1.5103151211E+01	1.7290636835E+02	1.2519944975E+02	0.000E+00	0.0
	-5	1	9	9	0	501	5.9514139515E+01	-2.5481423778E+01	5.8833660325E+01	8.7579151327E+01	4.1800000000E+00	0.000E+00	0.0
	5	1	9	9	501	0	5.7018214727E+01	4.5823872884E+01	-4.3730509114E+01	8.5327217018E+01	4.1800000000E+00	0.000E+00	0.0
</event>
<event>
    11  -1  1.0000000E+00  1.0000000E+00  -1.0000000E+00  -1.0000000E+00
	2212	-1	0	0	0	0	0.0000000000E+00	0.0000000000E+00	6.5000000000E+03	6.5000000000E+03	9.3827000000E-01	0.000E+00	0.0
	2212	-1	0	0	0	0	0.0000000000E+00	0.0000000000E+00	-6.5000000000E+03	6.5000000000E+03	9.3827000000E-01	0.000E+00	0.0
	2212	1	0	0	0	0	0.0000000000E+00	0.0000000000E+00	6.3016404252E+03	6.3016404252E+03	9.3827000000E-01	0.000E+00	0.0
	2212	1	0	0	0	0	0.0000000000E+00	0.0000000000E+00	-5.1141161661E+03	5.1141161661E+03	9.3827000000E-01	0.000E+00	0.0
	51	2	1	2	0	0	-2.7895266427E+01	1.2596004076E+00	-1.3475969605E+03	1.7077501611E+03	1.0486244859E+03	0.000E+00	0.0
	1000022	2	5	5	0	0	2.7895266427E+01	-1.2596004076E+00	-8.4791741592E+02	1.2212251025E+03	8.7843444500E+02	0.000E+00	0.0
	14	1	6	6	0	0	2.4521426895E+02	-1.2794683870E+02	-6.1581702201E+02	7.4923696907E+02	3.2500000000E+02	0.000E+00	0.0
	-14	1	6	6	0	0	-2.1731900252E+02	1.2668723829E+02	-2.3210039391E+02	4.7198813338E+02	3.2500000000E+02	0.000E+00	0.0
	25	2	5	5	0	0	-2.7895266427E+01	1.2596004076E+00	-3.3960684317E+02	3.6301830633E+02	1.2517887330E+02	0.000E+00	0.0
	-5	1	9	9	0	501	-2.7473483611E+01	-4.9665646554E+00	-5.4181564344E+00	2.8745223696E+01	4.1800000000E+00	0.000E+00	0.0
	5	1	9	9	501	0	-4.2178281589E-01	6.2261650629E+00	-3.3418868674E+02	3.3427308264E+02	4.1800000000E+00	0.000E+00	0.0
</event>
<event>
    11  -1  1.0000000E+00  1.0000000E+00  -1.0000000E+00  -1.0000000E+00
	2212	-1	0	0	0	0	0.0000000000E+00	0.0000000000E+00	6.5000000000E+03	6.5000000000E+03	9.3827000000E-01	0.000E+00	0.0
	2212	-1	0	0	0	0	0.0000000000E+00	0.0000000000E+00	-6.5000000000E+03	6.5000000000E+03	9.3827000000E-01	0.000E+00	0.0
	2212	1	0	0	0	0	0.0000000000E+00	0.0000000000E+00	6.1624260096E+03	6.1624260096E+03	9.3827000000E-01	0.000E+00	0.0
	2212	1	0	0	0	0	0.0000000000E+00	0.0000000000E+00	-5.6904854326E+03	5.6904854326E+03	9.3827000000E-01	0.000E+00	0.0
	51	2	1	2	0	0	-7.0563008460E+01	7.1687696964E+01	-5.9050189959E+02	1.2049460605E+03	1.0455066959E+03	0.000E+00	0.0
	1000022	2	5	5	0	0	7.0563008460E+01	-7.1687696964E+01	-2.7151216817E+02	8.9024668606E+02	8.4184442774E+02	0.000E+00	0.0
	14	1	6	6	0	0	3.2129614984E+01	-2.9485353125E+02	-2.1635786483E+02	4.9031280090E+02	3.2500000000E+02	0.000E+00	0.0
	-14	1	6	6	0	0	3.8433393476E+01	2.2316583429E+02	-5.5154303341E+01	3.9993388517E+02	3.2500000000E+02	0.000E+00	0.0
	25	2	5	5	0	0	-7.0563008460E+01	7.1687696964E+01	-2.0042840886E+02	2.5684187174E+02	1.2521156473E+02	0.000E+00	0.0
	-5	1	9	9	0	501	-4.5128057057E+01	-1.6940193643E+01	-1.3580789524E+02	1.4416923564E+02	4.1800000000E+00	0.000E+00	0.0
	5	1	9	9	501	0	-2.5434951403E+01	8.8627890606E+01	-6.4620513614E+01	1.1267263610E+02	4.1800000000E+00	0.000E+00	0.0
</event>
<event>
    11  -1  1.0000000E+00  1.0000000E+00  -1.0000000E+00  -1.0000000E+00
	2212	-1	0	0	0	0	0.0000000000E+00	0.0000000000E+00	6.5000000000E+03	6.5000000000E+03	9.3827000000E-01	0.000E+00	0.0
	2212	-1	0	0	0	0	0.0000000000E+00	0.0000000000E+00	-6.5000000000E+03	6.5000000000E+03	9.3827000000E-01	0.000E+00	0.0
	2212	1	0	0	0	0	0.0000000000E+00	0.0000000000E+00	6.2947396244E+03	6.2947396244E+03	9.3827000000E-01	0.000E+00	0.0
	2212	1	0	0	0	0	0.0000000000E+00	0.0000000000E+00	-5.1776136960E+03	5.1776136960E+03	9.3827000000E-01	0.000E+00	0.0
	51	2	1	2	0	0	-8.0147266058E+01	3.4899737612E+01	-9.7587657307E+02	1.4302834333E+03	1.0419856226E+03	0.000E+00	0.0
	1000022	2	5	5	0	0	8.0147266058E+01	-3.4899737612E+01	-1.0704089896E+03	1.3679698932E+03	8.4730434188E+02	0.000E+00	0.0
	14	1	6	6	0	0	-1.7086034554E+02	4.7588808998E+00	-2.3421920776E+02	4.3554510893E+02	3.2500000000E+02	0.000E+00	0.0
	-14	1	6	6	0	0	2.5100761160E+02	-3.9658618512E+01	-8.3618978180E+02	9.3242478425E+02	3.2500000000E+02	0.000E+00	0.0
	25	2	5	5	0	0	-8.0147266058E+01	3.4899737612E+01	-4.6716938846E+01	1.5967678642E+02	1.2519036625E+02	0.000E+00	0.0
	-5	1	9	9	0	501	-6.1907639017E+01	-2.1609070835E+01	2.1507315088E+01	6.9134251376E+01	4.1800000000E+00	0.000E+00	0.0
	5	1	9	9	501	0	-1.8239627041E+01	5.6508808447E+01	-6.8224253933E+01	9.0542535040E+01	4.1800000000E+00	0.000E+00	0.0
</event>
<event>
    11  -1  1.0000000E+00  1.0000000E+00  -1.0000000E+00  -1.0000000E+00
	2212	-1	0	0	0	0	0.0000000000E+00	0.0000000000E+00	6.5000000000E+03	6.5000000000E+03	9.3827000000E-01	0.000E+00	0.0
	2212	-1	0	0	0	0	0.0000000000E+00	0.0000000000E+00	-6.5000000000E+03	6.5000000000E+03	9.3827000000E-01	0.000E+00	0.0
	2212	1	0	0	0	0	0.0000000000E+00	0.0000000000E+00	5.2829130752E+03	5.2829130752E+03	9.3827000000E-01	0.000E+00	0.0
	2212	1	0	0	0	0	0.0000000000E+00	0.0000000000E+00	-6.2812321646E+03	6.2812321646E+03	9.3827000000E-01	0.000E+00	0.0
	51	2	1	2	0	0	5.2917109312E+01	3.2181715057E+01	1.1472612175E+03	1.5443710928E+03	1.0320067286E+03	0.000E+00	0.0
	1000022	2	5	5	0	0	-5.2917109312E+01	-3.2181715057E+01	6.8860896680E+02	1.0961102633E+03	8.5055247751E+02	0.000E+00	0.0
	14	1	6	6	0	0	6.0189156532E+01	1.9847339081E+02	5.2350535859E+02	6.5015173760E+02	3.2500000000E+02	0.000E+00	0.0
	-14	1	6	6	0	0	-1.1310626584E+02	-2.3065510587E+02	1.6510360820E+02	4.4595852574E+02	3.2500000000E+02	0.000E+00	0.0
	25	2	5	5	0	0	5.2917109312E+01	3.2181715057E+01	3.0971012262E+02	3.3974449680E+02	1.2518018938E+02	0.000E+00	0.0
	-5	1	9	9	0	501	2.7965883152E+01	-4.5968979499E+01	8.7132919282E+01	1.0249319840E+02	4.1800000000E+00	0.000E+00	0.0
	5	1	9	9	501	0	2.4951226160E+01	7.8150694556E+01	2.2257720334E+02	2.3725129840E+02	4.1800000000E+00	0.000E+00	0.0
</event>
<event>
    11  -1  1.0000000E+00  1.0000000E+00  -1.0000000E+00  -1.0000000E+00
	2212	-1	0	0	0	0	0.0000000000E+00	0.0000000000E+00	6.5000000000E+03	6.5000000000E+03	9.3827000000E-01	0.000E+00	0.0
	2212	-1	0	0	0	0	0.0000000000E+00	0.0000000000E+00	-6.5000000000E+03	6.5000000000E+03	9.3827000000E-01	0.000E+00	0.0
	2212	1	0	0	0	0	0.0000000000E+00	0.0000000000E+00	6.1394209304E+03	6.1394209304E+03	9.3827000000E-01	0.000E+00	0.0
	2212	1	0	0	0	0	0.0000000000E+00	0.0000000000E+00	-5.7337554136E+03	5.7337554136E+03	9.3827000000E-01	0.000E+00	0.0
	51	2	1	2	0	0	-9.7669570230E+01	8.2684590366E+01	-3.3232398168E+02	1.1099470056E+03	1.0512692519E+03	0.000E+00	0.0
	1000022	2	5	5	0	0	9.7669570230E+01	-8.2684590366E+01	-4.0847850211E+02	9.4779201446E+02	8.4562339700E+02	0.000E+00	0.0
	14	1	6	6	0	0	-1.8923096257E+02	-3.0250792207E+01	-3.3584911225E+02	5.0511691104E+02	3.2500000000E+02	0.000E+00	0.0
	-14	1	6	6	0	0	2.8690053280E+02	-5.2433798159E+01	-7.2629389860E+01	4.4267510341E+02	3.2500000000E+02	0.000E+00	0.0
	25	2	5	5	0	0	-9.7669570230E+01	8.2684590366E+01	2.8129852563E+00	1.7903164151E+02	1.2517319739E+02	0.000E+00	0.0
	-5	1	9	9	0	501	-3.3364543196E+01	-3.0663908200E+00	5.1221365866E+01	6.1348970786E+01	4.1800000000E+00	0.000E+00	0.0
	5	1	9	9	501	0	-6.4305027034E+01	8.5750981186E+01	-4.8408380609E+01	1.1768267073E+02	4.1800000000E+00	0.000E+00	0.0
</event>
<event>
    11  -1  1.0000000E+00  1.0000000E+00  -1.0000000E+00  -1.0000000E+00
	2212	-1	0	0	0	0	0.0000000000E+00	0.0000000000E+00	6.5000000000E+03	6.5000000000E+03	9.3827000000E-01	0.000E+00	0.0
	2212	-1	0	0	0	0	0.0000000000E+00	0.0000000000E+00	-6.5000000000E+03	6.5000000000E+03	9.3827000000E-01	0.000E+00	0.0
	2212	1	0	0	0	0	0.0000000000E+00	0.0000000000E+00	6.1690515813E+03	6.1690515813E+03	9.3827000000E-01	0.000E+00	0.0
	2212	1	0	0	0	0	0.0000000000E+00	0.0000000000E+00	-5.6631086406E+03	5.6631086406E+03	9.3827000000E-01	0.000E+00	0.0
	51	2	1	2	0	0	1.6064736533E+01	-6.3950378586E+01	-6.5395191518E+02	1.2409159206E+03	1.0525547435E+03	0.000E+00	0.0
	1000022	2	5	5	0	0	-1.6064736533E+01	6.3950378586E+01	-2.7065943197E+02	8.9331271183E+02	8.4876577825E+02	0.000E+00	0.0
	14	1	6	6	0	0	-2.7003954632E+02	-1.5532256635E+00	-2.0811379593E+02	4.7102029802E+02	3.2500000000E+02	0.000E+00	0.0
	-14	1	6	6	0	0	2.5397480979E+02	6.5503604249E+01	-6.2545636040E+01	4.2229241381E+02	3.2500000000E+02	0.000E+00	0.0
	25	2	5	5	0	0	1.6064736533E+01	-6.3950378586E+01	-2.3528350874E+02	2.7452706623E+02	1.2513614157E+02	0.000E+00	0.0
	-5	1	9	9	0	501	-2.8402461387E+01	-7.7593724646E+01	-9.1540630790E+01	1.2338818988E+02	4.1800000000E+00	0.000E+00	0.0
	5	1	9	9	501	0	4.4467197921E+01	1.3643346060E+01	-1.4374287795E+02	1.5113887635E+02	4.1800000000E+00	0.000E+00	0.0
</event>
<event>
    11  -1  1.0000000E+00  1.0000000E+00  -1.0000000E+00  -1.0000000E+00
	2212	-1	0	0	0	0	0.0000000000E+00	0.0000000000E+00	6.5000000000E+03	6.5000000000E+03	9.3827000000E-01	0.000E+00	0.0
	2212	-1	0	0	0	0	0.0000000000E+00	0.0000000000E+00	-6.5000000000E+03	6.5000000000E+03	9.3827000000E-01	0.000E+00	0.0
	2212	1	0	0	0	0	0.0000000000E+00	0.0000000000E+00	6.1619391319E+03	6.1619391319E+03	9.3827000000E-01	0.000E+00	0.0
	2212	1	0	0	0	0	0.0000000000E+00	0.0000000000E+00	-5.6924069997E+03	5.6924069997E+03	9.3827000000E-01	0.000E+00	0.0
	51	2	1	2	0	0	5.2452246718E+01	-1.1282616574E+02	-4.1846000288E+02	1.1325423255E+03	1.0450178769E+03	0.000E+00	0.0
	1000022	2	5	5	0	0	-5.2452246718E+01	1.1282616574E+02	-4.4194831096E+02	9.6684565180E+02	8.5087673783E+02	0.000E+00	0.0
	14	1	6	6	0	0	2.4488856412E+00	3.2980189860E+02	-2.7358748684E+02	5.3782004640E+02	3.2500000000E+02	0.000E+00	0.0
	-14	1	6	6	0	0	-5.4901132360E+01	-2.1697573286E+02	-1.6836082413E+02	4.2902560539E+02	3.2500000000E+02	0.000E+00	0.0
	25	2	5	5	0	0	5.2452246718E+01	-1.1282616574E+02	-2.7583821184E+01	1.7880821662E+02	1.2542140678E+02	0.000E+00	0.0
	-5	1	9	9	0	501	-2.5801733744E+01	-5.0028878856E+01	2.9086716666E+01	6.3499036766E+01	4.1800000000E+00	0.000E+00	0.0
	5	1	9	9	501	0	7.8253980463E+01	-6.2797286885E+01	-5.6670537850E+01	1.1530917985E+02	4.1800000000E+00	0.000E+00	0.0
</event>
<event>
    11  -1  1.0000000E+00  1.0000000E+00  -1.0000000E+00  -1.0000000E+00
	2212	-1	0	0	0	0	0.0000000000E+00	0.0000000000E+00	6.5000000000E+03	6.5000000000E+03	9.3827000000E-01	0.000E+00	0.0
	2212	-1	0	0	0	0	0.0000000000E+00	0.0000000000E+00	-6.5000000000E+03	6.5000000000E+03	9.3827000000E-01	0.000E+00	0.0
	2212	1	0	0	0	0	0.0000000000E+00	0.0000000000E+00	6.0042578594E+03	6.0042578594E+03	9.3827000000E-01	0.000E+00	0.0
	2212	1	0	0	0	0	0.0000000000E+00	0.0000000000E+00	-5.9666901247E+03	5.9666901247E+03	9.3827000000E-01	0.000E+00	0.0
	51	2	1	2	0	0	1.0758180844E+01	-6.1047405053E+01	-1.3606993607E+02	1.0391796131E+03	1.0283660422E+03	0.000E+00	0.0
	1000022	2	5	5	0	0	-1.0758180844E+01	6.1047405053E+01	6.6933022450E+01	8.5461251629E+02	8.4972936832E+02	0.000E+00	0.0
	14	1	6	6	0	0	7.4018425139E+00	2.9954578209E+02	-1.7289788075E+01	4.4238716031E+02	3.2500000000E+02	0.000E+00	0.0
	-14	1	6	6	0	0	-1.8160023358E+01	-2.3849837703E+02	8.4222810525E+01	4.1222535597E+02	3.2500000000E+02	0.000E+00	0.0
	25	2	5	5	0	0	1.0758180844E+01	-6.1047405053E+01	-1.0450075717E+02	1.7443949958E+02	1.2516471806E+02	0.000E+00	0.0
	-5	1	9	9	0	501	5.5308236659E+00	-1.0942489976E+01	2.8960616891E+01	3.1725665131E+01	4.1800000000E+00	0.000E+00	0.0
	5	1	9	9	501	0	5.2273571780E+00	-5.0104915077E+01	-1.3346137406E+02	1.4271383445E+02	4.1800000000E+00	0.000E+00	0.0
</event>
<event>
    11  -1  1.0000000E+00  1.0000000E+00  -1.0000000E+00  -1.0000000E+00
	2212	-1	0	0	0	0	0.0000000000E+00	0.0000000000E+00	6.5000000000E+03	6.5000000000E+03	9.3827000000E-01	0.000E+00	0.0
	2212	-1	0	0	0	0	0.0000000000E+00	0.0000000000E+00	-6.5000000000E+03	6.5000000000E+03	9.3827000000E-01	0.000E+00	0.0
	2212	1	0	0	0	0	0.0000000000E+00	0.0000000000E+00	5.3660471671E+03	5.3660471671E+03	9.3827000000E-01	0.000E+00	0.0
	2212	1	0	0	0	0	0.0000000000E+00	0.0000000000E+00	-6.2574298018E+03	6.2574298018E+03	9.3827000000E-01	0.000E+00	0.0
	51	2	1	2	0	0	1.3556612939E+02	-1.9459217000E+01	9.2760040056E+02	1.4069299889E+03	1.0489292893E+03	0.000E+00	0.0
	1000022	2	5	5	0	0	-1.3556612939E+02	1.9459217000E+01	7.0419981077E+02	1.1129873685E+03	8.5093282486E+02	0.000E+00	0.0
	14	1	6	6	0	0	-2.9291713390E+02	-1.1614695949E+02	2.5004746163E+02	5.1714533412E+02	3.2500000000E+02	0.000E+00	0.0
	-14	1	6	6	0	0	1.5735100451E+02	1.3560617649E+02	4.5415234914E+02	5.9584203440E+02	3.2500000000E+02	0.000E+00	0.0
	25	2	5	5	0	0	1.3556612939E+02	-1.9459217000E+01	1.8718282387E+02	2.6353566261E+02	1.2512713276E+02	0.000E+00	0.0
	-5	1	9	9	0	501	9.8666157799E+00	-5.3148355935E+01	6.8483316636E+01	8.7347208902E+01	4.1800000000E+00	0.000E+00	0.0
	5	1	9	9	501	0	1.2569951361E+02	3.3689138935E+01	1.1869950723E+02	1.7618845371E+02	4.1800000000E+00	0.000E+00	0.0
</event>
<event>
    11  -1  1.0000000E+00  1.0000000E+00  -1.0000000E+00  -1.0000000E+00
	2212	-1	0	0	0	0	0.0000000000E+00	0.0000000000E+00	6.5000000000E+03	6.5000000000E+03	9.3827000000E-01	0.000E+00	0.0
	2212	-1	0	0	0	0	0.0000000000E+00	0.0000000000E+00	-6.5000000000E+03	6.5000000000E+03	9.3827000000E-01	0.000E+00	0.0
	2212	1	0	0	0	0	0.0000000000E+00	0.0000000000E+00	5.6753776096E+03	5.6753776096E+03	9.3827000000E-01	0.000E+00	0.0
	2212	1	0	0	0	0	0.0000000000E+00	0.0000000000E+00	-6.1613826178E+03	6.1613826178E+03	9.3827000000E-01	0.000E+00	0.0
	51	2	1	2	0	0	7.3206002717E+01	-1.0403488687E+02	5.8231411392E+02	1.2133416684E+03	1.0568471509E+03	0.000E+00	0.0
	1000022	2	5	5	0	0	-7.3206002717E+01	1.0403488687E+02	3.0417974890E+02	9.0845728821E+02	8.4651458838E+02	0.000E+00	0.0
	14	1	6	6	0	0	1.9438431680E+02	2.3678631969E+01	-5.8683697385E+00	3.7948040528E+02	3.2500000000E+02	0.000E+00	0.0
	-14	1	6	6	0	0	-2.6759031952E+02	8.0356254903E+01	3.1004811863E+02	5.2897688293E+02	3.2500000000E+02	0.000E+00	0.0
	25	2	5	5	0	0	7.3206002717E+01	-1.0403488687E+02	1.8182525933E+02	2.5478248432E+02	1.2518511440E+02	0.000E+00	0.0
	-5	1	9	9	0	501	9.4189882863E+01	-1.1340807008E+02	1.2494363268E+02	1.9329125210E+02	4.1800000000E+00	0.000E+00	0.0
	5	1	9	9	501	0	-2.0983880145E+01	9.3731832084E+00	5.6881626646E+01	6.1491232215E+01	4.1800000000E+00	0.000E+00	0.0
</event>
<event>
    11  -1  1.0000000E+00  1.0000000E+00  -1.0000000E+00  -1.0000000E+00
	2212	-1	0	0	0	0	0.0000000000E+00	0.0000000000E+00	6.5000000000E+03	6.5000000000E+03	9.3827000000E-01	0.000E+00	0.0
	2212	-1	0	0	0	0	0.0000000000E+00	0.0000000000E+00	-6.5000000000E+03	6.5000000000E+03	9.3827000000E-01	0.000E+00	0.0
	2212	1	0	0	0	0	0.0000000000E+00	0.0000000000E+00	6.0419568945E+03	6.0419568945E+03	9.3827000000E-01	0.000E+00	0.0
	2212	1	0	0	0	0	0.0000000000E+00	0.0000000000E+00	-5.9018556405E+03	5.9018556405E+03	9.3827000000E-01	0.000E+00	0.0
	51	2	1	2	0	0	-7.5453237439E+01	1.2792278306E+02	-1.2871773489E+02	1.0651428470E+03	1.0468541445E+03	0.000E+00	0.0
	1000022	2	5	5	0	0	7.5453237439E+01	-1.2792278306E+02	-1.2684698984E+02	8.6149414642E+02	8.3906172360E+02	0.000E+00	0.0
	14	1	6	6	0	0	-2.4425481646E+01	-2.5602102190E+02	-2.4252193829E+02	4.8019293868E+02	3.2500000000E+02	0.000E+00	0.0
	-14	1	6	6	0	0	9.9878719086E+01	1.2809823884E+02	1.1567494845E+02	3.8130120773E+02	3.2500000000E+02	0.000E+00	0.0
	25	2	5	5	0	0	-7.5453237439E+01	1.2792278306E+02	-1.3254264144E+01	1.9469331857E+02	1.2518938978E+02	0.000E+00	0.0
	-5	1	9	9	0	501	-4.2406289541E+01	7.1509581790E+01	-6.9426939234E+01	1.0839504588E+02	4.1800000000E+00	0.000E+00	0.0
	5	1	9	9	501	0	-3.3046947899E+01	5.6413201269E+01	5.6172675091E+01	8.6298272692E+01	4.1800000000E+00	0.000E+00	0.0
</event>
<event>
    11  -1  1.0000000E+00  1.0000000E+00  -1.0000000E+00  -1.0000000E+00
	2212	-1	0	0	0	0	0.0000000000E+00	0.0000000000E+00	6.5000000000E+03	6.5000000000E+03	9.3827000000E-01	0.000E+00	0.0
	2212	-1	0	0	0	0	0.0000000000E+00	0.0000000000E+00	-6.5000000000E+03	6.5000000000E+03	9.3827000000E-01	0.000E+00	0.0
	2212	1	0	0	0	0	0.0000000000E+00	0.0000000000E+00	5.7879752709E+03	5.7879752709E+03	9.3827000000E-01	0.000E+00	0.0
	2212	1	0	0	0	0	0.0000000000E+00	0.0000000000E+00	-6.1124379827E+03	6.1124379827E+03	9.3827000000E-01	0.000E+00	0.0
	51	2	1	2	0	0	-1.6475240871E+01	-1.4346002897E+02	3.1369613351E+02	1.1059260549E+03	1.0506259855E+03	0.000E+00	0.0
	1000022	2	5	5	0	0	1.6475240871E+01	1.4346002897E+02	2.7914468456E+02	9.0317971440E+02	8.4673468578E+02	0.000E+00	0.0
	14	1	6	6	0	0	2.2584136915E+02	3.4224091856E+01	-2.6898505308E+01	3.9815090364E+02	3.2500000000E+02	0.000E+00	0.0
	-14	1	6	6	0	0	-2.0936612828E+02	1.0923593711E+02	3.0604318987E+02	5.0502881075E+02	3.2500000000E+02	0.000E+00	0.0
	25	2	5	5	0	0	-1.6475240871E+01	-1.4346002897E+02	4.5318027251E+01	1.9640703194E+02	1.2517901234E+02	0.000E+00	0.0
	-5	1	9	9	0	501	5.1840734179E+01	-5.2104315753E+01	3.5793773965E+01	8.1859563247E+01	4.1800000000E+00	0.000E+00	0.0
	5	1	9	9	501	0	-6.8315975050E+01	-9.1355713213E+01	9.5242532858E+00	1.1454746869E+02	4.1800000000E+00	0.000E+00	0.0
</event>
<event>
    11  -1  1.0000000E+00  1.0000000E+00  -1.0000000E+00  -1.0000000E+00
	2212	-1	0	0	0	0	0.0000000000E+00	0.0000000000E+00	6.5000000000E+03	6.5000000000E+03	9.3827000000E-01	0.000E+00	0.0
	2212	-1	0	0	0	0	0.0000000000E+00	0.0000000000E+00	-6.5000000000E+03	6.5000000000E+03	9.3827000000E-01	0.000E+00	0.0
	2212	1	0	0	0	0	0.0000000000E+00	0.0000000000E+00	5.3790838306E+03	5.3790838306E+03	9.3827000000E-01	0.000E+00	0.0
	2212	1	0	0	0	0	0.0000000000E+00	0.0000000000E+00	-6.2551571315E+03	6.2551571315E+03	9.3827000000E-01	0.000E+00	0.0
	51	2	1	2	0	0	-2.0087004474E+02	5.7886376540E+01	9.3272519667E+02	1.4182627476E+03	1.0477563272E+03	0.000E+00	0.0
	1000022	2	5	5	0	0	2.0087004474E+02	-5.7886376540E+01	6.3177814805E+02	1.0207278949E+03	7.7397816485E+02	0.000E+00	0.0
	14	1	6	6	0	0	2.7323622898E+02	-5.9776702494E+00	5.0711682860E+02	6.6142743156E+02	3.2500000000E+02	0.000E+00	0.0
	-14	1	6	6	0	0	-7.2366184240E+01	-5.1908706290E+01	1.2466131945E+02	3.5930046337E+02	3.2500000000E+02	0.000E+00	0.0
	25	2	5	5	0	0	-2.0087004474E+02	5.7886376540E+01	2.4429515279E+02	3.4503114298E+02	1.2516693048E+02	0.000E+00	0.0
	-5	1	9	9	0	501	-1.4201128332E+02	7.5016111162E+01	1.0270503008E+02	1.9068407676E+02	4.1800000000E+00	0.000E+00	0.0
	5	1	9	9	501	0	-5.8858761426E+01	-1.7129734623E+01	1.4159012271E+02	1.5434706623E+02	4.1800000000E+00	0.000E+00	0.0
</event>
<event>
    11  -1  1.0000000E+00  1.0000000E+00  -1.0000000E+00  -1.0000000E+00
	2212	-1	0	0	0	0	0.0000000000E+00	0.0000000000E+00	6.5000000000E+03	6.5000000000E+03	9.3827000000E-01	0.000E+00	0.0
	2212	-1	0	0	0	0	0.0000000000E+00	0.0000000000E+00	-6.5000000000E+03	6.5000000000E+03	9.3827000000E-01	0.000E+00	0.0
	2212	1	0	0	0	0	0.0000000000E+00	0.0000000000E+00	6.2543951113E+03	6.2543951113E+03	9.3827000000E-01	0.000E+00	0.0
	2212	1	0	0	0	0	0.0000000000E+00	0.0000000000E+00	-5.3750139315E+03	5.3750139315E+03	9.3827000000E-01	0.000E+00	0.0
	51	2	1	2	0	0	-4.5810085557E+01	-9.7798902687E+01	-7.8251532254E+02	1.3149911527E+03	1.0512888815E+03	0.000E+00	0.0
	1000022	2	5	5	0	0	4.5810085557E+01	9.7798902687E+01	-8.2984206765E+02	1.1980060656E+03	8.5727328584E+02	0.000E+00	0.0
	14	1	6	6	0	0	8.9551144700E+01	-9.7570064837E+01	-8.5069608318E+01	3.6111101247E+02	3.2500000000E+02	0.000E+00	0.0
	-14	1	6	6	0	0	-4.3741059143E+01	1.9536896752E+02	-7.4477245934E+02	8.3689505311E+02	3.2500000000E+02	0.000E+00	0.0
	25	2	5	5	0	0	-4.5810085557E+01	-9.7798902687E+01	-4.9539112155E+01	1.7258489156E+02	1.2517280797E+02	0.000E+00	0.0
	-5	1	9	9	0	501	-2.8245757396E+01	2.6907073477E+01	-1.4091989247E+01	4.1687767689E+01	4.1800000000E+00	0.000E+00	0.0
	5	1	9	9	501	0	-1.7564328161E+01	-1.2470597616E+02	-3.5447122908E+01	1.3089712387E+02	4.1800000000E+00	0.000E+00	0.0
</event>
<event>
    11  -1  1.0000000E+00  1.0000000E+00  -1.0000000E+00  -1.0000000E+00
	2212	-1	0	0	0	0	0.0000000000E+00	0.0000000000E+00	6.5000000000E+03	6.5000000000E+03	9.3827000000E-01	0.000E+00	0.0
	2212	-1	0	0	0	0	0.0000000000E+00	0.0000000000E+00	-6.5000000000E+03	6.5000000000E+03	9.3827000000E-01	0.000E+00	0.0
	2212	1	0	0	0	0	0.0000000000E+00	0.0000000000E+00	6.1850340419E+03	6.1850340419E+03	9.3827000000E-01	0.000E+00	0.0
	2212	1	0	0	0	0	0.0000000000E+00	0.0000000000E+00	-5.5459069066E+03	5.5459069066E+03	9.3827000000E-01	0.000E+00	0.0
	51	2	1	2	0	0	1.1920098158E+02	1.3429702902E+02	-5.8353792976E+02	1.2549057584E+03	1.0963700931E+03	0.000E+00	0.0
	1000022	2	5	5	0	0	-1.1920098158E+02	-1.3429702902E+02	-5.7232912751E+02	1.0401987213E+03	8.4982832598E+02	0.000E+00	0.0
	14	1	6	6	0	0	-1.6661653274E+02	1.3389009100E+02	-9.2453608999E+01	3.9982533095E+02	3.2500000000E+02	0.000E+00	0.0
	-14	1	6	6	0	0	4.7415551163E+01	-2.6818712002E+02	-4.7987551851E+02	6.4037339038E+02	3.2500000000E+02	0.000E+00	0.0
	25	2	5	5	0	0	1.1920098158E+02	1.3429702902E+02	-6.6798007767E+01	2.2886033012E+02	1.2518191102E+02	0.000E+00	0.0
	-5	1	9	9	0	501	1.0560013837E+02	1.5824528008E+02	-6.4436128197E+01	2.0090406892E+02	4.1800000000E+00	0.000E+00	0.0
	5	1	9	9	501	0	1.3600843212E+01	-2.3948251063E+01	-2.3618795698E+00	2.7956261198E+01	4.1800000000E+00	0.000E+00	0.0
</event>
<event>
    11  -1  1.0000000E+00  1.0000000E+00  -1.0000000E+00  -1.0000000E+00
	2212	-1	0	0	0	0	0.0000000000E+00	0.0000000000E+00	6.5000000000E+03	6.5000000000E+03	9.3827000000E-01	0.000E+00	0.0
	2212	-1	0	0	0	0	0.0000000000E+00	0.0000000000E+00	-6.5000000000E+03	6.5000000000E+03	9.3827000000E-01	0.000E+00	0.0
	2212	1	0	0	0	0	0.0000000000E+00	0.0000000000E+00	5.8836590538E+03	5.8836590538E+03	9.3827000000E-01	0.000E+00	0.0
	2212	1	0	0	0	0	0.0000000000E+00	0.0000000000E+00	-6.0321470390E+03	6.0321470390E+03	9.3827000000E-01	0.000E+00	0.0
	51	2	1	2	0	0	-4.7073220532E+01	6.9240842828E+01	-1.0485058201E+01	1.0772872716E+03	1.0739775355E+03	0.000E+00	0.0
	1000022	2	5	5	0	0	4.7073220532E+01	-6.9240842828E+01	2.7919601802E+02	8.8472187799E+02	8.3532760191E+02	0.000E+00	0.0
	14	1	6	6	0	0	-7.6968206450E+01	1.3052933834E+02	3.2116144180E+02	4.8138517288E+02	3.2500000000E+02	0.000E+00	0.0
	-14	1	6	6	0	0	1.2404142698E+02	-1.9977018117E+02	-4.1965423781E+01	4.0333670511E+02	3.2500000000E+02	0.000E+00	0.0
	25	2	5	5	0	0	-4.7073220532E+01	6.9240842828E+01	-1.3070803289E+02	1.9947202922E+02	1.2527696586E+02	0.000E+00	0.0
	-5	1	9	9	0	501	-8.2033644108E+01	7.4100853137E+01	-7.5942072208E+01	1.3418318051E+02	4.1800000000E+00	0.000E+00	0.0
	5	1	9	9	501	0	3.4960423575E+01	-4.8600103091E+00	-5.4765960678E+01	6.5288848709E+01	4.1800000000E+00	0.000E+00	0.0
</event>
<event>
    11  -1  1.0000000E+00  1.0000000E+00  -1.0000000E+00  -1.0000000E+00
	2212	-1	0	0	0	0	0.0000000000E+00	0.0000000000E+00	6.5000000000E+03	6.5000000000E+03	9.3827000000E-01	0.000E+00	0.0
	2212	-1	0	0	0	0	0.0000000000E+00	0.0000000000E+00	-6.5000000000E+03	6.5000000000E+03	9.3827000000E-01	0.000E+00	0.0
	2212	1	0	0	0	0	0.0000000000E+00	0.0000000000E+00	6.1991321508E+03	6.1991321508E+03	9.3827000000E-01	0.000E+00	0.0
	2212	1	0	0	0	0	0.0000000000E+00	0.0000000000E+00	-5.5796482627E+03	5.5796482627E+03	9.3827000000E-01	0.000E+00	0.0
	51	2	1	2	0	0	1.9525018180E+02	-7.7031855080E+01	-6.9281559256E+02	1.2773672049E+03	1.0524338415E+03	0.000E+00	0.0
	1000022	2	5	5	0	0	-1.9525018180E+02	7.7031855080E+01	-4.1201392856E+02	9.0063851357E+02	7.7287626087E+02	0.000E+00	0.0
	14	1	6	6	0	0	-1.1357872201E+02	2.4299635460E+02	-1.6540763400E+02	4.5269420123E+02	3.2500000000E+02	0.000E+00	0.0
	-14	1	6	6	0	0	-8.1671459788E+01	-1.6596449952E+02	-2.4660629456E+02	4.4794431234E+02	3.2500000000E+02	0.000E+00	0.0
	25	2	5	5	0	0	1.9525018180E+02	-7.7031855080E+01	-2.0746995959E+02	3.2058107289E+02	1.2518745933E+02	0.000E+00	0.0
	-5	1	9	9	0	501	1.3344415406E+02	-9.7055053428E+01	-9.4505062754E+01	1.9019911918E+02	4.1800000000E+00	0.000E+00	0.0
	5	1	9	9	501	0	6.1806027733E+01	2.0023198348E+01	-1.1296489683E+02	1.3038195371E+02	4.1800000000E+00	0.000E+00	0.0
</event>
<event>
    11  -1  1.0000000E+00  1.0000000E+00  -1.0000000E+00  -1.0000000E+00
	2212	-1	0	0	0	0	0.0000000000E+00	0.0000000000E+00	6.5000000000E+03	6.5000000000E+03	9.3827000000E-01	0.000E+00	0.0
	2212	-1	0	0	0	0	0.0000000000E+00	0.0000000000E+00	-6.5000000000E+03	6.5000000000E+03	9.3827000000E-01	0.000E+00	0.0
	2212	1	0	0	0	0	0.0000000000E+00	0.0000000000E+00	6.2985171922E+03	6.2985171922E+03	9.3827000000E-01	0.000E+00	0.0
	2212	1	0	0	0	0	0.0000000000E+00	0.0000000000E+00	-5.1295838602E+03	5.1295838602E+03	9.3827000000E-01	0.000E+00	0.0
	51	2	1	2	0	0	1.1018436318E+02	-4.7312337892E+00	-1.3077396356E+03	1.6813111252E+03	1.0509334740E+03	0.000E+00	0.0
	1000022	2	5	5	0	0	-1.1018436318E+02	4.7312337892E+00	-8.3169974854E+02	1.1956557850E+03	8.5188338758E+02	0.000E+00	0.0
	14	1	6	6	0	0	-1.5484020123E+02	-6.6554539402E+01	-8.3369716726E+01	3.7547370653E+02	3.2500000000E+02	0.000E+00	0.0
	-14	1	6	6	0	0	4.4655838050E+01	7.1285773192E+01	-7.4833003182E+02	8.2018207847E+02	3.2500000000E+02	0.000E+00	0.0
	25	2	5	5	0	0	1.1018436318E+02	-4.7312337892E+00	-3.3723358342E+02	3.7624316256E+02	1.2517767022E+02	0.000E+00	0.0
	-5	1	9	9	0	501	3.4253407650E+01	-2.5678586698E+01	-2.6757325024E+02	2.7100849137E+02	4.1800000000E+00	0.000E+00	0.0
	5	1	9	9	501	0	7.5930955528E+01	2.0947352909E+01	-6.9660333183E+01	1.0523467119E+02	4.1800000000E+00	0.000E+00	0.0
</event>
<event>
    11  -1  1.0000000E+00  1.0000000E+00  -1.0000000E+00  -1.0000000E+00
	2212	-1	0	0	0	0	0.0000000000E+00	0.0000000000E+00	6.5000000000E+03	6.5000000000E+03	9.3827000000E-01	0.000E+00	0.0
	2212	-1	0	0	0	0	0.0000000000E+00	0.0000000000E+00	-6.5000000000E+03	6.5000000000E+03	9.3827000000E-01	0.000E+00	0.0
	2212	1	0	0	0	0	0.0000000000E+00	0.0000000000E+00	6.3323872163E+03	6.3323872163E+03	9.3827000000E-01	0.000E+00	0.0
	2212	1	0	0	0	0	0.0000000000E+00	0.0000000000E+00	-4.8384363129E+03	4.8384363129E+03	9.3827000000E-01	0.000E+00	0.0
	51	2	1	2	0	0	-1.1159997595E+02	6.6014407571E+01	-1.6305075644E+03	1.9466290438E+03	1.0554606861E+03	0.000E+00	0.0
	1000022	2	5	5	0	0	1.1159997595E+02	-6.6014407571E+01	-1.0980517966E+03	1.3941879612E+03	8.4925253386E+02	0.000E+00	0.0
	14	1	6	6	0	0	9.1213430337E+01	1.7196393323E+02	-8.2298391426E+02	9.0599062211E+02	3.2500000000E+02	0.000E+00	0.0
	-14	1	6	6	0	0	2.0386545611E+01	-2.3797834080E+02	-2.7506788238E+02	4.8819733905E+02	3.2500000000E+02	0.000E+00	0.0
	25	2	5	5	0	0	-1.1159997595E+02	6.6014407571E+01	-3.9589910677E+02	4.3498850973E+02	1.2516566709E+02	0.000E+00	0.0
	-5	1	9	9	0	501	5.0630868831E+00	-2.3215886703E+01	-1.9816786176E+01	3.1221621651E+01	4.1800000000E+00	0.000E+00	0.0
	5	1	9	9	501	0	-1.1666306283E+02	8.9230294274E+01	-3.7608232059E+02	4.0376688808E+02	4.1800000000E+00	0.000E+00	0.0
</event>
<event>
    11  -1  1.0000000E+00  1.0000000E+00  -1.0000000E+00  -1.0000000E+00
	2212	-1	0	0	0	0	0.0000000000E+00	0.0000000000E+00	6.5000000000E+03	6.5000000000E+03	9.3827000000E-01	0.000E+00	0.0
	2212	-1	0	0	0	0	0.0000000000E+00	0.0000000000E+00	-6.5000000000E+03	6.5000000000E+03	9.3827000000E-01	0.000E+00	0.0
	2212	1	0	0	0	0	0.0000000000E+00	0.0000000000E+00	6.1050325817E+03	6.1050325817E+03	9.3827000000E-01	0.000E+00	0.0
	2212	1	0	0	0	0	0.0000000000E+00	0.0000000000E+00	-5.6252654976E+03	5.6252654976E+03	9.3827000000E-01	0.000E+00	0.0
	51	2	1	2	0	0	2.8891995024E+01	2.4205908926E+01	-7.6441481781E+02	1.4027534350E+03	1.1755707177E+03	0.000E+00	0.0
	1000022	2	5	5	0	0	-2.8891995024E+01	-2.4205908926E+01	-9.0081831206E+01	8.5866897673E+02	8.5309847139E+02	0.000E+00	0.0
	14	1	6	6	0	0	4.4770793494E+01	2.2358911227E+02	8.8276997303E+01	4.0671162183E+02	3.2500000000E+02	0.000E+00	0.0
	-14	1	6	6	0	0	-7.3662788519E+01	-2.4779502120E+02	-1.7835882851E+02	4.5195735490E+02	3.2500000000E+02	0.000E+00	0.0
	25	2	5	5	0	0	2.8891995024E+01	2.4205908926E+01	-3.8968525292E+02	4.1103294391E+02	1.2519109886E+02	0.000E+00	0.0
	-5	1	9	9	0	501	-4.2526688815E+01	2.3565145997E+01	-2.4274225881E+02	2.4759869139E+02	4.1800000000E+00	0.000E+00	0.0
	5	1	9	9	501	0	7.1418683840E+01	6.4076292846E-01	-1.4694299411E+02	1.6343425252E+02	4.1800000000E+00	0.000E+00	0.0
</event>
<event>
    11  -1  1.0000000E+00  1.0000000E+00  -1.0000000E+00  -1.0000000E+00
	2212	-1	0	0	0	0	0.0000000000E+00	0.0000000000E+00	6.5000000000E+03	6.5000000000E+03	9.3827000000E-01	0.000E+00	0.0
	2212	-1	0	0	0	0	0.0000000000E+00	0.0000000000E+00	-6.5000000000E+03	6.5000000000E+03	9.3827000000E-01	0.000E+00	0.0
	2212	1	0	0	0	0	0.0000000000E+00	0.0000000000E+00	6.0311673799E+03	6.0311673799E+03	9.3827000000E-01	0.000E+00	0.0
	2212	1	0	0	0	0	0.0000000000E+00	0.0000000000E+00	-5.9098616161E+03	5.9098616161E+03	9.3827000000E-01	0.000E+00	0.0
	51	2	1	2	0	0	-1.3020361853E+02	-5.1724224996E+01	-8.0240724843E+01	1.0643173637E+03	1.0520002372E+03	0.000E+00	0.0
	1000022	2	5	5	0	0	1.3020361853E+02	5.1724224996E+01	-1.4133930054E+02	8.7002454013E+02	8.4695780581E+02	0.000E+00	0.0
	14	1	6	6	0	0	9.7785951457E+01	2.9205777168E+02	-2.6355579704E+01	4.4853032326E+02	3.2500000000E+02	0.000E+00	0.0
	-14	1	6	6	0	0	3.2417667075E+01	-2.4033354668E+02	-1.1498372083E+02	4.2149421687E+02	3.2500000000E+02	0.000E+00	0.0
	25	2	5	5	0	0	-1.3020361853E+02	-5.1724224996E+01	2.0033536815E+01	1.8894646386E+02	1.2518404801E+02	0.000E+00	0.0
	-5	1	9	9	0	501	-3.0007553091E+01	-4.7086488612E+01	-4.2833023302E+01	7.0496318609E+01	4.1800000000E+00	0.000E+00	0.0
	5	1	9	9	501	0	-1.0019606544E+02	-4.6377363840E+00	6.2866560117E+01	1.1845014525E+02	4.1800000000E+00	0.000E+00	0.0
</event>
<event>
    11  -1  1.0000000E+00  1.0000000E+00  -1.0000000E+00  -1.0000000E+00
	2212	-1	0	0	0	0	0.0000000000E+00	0.0000000000E+00	6.5000000000E+03	6.5000000000E+03	9.3827000000E-01	0.000E+00	0.0
	2212	-1	0	0	0	0	0.0000000000E+00	0.0000000000E+00	-6.5000000000E+03	6.5000000000E+03	9.3827000000E-01	0.000E+00	0.0
	2212	1	0	0	0	0	0.0000000000E+00	0.0000000000E+00	5.7952915860E+03	5.7952915860E+03	9.3827000000E-01	0.000E+00	0.0
	2212	1	0	0	0	0	0.0000000000E+00	0.0000000000E+00	-6.1036363674E+03	6.1036363674E+03	9.3827000000E-01	0.000E+00	0.0
	51	2	1	2	0	0	2.1960716385E+01	-1.4501334016E+01	1.5949538720E+02	1.0693056101E+03	1.0570161529E+03	0.000E+00	0.0
	1000022	2	5	5	0	0	-2.1960716385E+01	1.4501334016E+01	4.0362904769E+02	9.4156213084E+02	8.5025306605E+02	0.000E+00	0.0
	14	1	6	6	0	0	-2.4037769716E+02	-7.7869234897E+01	3.4066361411E+02	5.3434235563E+02	3.2500000000E+02	0.000E+00	0.0
	-14	1	6	6	0	0	2.1841698078E+02	9.2370568913E+01	6.2965433574E+01	4.0721977521E+02	3.2500000000E+02	0.000E+00	0.0
	25	2	5	5	0	0	2.1960716385E+01	-1.4501334016E+01	-9.5284266289E+01	1.5950991576E+02	1.2518690056E+02	0.000E+00	0.0
	-5	1	9	9	0	501	3.7483996557E+01	-2.7086574037E+01	-1.1928248826E+02	1.2800201911E+02	4.1800000000E+00	0.000E+00	0.0
	5	1	9	9	501	0	-1.5523280173E+01	1.2585240020E+01	2.3998221968E+01	3.1507896650E+01	4.1800000000E+00	0.000E+00	0.0
</event>
<event>
    11  -1  1.0000000E+00  1.0000000E+00  -1.0000000E+00  -1.0000000E+00
	2212	-1	0	0	0	0	0.0000000000E+00	0.0000000000E+00	6.5000000000E+03	6.5000000000E+03	9.3827000000E-01	0.000E+00	0.0
	2212	-1	0	0	0	0	0.0000000000E+00	0.0000000000E+00	-6.5000000000E+03	6.5000000000E+03	9.3827000000E-01	0.000E+00	0.0
	2212	1	0	0	0	0	0.0000000000E+00	0.0000000000E+00	6.2962200316E+03	6.2962200316E+03	9.3827000000E-01	0.000E+00	0.0
	2212	1	0	0	0	0	0.0000000000E+00	0.0000000000E+00	-5.1461962732E+03	5.1461962732E+03	9.3827000000E-01	0.000E+00	0.0
	51	2	1	2	0	0	1.0581050668E+02	-8.6692827620E+01	-1.1115496418E+03	1.5355020152E+03	1.0504819478E+03	0.000E+00	0.0
	1000022	2	5	5	0	0	-1.0581050668E+02	8.6692827620E+01	-9.9260700788E+02	1.3143522298E+03	8.5061248655E+02	0.000E+00	0.0
	14	1	6	6	0	0	7.6416442448E+01	-5.7010307499E+00	-1.0948602452E+02	3.5140313601E+02	3.2500000000E+02	0.000E+00	0.0
	-14	1	6	6	0	0	-1.8222694913E+02	9.2393858370E+01	-8.8312098335E+02	9.6294909382E+02	3.2500000000E+02	0.000E+00	0.0
	25	2	5	5	0	0	1.0581050668E+02	-8.6692827620E+01	-1.5741675053E+02	2.4323146538E+02	1.2517988145E+02	0.000E+00	0.0
	-5	1	9	9	0	501	5.8502413345E+01	-1.0046069186E+02	-1.5490328033E+02	1.9371985348E+02	4.1800000000E+00	0.000E+00	0.0
	5	1	9	9	501	0	4.7308093334E+01	1.3767864242E+01	-2.5134702046E+00	4.9511611902E+01	4.1800000000E+00	0.000E+00	0.0
</event>
<event>
    11  -1  1.0000000E+00  1.0000000E+00  -1.0000000E+00  -1.0000000E+00
	2212	-1	0	0	0	0	0.0000000000E+00	0.0000000000E+00	6.5000000000E+03	6.5000000000E+03	9.3827000000E-01	0.000E+00	0.0
	2212	-1	0	0	0	0	0.0000000000E+00	0.0000000000E+00	-6.5000000000E+03	6.5000000000E+03	9.3827000000E-01	0.000E+00	0.0
	2212	1	0	0	0	0	0.0000000000E+00	0.0000000000E+00	6.1881024904E+03	6.1881024904E+03	9.3827000000E-01	0.000E+00	0.0
	2212	1	0	0	0	0	0.0000000000E+00	0.0000000000E+00	-5.6197000213E+03	5.6197000213E+03	9.3827000000E-01	0.000E+00	0.0
	51	2	1	2	0	0	7.8580907271E+01	3.1687681497E+01	-4.5404855040E+02	1.1452478502E+03	1.0479758987E+03	0.000E+00	0.0
	1000022	2	5	5	0	0	-7.8580907271E+01	-3.1687681497E+01	-5.8771694488E+02	1.0398063574E+03	8.5358478519E+02	0.000E+00	0.0
	14	1	6	6	0	0	-3.1386809279E+02	-2.9470025370E+01	-2.6285132344E+02	5.2354319812E+02	3.2500000000E+02	0.000E+00	0.0
	-14	1	6	6	0	0	2.3528718552E+02	-2.2176561265E+00	-3.2486562144E+02	5.1626315931E+02	3.2500000000E+02	0.000E+00	0.0
	25	2	5	5	0	0	7.8580907271E+01	3.1687681497E+01	1.9314475718E+01	1.5239113089E+02	1.2518362375E+02	0.000E+00	0.0
	-5	1	9	9	0	501	1.0184210019E+02	5.3328762029E+01	2.9514615728E+01	1.1876175803E+02	4.1800000000E+00	0.000E+00	0.0
	5	1	9	9	501	0	-2.3261192916E+01	-2.1641080532E+01	-1.0200140009E+01	3.3629372856E+01	4.1800000000E+00	0.000E+00	0.0
</event>
<event>
    11  -1  1.0000000E+00  1.0000000E+00  -1.0000000E+00  -1.0000000E+00
	2212	-1	0	0	0	0	0.0000000000E+00	0.0000000000E+00	6.5000000000E+03	6.5000000000E+03	9.3827000000E-01	0.000E+00	0.0
	2212	-1	0	0	0	0	0.0000000000E+00	0.0000000000E+00	-6.5000000000E+03	6.5000000000E+03	9.3827000000E-01	0.000E+00	0.0
	2212	1	0	0	0	0	0.0000000000E+00	0.0000000000E+00	4.9399329153E+03	4.9399329153E+03	9.3827000000E-01	0.000E+00	0.0
	2212	1	0	0	0	0	0.0000000000E+00	0.0000000000E+00	-6.3241149512E+03	6.3241149512E+03	9.3827000000E-01	0.000E+00	0.0
	51	2	1	2	0	0	-1.4029255631E+00	5.5641941450E+00	1.1619943300E+03	1.5645554169E+03	1.0476497034E+03	0.000E+00	0.0
	1000022	2	5	5	0	0	1.4029255631E+00	-5.5641941450E+00	1.3690750030E+03	1.6097490421E+03	8.4669515531E+02	0.000E+00	0.0
	14	1	6	6	0	0	9.3562307145E+01	-1.9237848676E+02	3.6287460110E+02	5.3203981393E+02	3.2500000000E+02	0.000E+00	0.0
	-14	1	6	6	0	0	-9.2159381582E+01	1.8681429261E+02	1.0062004019E+03	1.0777092281E+03	3.2500000000E+02	0.000E+00	0.0
	25	2	5	5	0	0	-1.4029255631E+00	5.5641941450E+00	1.5107032891E+01	1.2620309140E+02	1.2516416971E+02	0.000E+00	0.0
	-5	1	9	9	0	501	3.3116713350E+01	3.7000326109E+01	4.7801472058E+01	6.9052110512E+01	4.1800000000E+00	0.000E+00	0.0
	5	1	9	9	501	0	-3.4519638913E+01	-3.1436131964E+01	-3.2694439167E+01	5.7150980884E+01	4.1800000000E+00	0.000E+00	0.0
</event>
<event>
    11  -1  1.0000000E+00  1.0000000E+00  -1.0000000E+00  -1.0000000E+00
	2212	-1	0	0	0	0	0.0000000000E+00	0.0000000000E+00	6.5000000000E+03	6.5000000000E+03	9.3827000000E-01	0.000E+00	0.0
	2212	-1	0	0	0	0	0.0000000000E+00	0.0000000000E+00	-6.5000000000E+03	6.5000000000E+03	9.3827000000E-01	0.000E+00	0.0
	2212	1	0	0	0	0	0.0000000000E+00	0.0000000000E+00	6.3071922754E+03	6.3071922754E+03	9.3827000000E-01	0.000E+00	0.0
	2212	1	0	0	0	0	0.0000000000E+00	0.0000000000E+00	-5.0684118962E+03	5.0684118962E+03	9.3827000000E-01	0.000E+00	0.0
	51	2	1	2	0	0	1.2138668335E+02	-2.0777652430E+01	-1.4268302768E+03	1.7762590058E+03	1.0507544809E+03	0.000E+00	0.0
	1000022	2	5	5	0	0	-1.2138668335E+02	2.0777652430E+01	-8.2080989669E+02	1.1710409213E+03	8.2610018461E+02	0.000E+00	0.0
	14	1	6	6	0	0	-2.4008918049E+00	-2.3740043646E+02	-4.2413502087E+02	5.8470526544E+02	3.2500000000E+02	0.000E+00	0.0
	-14	1	6	6	0	0	-1.1898579155E+02	2.5817808889E+02	-3.9667487582E+02	5.8633565581E+02	3.2500000000E+02	0.000E+00	0.0
	25	2	5	5	0	0	1.2138668335E+02	-2.0777652430E+01	-4.1797048261E+02	4.5335490714E+02	1.2515953723E+02	0.000E+00	0.0
	-5	1	9	9	0	501	5.9805256958E+01	1.1096461479E+01	-3.5304403878E+02	3.5826996237E+02	4.1800000000E+00	0.000E+00	0.0
	5	1	9	9	501	0	6.1581426396E+01	-3.1874113909E+01	-6.4926443831E+01	9.5084944776E+01	4.1800000000E+00	0.000E+00	0.0
</event>
<event>
    11  -1  1.0000000E+00  1.0000000E+00  -1.0000000E+00  -1.0000000E+00
	2212	-1	0	0	0	0	0.0000000000E+00	0.0000000000E+00	6.5000000000E+03	6.5000000000E+03	9.3827000000E-01	0.000E+00	0.0
	2212	-1	0	0	0	0	0.0000000000E+00	0.0000000000E+00	-6.5000000000E+03	6.5000000000E+03	9.3827000000E-01	0.000E+00	0.0
	2212	1	0	0	0	0	0.0000000000E+00	0.0000000000E+00	5.0276723188E+03	5.0276723188E+03	9.3827000000E-01	0.000E+00	0.0
	2212	1	0	0	0	0	0.0000000000E+00	0.0000000000E+00	-6.3114403170E+03	6.3114403170E+03	9.3827000000E-01	0.000E+00	0.0
	51	2	1	2	0	0	-1.4246273422E+02	-3.2106434674E+01	1.3069735955E+03	1.6852278768E+03	1.0537962628E+03	0.000E+00	0.0
	1000022	2	5	5	0	0	1.4246273422E+02	3.2106434674E+01	1.0383858697E+03	1.3491037983E+03	8.4882824553E+02	0.000E+00	0.0
	14	1	6	6	0	0	9.5164590912E+01	2.8066103676E+02	6.3619367396E+02	7.7343022161E+02	3.2500000000E+02	0.000E+00	0.0
	-14	1	6	6	0	0	4.7298143304E+01	-2.4855460209E+02	4.0219219574E+02	5.7567357668E+02	3.2500000000E+02	0.000E+00	0.0
	25	2	5	5	0	0	-1.4246273422E+02	-3.2106434674E+01	2.4538212852E+02	3.1178356597E+02	1.2518046662E+02	0.000E+00	0.0
	-5	1	9	9	0	501	9.6009680055E+00	-3.6751622810E+01	6.8504811854E+01	7.8442603303E+01	4.1800000000E+00	0.000E+00	0.0
	5	1	9	9	501	0	-1.5206370222E+02	4.6451881366E+00	1.7687731667E+02	2.3334096267E+02	4.1800000000E+00	0.000E+00	0.0
</event>
<event>
    11  -1  1.0000000E+00  1.0000000E+00  -1.0000000E+00  -1.0000000E+00
	2212	-1	0	0	0	0	0.0000000000E+00	0.0000000000E+00	6.5000000000E+03	6.5000000000E+03	9.3827000000E-01	0.000E+00	0.0
	2212	-1	0	0	0	0	0.0000000000E+00	0.0000000000E+00	-6.5000000000E+03	6.5000000000E+03	9.3827000000E-01	0.000E+00	0.0
	2212	1	0	0	0	0	0.0000000000E+00	0.0000000000E+00	5.9764187572E+03	5.9764187572E+03	9.3827000000E-01	0.000E+00	0.0
	2212	1	0	0	0	0	0.0000000000E+00	0.0000000000E+00	-5.9357271431E+03	5.9357271431E+03	9.3827000000E-01	0.000E+00	0.0
	51	2	1	2	0	0	1.6332287444E+02	-5.2826874182E+01	7.3500493891E-01	1.1005618179E+03	1.0870927903E+03	0.000E+00	0.0
	1000022	2	5	5	0	0	-1.6332287444E+02	5.2826874182E+01	-7.4546410799E+01	8.7272044542E+02	8.5241936190E+02	0.000E+00	0.0
	14	1	6	6	0	0	-2.2841802898E+02	-1.9909186119E+02	2.3666663841E+01	4.4496907323E+02	3.2500000000E+02	0.000E+00	0.0
	-14	1	6	6	0	0	6.5095154545E+01	2.5191873538E+02	-9.8213074640E+01	4.2775137219E+02	3.2500000000E+02	0.000E+00	0.0
	25	2	5	5	0	0	1.6332287444E+02	-5.2826874182E+01	3.3854796648E+01	2.1513365427E+02	1.2518507096E+02	0.000E+00	0.0
	-5	1	9	9	0	501	8.1025145010E+01	-5.3802472590E+01	7.5125106277E+01	1.2296761433E+02	4.1800000000E+00	0.000E+00	0.0
	5	1	9	9	501	0	8.2297729425E+01	9.7559840794E-01	-4.1270309629E+01	9.2166039937E+01	4.1800000000E+00	0.000E+00	0.0
</event>
<event>
    11  -1  1.0000000E+00  1.0000000E+00  -1.0000000E+00  -1.0000000E+00
	2212	-1	0	0	0	0	0.0000000000E+00	0.0000000000E+00	6.5000000000E+03	6.5000000000E+03	9.3827000000E-01	0.000E+00	0.0
	2212	-1	0	0	0	0	0.0000000000E+00	0.0000000000E+00	-6.5000000000E+03	6.5000000000E+03	9.3827000000E-01	0.000E+00	0.0
	2212	1	0	0	0	0	0.0000000000E+00	0.0000000000E+00	5.7018177338E+03	5.7018177338E+03	9.3827000000E-01	0.000E+00	0.0
	2212	1	0	0	0	0	0.0000000000E+00	0.0000000000E+00	-6.1576353736E+03	6.1576353736E+03	9.3827000000E-01	0.000E+00	0.0
	51	2	1	2	0	0	-1.3033931162E+02	1.7179542004E+01	4.8885610445E+02	1.1616114915E+03	1.0455034641E+03	0.000E+00	0.0
	1000022	2	5	5	0	0	1.3033931162E+02	-1.7179542004E+01	3.4652165973E+02	9.2867073948E+02	8.5150960587E+02	0.000E+00	0.0
	14	1	6	6	0	0	3.0734130693E+02	1.2324375659E+02	2.1687343599E+02	5.1215894966E+02	3.2500000000E+02	0.000E+00	0.0
	-14	1	6	6	0	0	-1.7700199531E+02	-1.4042329859E+02	1.2964822374E+02	4.1651178981E+02	3.2500000000E+02	0.000E+00	0.0
	25	2	5	5	0	0	-1.3033931162E+02	1.7179542004E+01	1.0929598010E+02	2.1187615313E+02	1.2514959122E+02	0.000E+00	0.0
	-5	1	9	9	0	501	-3.5883918356E+01	3.3166210641E+01	-1.8230522239E+01	5.2320908497E+01	4.1800000000E+00	0.000E+00	0.0
	5	1	9	9	501	0	-9.4455393264E+01	-1.5986668637E+01	1.2752650234E+02	1.5955524463E+02	4.1800000000E+00	0.000E+00	0.0
</event>
<event>
    11  -1  1.0000000E+00  1.0000000E+00  -1.0000000E+00  -1.0000000E+00
	2212	-1	0	0	0	0	0.0000000000E+00	0.0000000000E+00	6.5000000000E+03	6.5000000000E+03	9.3827000000E-01	0.000E+00	0.0
	2212	-1	0	0	0	0	0.0000000000E+00	0.0000000000E+00	-6.5000000000E+03	6.5000000000E+03	9.3827000000E-01	0.000E+00	0.0
	2212	1	0	0	0	0	0.0000000000E+00	0.0000000000E+00	4.9376785331E+03	4.9376785331E+03	9.3827000000E-01	0.000E+00	0.0
	2212	1	0	0	0	0	0.0000000000E+00	0.0000000000E+00	-6.3213082128E+03	6.3213082128E+03	9.3827000000E-01	0.000E+00	0.0
	51	2	1	2	0	0	5.8465311034E+01	1.0566535245E+02	1.2602601211E+03	1.6491012681E+03	1.0567384067E+03	0.000E+00	0.0
	1000022	2	5	5	0	0	-5.8465311034E+01	-1.0566535245E+02	1.2679419000E+03	1.5321207686E+03	8.5154801895E+02	0.000E+00	0.0
	14	1	6	6	0	0	1.2504740220E+02	-2.7717767498E+02	7.3507820610E+02	8.5931908240E+02	3.2500000000E+02	0.000E+00	0.0
	-14	1	6	6	0	0	-1.8351271323E+02	1.7151232254E+02	5.3286369386E+02	6.7280168619E+02	3.2500000000E+02	0.000E+00	0.0
	25	2	5	5	0	0	5.8465311034E+01	1.0566535245E+02	1.1568777972E+02	2.0889248546E+02	1.2517607121E+02	0.000E+00	0.0
	-5	1	9	9	0	501	3.8792922577E+01	1.3251572341E+02	1.0554245009E+02	1.7384472659E+02	4.1800000000E+00	0.000E+00	0.0
	5	1	9	9	501	0	1.9672388456E+01	-2.6850370963E+01	1.0145329632E+01	3.5047758869E+01	4.1800000000E+00	0.000E+00	0.0
</event>
<event>
    11  -1  1.0000000E+00  1.0000000E+00  -1.0000000E+00  -1.0000000E+00
	2212	-1	0	0	0	0	0.0000000000E+00	0.0000000000E+00	6.5000000000E+03	6.5000000000E+03	9.3827000000E-01	0.000E+00	0.0
	2212	-1	0	0	0	0	0.0000000000E+00	0.0000000000E+00	-6.5000000000E+03	6.5000000000E+03	9.3827000000E-01	0.000E+00	0.0
	2212	1	0	0	0	0	0.0000000000E+00	0.0000000000E+00	5.4982827622E+03	5.4982827622E+03	9.3827000000E-01	0.000E+00	0.0
	2212	1	0	0	0	0	0.0000000000E+00	0.0000000000E+00	-6.2255682069E+03	6.2255682069E+03	9.3827000000E-01	0.000E+00	0.0
	51	2	1	2	0	0	4.7167710577E+00	1.0617170319E+02	8.9268834010E+02	1.3812311110E+03	1.0486239702E+03	0.000E+00	0.0
	1000022	2	5	5	0	0	-4.7167710577E+00	-1.0617170319E+02	4.2643803059E+02	9.3340594349E+02	8.2346984336E+02	0.000E+00	0.0
	14	1	6	6	0	0	-1.3937035162E+02	-1.3227204438E+02	-3.1224538103E+00	3.7756421752E+02	3.2500000000E+02	0.000E+00	0.0
	-14	1	6	6	0	0	1.3465358057E+02	2.6100341190E+01	4.2956048440E+02	5.5584172597E+02	3.2500000000E+02	0.000E+00	0.0
	25	2	5	5	0	0	4.7167710577E+00	1.0617170319E+02	3.0084741415E+02	3.4274308739E+02	1.2517579186E+02	0.000E+00	0.0
	-5	1	9	9	0	501	1.7592005837E+01	2.3861823765E+01	-6.2273101032E-01	2.9945375214E+01	4.1800000000E+00	0.000E+00	0.0
	5	1	9	9	501	0	-1.2875234780E+01	8.2309879422E+01	3.0147014516E+02	3.1279771217E+02	4.1800000000E+00	0.000E+00	0.0
</event>
<event>
    11  -1  1.0000000E+00  1.0000000E+00  -1.0000000E+00  -1.0000000E+00
	2212	-1	0	0	0	0	0.0000000000E+00	0.0000000000E+00	6.5000000000E+03	6.5000000000E+03	9.3827000000E-01	0.000E+00	0.0
	2212	-1	0	0	0	0	0.0000000000E+00	0.0000000000E+00	-6.5000000000E+03	6.5000000000E+03	9.3827000000E-01	0.000E+00	0.0
	2212	1	0	0	0	0	0.0000000000E+00	0.0000000000E+00	6.1220520082E+03	6.1220520082E+03	9.3827000000E-01	0.000E+00	0.0
	2212	1	0	0	0	0	0.0000000000E+00	0.0000000000E+00	-5.8001642171E+03	5.8001642171E+03	9.3827000000E-01	0.000E+00	0.0
	51	2	1	2	0	0	5.0124923158E+01	-1.0315322622E+02	-3.7468226320E+02	1.1007025072E+03	1.0285942421E+03	0.000E+00	0.0
	1000022	2	5	5	0	0	-5.0124923158E+01	1.0315322622E+02	-2.1621510973E+02	8.7781180296E+02	8.4300147790E+02	0.000E+00	0.0
	14	1	6	6	0	0	9.9920152203E+01	-8.9846634126E+01	9.6637009229E+01	3.6471929759E+02	3.2500000000E+02	0.000E+00	0.0
	-14	1	6	6	0	0	-1.5004507536E+02	1.9299986035E+02	-3.1285211896E+02	5.1309250538E+02	3.2500000000E+02	0.000E+00	0.0
	25	2	5	5	0	0	5.0124923158E+01	-1.0315322622E+02	-1.0567268142E+02	1.9997197174E+02	1.2517578792E+02	0.000E+00	0.0
	-5	1	9	9	0	501	-3.0763662838E+00	-9.4068099092E+01	-1.6486440243E+01	9.5642806359E+01	4.1800000000E+00	0.000E+00	0.0
	5	1	9	9	501	0	5.3201289442E+01	-9.0851271301E+00	-8.9186241180E+01	1.0432916538E+02	4.1800000000E+00	0.000E+00	0.0
</event>
<event>
    11  -1  1.0000000E+00  1.0000000E+00  -1.0000000E+00  -1.0000000E+00
	2212	-1	0	0	0	0	0.0000000000E+00	0.0000000000E+00	6.5000000000E+03	6.5000000000E+03	9.3827000000E-01	0.000E+00	0.0
	2212	-1	0	0	0	0	0.0000000000E+00	0.0000000000E+00	-6.5000000000E+03	6.5000000000E+03	9.3827000000E-01	0.000E+00	0.0
	2212	1	0	0	0	0	0.0000000000E+00	0.0000000000E+00	5.1790617339E+03	5.1790617339E+03	9.3827000000E-01	0.000E+00	0.0
	2212	1	0	0	0	0	0.0000000000E+00	0.0000000000E+00	-6.2830342881E+03	6.2830342881E+03	9.3827000000E-01	0.000E+00	0.0
	51	2	1	2	0	0	-1.0591545720E+02	2.5090804572E+01	1.3010283221E+03	1.6884654490E+03	1.0706975506E+03	0.000E+00	0.0
	1000022	2	5	5	0	0	1.0591545720E+02	-2.5090804572E+01	7.0446697882E+02	1.1053170498E+03	8.4475110167E+02	0.000E+00	0.0
	14	1	6	6	0	0	1.1530902445E+02	2.4934925321E+02	3.7472809500E+02	5.6702501389E+02	3.2500000000E+02	0.000E+00	0.0
	-14	1	6	6	0	0	-9.3935672502E+00	-2.7444005778E+02	3.2973888383E+02	5.3829203591E+02	3.2500000000E+02	0.000E+00	0.0
	25	2	5	5	0	0	-1.0591545720E+02	2.5090804572E+01	3.9950557539E+02	4.3258692815E+02	1.2521626530E+02	0.000E+00	0.0
	-5	1	9	9	0	501	-9.7834996437E+01	6.4636477302E+01	2.2887964189E+02	2.5720210652E+02	4.1800000000E+00	0.000E+00	0.0
	5	1	9	9	501	0	-8.0804607587E+00	-3.9545672731E+01	1.7062593350E+02	1.7538482163E+02	4.1800000000E+00	0.000E+00	0.0
</event>
<event>
    11  -1  1.0000000E+00  1.0000000E+00  -1.0000000E+00  -1.0000000E+00
	2212	-1	0	0	0	0	0.0000000000E+00	0.0000000000E+00	6.5000000000E+03	6.5000000000E+03	9.3827000000E-01	0.000E+00	0.0
	2212	-1	0	0	0	0	0.0000000000E+00	0.0000000000E+00	-6.5000000000E+03	6.5000000000E+03	9.3827000000E-01	0.000E+00	0.0
	2212	1	0	0	0	0	0.0000000000E+00	0.0000000000E+00	5.6231642982E+03	5.6231642982E+03	9.3827000000E-01	0.000E+00	0.0
	2212	1	0	0	0	0	0.0000000000E+00	0.0000000000E+00	-6.1848775169E+03	6.1848775169E+03	9.3827000000E-01	0.000E+00	0.0
	51	2	1	2	0	0	1.0852313936E+02	4.3149682699E+01	5.3225146514E+02	1.1841340141E+03	1.0513051766E+03	0.000E+00	0.0
	1000022	2	5	5	0	0	-1.0852313936E+02	-4.3149682699E+01	5.0205056264E+02	1.0106599245E+03	8.6933281810E+02	0.000E+00	0.0
	14	1	6	6	0	0	1.6505335515E+02	-1.6290140331E+02	9.5354296821E+01	4.1048376237E+02	3.2500000000E+02	0.000E+00	0.0
	-14	1	6	6	0	0	-2.7357649451E+02	1.1975172061E+02	4.0669626582E+02	6.0017616211E+02	3.2500000000E+02	0.000E+00	0.0
	25	2	5	5	0	0	1.0852313936E+02	4.3149682699E+01	5.9662656049E+01	1.8129826037E+02	1.2518090826E+02	0.000E+00	0.0
	-5	1	9	9	0	501	9.2047451309E+01	2.9281622624E+01	9.7659943163E+01	1.3742300977E+02	4.1800000000E+00	0.000E+00	0.0
	5	1	9	9	501	0	1.6475688046E+01	1.3868060075E+01	-3.7997287114E+01	4.3875250596E+01	4.1800000000E+00	0.000E+00	0.0
</event>
<event>
    11  -1  1.0000000E+00  1.0000000E+00  -1.0000000E+00  -1.0000000E+00
	2212	-1	0	0	0	0	0.0000000000E+00	0.0000000000E+00	6.5000000000E+03	6.5000000000E+03	9.3827000000E-01	0.000E+00	0.0
	2212	-1	0	0	0	0	0.0000000000E+00	0.0000000000E+00	-6.5000000000E+03	6.5000000000E+03	9.3827000000E-01	0.000E+00	0.0
	2212	1	0	0	0	0	0.0000000000E+00	0.0000000000E+00	5.9799500170E+03	5.9799500170E+03	9.3827000000E-01	0.000E+00	0.0
	2212	1	0	0	0	0	0.0000000000E+00	0.0000000000E+00	-5.9662661019E+03	5.9662661019E+03	9.3827000000E-01	0.000E+00	0.0
	51	2	1	2	0	0	-4.1301025191E+01	-7.3524698999E+01	-9.1854287823E+01	1.0610476355E+03	1.0536950311E+03	0.000E+00	0.0
	1000022	2	5	5	0	0	4.1301025191E+01	7.3524698999E+01	6.6612255679E+01	8.8281465333E+02	8.7624931582E+02	0.000E+00	0.0
	14	1	6	6	0	0	2.1237777529E+02	-1.8571975194E+02	4.5364566124E+01	4.3275754131E+02	3.2500000000E+02	0.000E+00	0.0
	-14	1	6	6	0	0	-1.7107675010E+02	2.5924445094E+02	2.1247689555E+01	4.5005711202E+02	3.2500000000E+02	0.000E+00	0.0
	25	2	5	5	0	0	-4.1301025191E+01	-7.3524698999E+01	-8.0296170817E+01	1.7096922778E+02	1.2518524576E+02	0.000E+00	0.0
	-5	1	9	9	0	501	-6.6992794829E+01	-6.9177893698E+01	-9.9345722748E+01	1.3842203786E+02	4.1800000000E+00	0.000E+00	0.0
	5	1	9	9	501	0	2.5691769638E+01	-4.3468053010E+00	1.9049551931E+01	3.2547189929E+01	4.1800000000E+00	0.000E+00	0.0
</event>
<event>
    11  -1  1.0000000E+00  1.0000000E+00  -1.0000000E+00  -1.0000000E+00
	2212	-1	0	0	0	0	0.0000000000E+00	0.0000000000E+00	6.5000000000E+03	6.5000000000E+03	9.3827000000E-01	0.000E+00	0.0
	2212	-1	0	0	0	0	0.0000000000E+00	0.0000000000E+00	-6.5000000000E+03	6.5000000000E+03	9.3827000000E-01	0.000E+00	0.0
	2212	1	0	0	0	0	0.0000000000E+00	0.0000000000E+00	6.2147505322E+03	6.2147505322E+03	9.3827000000E-01	0.000E+00	0.0
	2212	1	0	0	0	0	0.0000000000E+00	0.0000000000E+00	-5.5387884417E+03	5.5387884417E+03	9.3827000000E-01	0.000E+00	0.0
	51	2	1	2	0	0	-1.3503667177E+02	2.1912789335E+01	-6.8655862261E+02	1.2596897067E+03	1.0472537141E+03	0.000E+00	0.0
	1000022	2	5	5	0	0	1.3503667177E+02	-2.1912789335E+01	-5.5138858002E+02	1.0230610010E+03	8.5082863877E+02	0.000E+00	0.0
	14	1	6	6	0	0	-1.3283880045E+02	8.7733307292E+01	-6.0306741767E+01	3.6688579042E+02	3.2500000000E+02	0.000E+00	0.0
	-14	1	6	6	0	0	2.6787547222E+02	-1.0964609663E+02	-4.9108183826E+02	6.5617521058E+02	3.2500000000E+02	0.000E+00	0.0
	25	2	5	5	0	0	-1.3503667177E+02	2.1912789335E+01	-1.2457351047E+02	2.2340002508E+02	1.2519560151E+02	0.000E+00	0.0
	-5	1	9	9	0	501	-4.3021533964E+01	-3.4711305420E+01	-9.7149395420E+01	1.1185349587E+02	4.1800000000E+00	0.000E+00	0.0
	5	1	9	9	501	0	-9.2015137806E+01	5.6624094756E+01	-2.7424115050E+01	1.1154652921E+02	4.1800000000E+00	0.000E+00	0.0
</event>
<event>
    11  -1  1.0000000E+00  1.0000000E+00  -1.0000000E+00  -1.0000000E+00
	2212	-1	0	0	0	0	0.0000000000E+00	0.0000000000E+00	6.5000000000E+03	6.5000000000E+03	9.3827000000E-01	0.000E+00	0.0
	2212	-1	0	0	0	0	0.0000000000E+00	0.0000000000E+00	-6.5000000000E+03	6.5000000000E+03	9.3827000000E-01	0.000E+00	0.0
	2212	1	0	0	0	0	0.0000000000E+00	0.0000000000E+00	6.2212483607E+03	6.2212483607E+03	9.3827000000E-01	0.000E+00	0.0
	2212	1	0	0	0	0	0.0000000000E+00	0.0000000000E+00	-5.4887218795E+03	5.4887218795E+03	9.3827000000E-01	0.000E+00	0.0
	51	2	1	2	0	0	1.4057181702E+02	-5.8670834991E+01	-8.0939056945E+02	1.3438368696E+03	1.0618765161E+03	0.000E+00	0.0
	1000022	2	5	5	0	0	-1.4057181702E+02	5.8670834991E+01	-5.2273331865E+02	1.0021253633E+03	8.4130994209E+02	0.000E+00	0.0
	14	1	6	6	0	0	-2.3230068331E+02	-4.0929975714E+01	-3.8489419961E+01	4.0341703710E+02	3.2500000000E+02	0.000E+00	0.0
	-14	1	6	6	0	0	9.1728866288E+01	9.9600810704E+01	-4.8424389869E+02	5.9870832617E+02	3.2500000000E+02	0.000E+00	0.0
	25	2	5	5	0	0	1.4057181702E+02	-5.8670834991E+01	-2.0979316250E+02	2.8790439649E+02	1.2519212382E+02	0.000E+00	0.0
	-5	1	9	9	0	501	1.7189561744E+01	3.0830113632E+01	-1.0686797837E+01	3.7116801957E+01	4.1800000000E+00	0.000E+00	0.0
	5	1	9	9	501	0	1.2338225527E+02	-8.9500948623E+01	-1.9910636466E+02	2.5078759453E+02	4.1800000000E+00	0.000E+00	0.0
</event>
<event>
    11  -1  1.0000000E+00  1.0000000E+00  -1.0000000E+00  -1.0000000E+00
	2212	-1	0	0	0	0	0.0000000000E+00	0.0000000000E+00	6.5000000000E+03	6.5000000000E+03	9.3827000000E-01	0.000E+00	0.0
	2212	-1	0	0	0	0	0.0000000000E+00	0.0000000000E+00	-6.5000000000E+03	6.5000000000E+03	9.3827000000E-01	0.000E+00	0.0
	2212	1	0	0	0	0	0.0000000000E+00	0.0000000000E+00	6.2958298448E+03	6.2958298448E+03	9.3827000000E-01	0.000E+00	0.0
	2212	1	0	0	0	0	0.0000000000E+00	0.0000000000E+00	-5.1384140971E+03	5.1384140971E+03	9.3827000000E-01	0.000E+00	0.0
	51	2	1	2	0	0	4.4639155242E+01	1.3916828366E+02	-1.1124269147E+03	1.5397515795E+03	1.0545050121E+03	0.000E+00	0.0
	1000022	2	5	5	0	0	-4.4639155242E+01	-1.3916828366E+02	-9.9888149200E+02	1.3164337930E+03	8.4491019105E+02	0.000E+00	0.0
	14	1	6	6	0	0	1.5500065663E+02	-8.4835335811E+01	-8.0324991284E+02	8.8434024009E+02	3.2500000000E+02	0.000E+00	0.0
	-14	1	6	6	0	0	-1.9963981187E+02	-5.4332947846E+01	-1.9563157916E+02	4.3209355291E+02	3.2500000000E+02	0.000E+00	0.0
	25	2	5	5	0	0	4.4639155242E+01	1.3916828366E+02	-1.5853425564E+02	2.4932226510E+02	1.2517194695E+02	0.000E+00	0.0
	-5	1	9	9	0	501	4.8745512960E+01	2.4601059556E+01	-1.1361631079E+02	1.2612484150E+02	4.1800000000E+00	0.000E+00	0.0
	5	1	9	9	501	0	-4.1063577176E+00	1.1456722410E+02	-4.4917944854E+01	1.2319742360E+02	4.1800000000E+00	0.000E+00	0.0
</event>
<event>
    11  -1  1.0000000E+00  1.0000000E+00  -1.0000000E+00  -1.0000000E+00
	2212	-1	0	0	0	0	0.0000000000E+00	0.0000000000E+00	6.5000000000E+03	6.5000000000E+03	9.3827000000E-01	0.000E+00	0.0
	2212	-1	0	0	0	0	0.0000000000E+00	0.0000000000E+00	-6.5000000000E+03	6.5000000000E+03	9.3827000000E-01	0.000E+00	0.0
	2212	1	0	0	0	0	0.0000000000E+00	0.0000000000E+00	6.2239149791E+03	6.2239149791E+03	9.3827000000E-01	0.000E+00	0.0
	2212	1	0	0	0	0	0.0000000000E+00	0.0000000000E+00	-5.5382987243E+03	5.5382987243E+03	9.3827000000E-01	0.000E+00	0.0
	51	2	1	2	0	0	-1.2227371562E+02	9.9948333405E+00	-6.9649564017E+02	1.2498808752E+03	1.0305558050E+03	0.000E+00	0.0
	1000022	2	5	5	0	0	1.2227371562E+02	-9.9948333405E+00	-5.6293011047E+02	1.0238399195E+03	8.4634928561E+02	0.000E+00	0.0
	14	1	6	6	0	0	-3.3495459477E+01	-2.5281235858E+02	-3.4216098632E+02	5.3640952174E+02	3.2500000000E+02	0.000E+00	0.0
	-14	1	6	6	0	0	1.5576917510E+02	2.4281752524E+02	-2.2076912415E+02	4.8743039775E+02	3.2500000000E+02	0.000E+00	0.0
	25	2	5	5	0	0	-1.2227371562E+02	9.9948333405E+00	-1.2268614434E+02	2.1394637712E+02	1.2518148443E+02	0.000E+00	0.0
	-5	1	9	9	0	501	-5.4072498765E+01	-2.6148911086E+01	-1.2266715852E+02	1.3664664230E+02	4.1800000000E+00	0.000E+00	0.0
	5	1	9	9	501	0	-6.8201216858E+01	3.6143744427E+01	-1.8985820048E-02	7.7299734816E+01	4.1800000000E+00	0.000E+00	0.0
</event>
<event>
    11  -1  1.0000000E+00  1.0000000E+00  -1.0000000E+00  -1.0000000E+00
	2212	-1	0	0	0	0	0.0000000000E+00	0.0000000000E+00	6.5000000000E+03	6.5000000000E+03	9.3827000000E-01	0.000E+00	0.0
	2212	-1	0	0	0	0	0.0000000000E+00	0.0000000000E+00	-6.5000000000E+03	6.5000000000E+03	9.3827000000E-01	0.000E+00	0.0
	2212	1	0	0	0	0	0.0000000000E+00	0.0000000000E+00	5.4193052637E+03	5.4193052637E+03	9.3827000000E-01	0.000E+00	0.0
	2212	1	0	0	0	0	0.0000000000E+00	0.0000000000E+00	-6.2345408785E+03	6.2345408785E+03	9.3827000000E-01	0.000E+00	0.0
	51	2	1	2	0	0	-1.6766173332E+02	2.6264129088E+01	7.2630227710E+02	1.3053108290E+03	1.0712241135E+03	0.000E+00	0.0
	1000022	2	5	5	0	0	1.6766173332E+02	-2.6264129088E+01	7.4478318159E+02	1.1238119049E+03	8.2428814673E+02	0.000E+00	0.0
	14	1	6	6	0	0	1.2541963040E+02	2.3688243810E+02	3.7142249888E+02	5.6162536076E+02	3.2500000000E+02	0.000E+00	0.0
	-14	1	6	6	0	0	4.2242102918E+01	-2.6314656719E+02	3.7336068271E+02	5.6218654419E+02	3.2500000000E+02	0.000E+00	0.0
	25	2	5	5	0	0	-1.6766173332E+02	2.6264129088E+01	7.0452433187E+01	2.2234195285E+02	1.2518840745E+02	0.000E+00	0.0
	-5	1	9	9	0	501	-1.7311861701E+02	4.2167487944E+01	8.7048057140E+01	1.9835067242E+02	4.1800000000E+00	0.000E+00	0.0
	5	1	9	9	501	0	5.4568836952E+00	-1.5903358856E+01	-1.6595623953E+01	2.3991280436E+01	4.1800000000E+00	0.000E+00	0.0
</event>
<event>
    11  -1  1.0000000E+00  1.0000000E+00  -1.0000000E+00  -1.0000000E+00
	2212	-1	0	0	0	0	0.0000000000E+00	0.0000000000E+00	6.5000000000E+03	6.5000000000E+03	9.3827000000E-01	0.000E+00	0.0
	2212	-1	0	0	0	0	0.0000000000E+00	0.0000000000E+00	-6.5000000000E+03	6.5000000000E+03	9.3827000000E-01	0.000E+00	0.0
	2212	1	0	0	0	0	0.0000000000E+00	0.0000000000E+00	5.3301880821E+03	5.3301880821E+03	9.3827000000E-01	0.000E+00	0.0
	2212	1	0	0	0	0	0.0000000000E+00	0.0000000000E+00	-6.2668855651E+03	6.2668855651E+03	9.3827000000E-01	0.000E+00	0.0
	51	2	1	2	0	0	-9.7645719618E+01	-8.6254896734E+01	9.7377585024E+02	1.4338808098E+03	1.0444137956E+03	0.000E+00	0.0
	1000022	2	5	5	0	0	9.7645719618E+01	8.6254896734E+01	7.4383994939E+02	1.1386556951E+03	8.5221143378E+02	0.000E+00	0.0
	14	1	6	6	0	0	-7.9681556043E+01	8.3865625663E+01	4.5129327193E+01	3.4791414130E+02	3.2500000000E+02	0.000E+00	0.0
	-14	1	6	6	0	0	1.7732727566E+02	2.3892710707E+00	6.9871062220E+02	7.9074155378E+02	3.2500000000E+02	0.000E+00	0.0
	25	2	5	5	0	0	-9.7645719618E+01	-8.6254896734E+01	1.9285753367E+02	2.6427065770E+02	1.2518130233E+02	0.000E+00	0.0
	-5	1	9	9	0	501	-7.0728014144E+01	1.1434611957E+01	1.1841330550E+02	1.3846438407E+02	4.1800000000E+00	0.000E+00	0.0
	5	1	9	9	501	0	-2.6917705474E+01	-9.7689508691E+01	7.4444228175E+01	1.2580627363E+02	4.1800000000E+00	0.000E+00	0.0
</event>
<event>
    11  -1  1.0000000E+00  1.0000000E+00  -1.0000000E+00  -1.0000000E+00
	2212	-1	0	0	0	0	0.0000000000E+00	0.0000000000E+00	6.5000000000E+03	6.5000000000E+03	9.3827000000E-01	0.000E+00	0.0
	2212	-1	0	0	0	0	0.0000000000E+00	0.0000000000E+00	-6.5000000000E+03	6.5000000000E+03	9.3827000000E-01	0.000E+00	0.0
	2212	1	0	0	0	0	0.0000000000E+00	0.0000000000E+00	4.9114786549E+03	4.9114786549E+03	9.3827000000E-01	0.000E+00	0.0
	2212	1	0	0	0	0	0.0000000000E+00	0.0000000000E+00	-6.3255589171E+03	6.3255589171E+03	9.3827000000E-01	0.000E+00	0.0
	51	2	1	2	0	0	1.2576048108E+02	-1.8374559983E+01	1.5446464473E+03	1.8736327028E+03	1.0528122030E+03	0.000E+00	0.0
	1000022	2	5	5	0	0	-1.2576048108E+02	1.8374559983E+01	1.0394940090E+03	1.3480674051E+03	8.4887255278E+02	0.000E+00	0.0
	14	1	6	6	0	0	-2.2503288985E+02	1.5840963807E+02	8.0895662681E+02	9.1420415609E+02	3.2500000000E+02	0.000E+00	0.0
	-14	1	6	6	0	0	9.9272408773E+01	-1.4003507809E+02	2.3053738216E+02	4.3386324898E+02	3.2500000000E+02	0.000E+00	0.0
	25	2	5	5	0	0	1.2576048108E+02	-1.8374559983E+01	3.7458625321E+02	4.1489502299E+02	1.2517865612E+02	0.000E+00	0.0
	-5	1	9	9	0	501	5.3614045595E+01	5.2332164109E+01	1.2778778639E+02	1.4819012125E+02	4.1800000000E+00	0.000E+00	0.0
	5	1	9	9	501	0	7.2146435486E+01	-7.0706724092E+01	2.4679846682E+02	2.6670490174E+02	4.1800000000E+00	0.000E+00	0.0
</event>
<event>
    11  -1  1.0000000E+00  1.0000000E+00  -1.0000000E+00  -1.0000000E+00
	2212	-1	0	0	0	0	0.0000000000E+00	0.0000000000E+00	6.5000000000E+03	6.5000000000E+03	9.3827000000E-01	0.000E+00	0.0
	2212	-1	0	0	0	0	0.0000000000E+00	0.0000000000E+00	-6.5000000000E+03	6.5000000000E+03	9.3827000000E-01	0.000E+00	0.0
	2212	1	0	0	0	0	0.0000000000E+00	0.0000000000E+00	5.0013595174E+03	5.0013595174E+03	9.3827000000E-01	0.000E+00	0.0
	2212	1	0	0	0	0	0.0000000000E+00	0.0000000000E+00	-6.3147457193E+03	6.3147457193E+03	9.3827000000E-01	0.000E+00	0.0
	51	2	1	2	0	0	-1.2728436041E+02	5.5953937463E+01	1.2910748571E+03	1.6723410827E+03	1.0538113013E+03	0.000E+00	0.0
	1000022	2	5	5	0	0	1.2728436041E+02	-5.5953937463E+01	1.1126075270E+03	1.4094243367E+03	8.5396094783E+02	0.000E+00	0.0
	14	1	6	6	0	0	3.1312950817E+02	-1.5571153175E+02	6.3401196216E+02	7.9365756984E+02	3.2500000000E+02	0.000E+00	0.0
	-14	1	6	6	0	0	-1.8584514776E+02	9.9757594290E+01	4.7859556481E+02	6.1576676690E+02	3.2500000000E+02	0.000E+00	0.0
	25	2	5	5	0	0	-1.2728436041E+02	5.5953937463E+01	2.0077867489E+02	2.7447042661E+02	1.2525888101E+02	0.000E+00	0.0
	-5	1	9	9	0	501	-9.3142262722E+01	9.1139143346E+01	1.0739799960E+02	1.6891899619E+02	4.1800000000E+00	0.000E+00	0.0
	5	1	9	9	501	0	-3.4142097684E+01	-3.5185205884E+01	9.3380675285E+01	1.0555143042E+02	4.1800000000E+00	0.000E+00	0.0
</event>
<event>
    11  -1  1.0000000E+00  1.0000000E+00  -1.0000000E+00  -1.0000000E+00
	2212	-1	0	0	0	0	0.0000000000E+00	0.0000000000E+00	6.5000000000E+03	6.5000000000E+03	9.3827000000E-01	0.000E+00	0.0
	2212	-1	0	0	0	0	0.0000000000E+00	0.0000000000E+00	-6.5000000000E+03	6.5000000000E+03	9.3827000000E-01	0.000E+00	0.0
	2212	1	0	0	0	0	0.0000000000E+00	0.0000000000E+00	5.9907326131E+03	5.9907326131E+03	9.3827000000E-01	0.000E+00	0.0
	2212	1	0	0	0	0	0.0000000000E+00	0.0000000000E+00	-5.9629325896E+03	5.9629325896E+03	9.3827000000E-01	0.000E+00	0.0
	51	2	1	2	0	0	-1.7308390177E+01	-5.1827597795E+00	1.1792775507E+02	1.0527473882E+03	1.0459654233E+03	0.000E+00	0.0
	1000022	2	5	5	0	0	1.7308390177E+01	5.1827597795E+00	-1.6866815552E+02	8.5701526039E+02	8.4005938390E+02	0.000E+00	0.0
	14	1	6	6	0	0	2.1339512549E+02	-2.7406689360E+01	-2.5580580380E+02	4.6620833912E+02	3.2500000000E+02	0.000E+00	0.0
	-14	1	6	6	0	0	-1.9608673531E+02	3.2589449140E+01	8.7137648287E+01	3.9080692127E+02	3.2500000000E+02	0.000E+00	0.0
	25	2	5	5	0	0	-1.7308390177E+01	-5.1827597795E+00	1.4086813196E+02	1.8931953687E+02	1.2518632142E+02	0.000E+00	0.0
	-5	1	9	9	0	501	2.1939430286E+01	-1.8129202289E+01	-1.1806786771E+01	3.1094681069E+01	4.1800000000E+00	0.000E+00	0.0
	5	1	9	9	501	0	-3.9247820462E+01	1.2946442510E+01	1.5267491873E+02	1.5822485581E+02	4.1800000000E+00	0.000E+00	0.0
</event>
<event>
    11  -1  1.0000000E+00  1.0000000E+00  -1.0000000E+00  -1.0000000E+00
	2212	-1	0	0	0	0	0.0000000000E+00	0.0000000000E+00	6.5000000000E+03	6.5000000000E+03	9.3827000000E-01	0.000E+00	0.0
	2212	-1	0	0	0	0	0.0000000000E+00	0.0000000000E+00	-6.5000000000E+03	6.5000000000E+03	9.3827000000E-01	0.000E+00	0.0
	2212	1	0	0	0	0	0.0000000000E+00	0.0000000000E+00	6.2300086749E+03	6.2300086749E+03	9.3827000000E-01	0.000E+00	0.0
	2212	1	0	0	0	0	0.0000000000E+00	0.0000000000E+00	-5.4375571740E+03	5.4375571740E+03	9.3827000000E-01	0.000E+00	0.0
	51	2	1	2	0	0	3.2642490463E+02	-1.0760061782E+02	-6.4645569376E+02	1.2974734915E+03	1.0711682342E+03	0.000E+00	0.0
	1000022	2	5	5	0	0	-3.2642490463E+02	1.0760061782E+02	-6.9206239983E+02	9.5312129924E+02	5.5799528178E+02	0.000E+00	0.0
	14	1	6	6	0	0	0.0000000000E+00	0.0000000000E+00	0.0000000000E+00	0.0000000000E+00	0.0000000000E+00	0.000E+00	0.0
	-14	1	6	6	0	0	0.0000000000E+00	0.0000000000E+00	0.0000000000E+00	0.0000000000E+00	0.0000000000E+00	0.000E+00	0.0
	25	2	5	5	0	0	3.2642490463E+02	-1.0760061782E+02	-1.0038910106E+02	3.7931285193E+02	1.2517650222E+02	0.000E+00	0.0
	-5	1	9	9	0	501	6.0041457481E+01	-3.2020509562E+01	2.8458626945E+01	7.3875946672E+01	4.1800000000E+00	0.000E+00	0.0
	5	1	9	9	501	0	2.6638344715E+02	-7.5580108255E+01	-1.2884772801E+02	3.0543690526E+02	4.1800000000E+00	0.000E+00	0.0
</event>
<event>
    11  -1  1.0000000E+00  1.0000000E+00  -1.0000000E+00  -1.0000000E+00
	2212	-1	0	0	0	0	0.0000000000E+00	0.0000000000E+00	6.5000000000E+03	6.5000000000E+03	9.3827000000E-01	0.000E+00	0.0
	2212	-1	0	0	0	0	0.0000000000E+00	0.0000000000E+00	-6.5000000000E+03	6.5000000000E+03	9.3827000000E-01	0.000E+00	0.0
	2212	1	0	0	0	0	0.0000000000E+00	0.0000000000E+00	4.9522410920E+03	4.9522410920E+03	9.3827000000E-01	0.000E+00	0.0
	2212	1	0	0	0	0	0.0000000000E+00	0.0000000000E+00	-6.3227950028E+03	6.3227950028E+03	9.3827000000E-01	0.000E+00	0.0
	51	2	1	2	0	0	-2.4772025054E+01	-1.0097238979E+02	1.5196134486E+03	1.8485444441E+03	1.0474170382E+03	0.000E+00	0.0
	1000022	2	5	5	0	0	2.4772025054E+01	1.0097238979E+02	9.9310312422E+02	1.3139326815E+03	8.5402353560E+02	0.000E+00	0.0
	14	1	6	6	0	0	-4.1323374087E+01	3.2283640199E+02	4.9488405912E+02	6.7562282057E+02	3.2500000000E+02	0.000E+00	0.0
	-14	1	6	6	0	0	6.6095399140E+01	-2.2186401220E+02	4.9821906510E+02	6.3830986090E+02	3.2500000000E+02	0.000E+00	0.0
	25	2	5	5	0	0	-2.4772025054E+01	-1.0097238979E+02	3.7745078651E+02	4.1103122373E+02	1.2517385476E+02	0.000E+00	0.0
	-5	1	9	9	0	501	-7.2046165876E+01	-5.9816383879E+01	1.6820245137E+02	1.9255697038E+02	4.1800000000E+00	0.000E+00	0.0
	5	1	9	9	501	0	4.7274140822E+01	-4.1156005910E+01	2.0924833515E+02	2.1847425334E+02	4.1800000000E+00	0.000E+00	0.0
</event>
<event>
    11  -1  1.0000000E+00  1.0000000E+00  -1.0000000E+00  -1.0000000E+00
	2212	-1	0	0	0	0	0.0000000000E+00	0.0000000000E+00	6.5000000000E+03	6.5000000000E+03	9.3827000000E-01	0.000E+00	0.0
	2212	-1	0	0	0	0	0.0000000000E+00	0.0000000000E+00	-6.5000000000E+03	6.5000000000E+03	9.3827000000E-01	0.000E+00	0.0
	2212	1	0	0	0	0	0.0000000000E+00	0.0000000000E+00	6.2977177620E+03	6.2977177620E+03	9.3827000000E-01	0.000E+00	0.0
	2212	1	0	0	0	0	0.0000000000E+00	0.0000000000E+00	-5.1857271910E+03	5.1857271910E+03	9.3827000000E-01	0.000E+00	0.0
	51	2	1	2	0	0	6.1197700381E+01	-1.0381829475E+02	-1.1136090816E+03	1.5225192163E+03	1.0312207235E+03	0.000E+00	0.0
	1000022	2	5	5	0	0	-6.1197700381E+01	1.0381829475E+02	-9.3053174864E+02	1.2653210529E+03	8.4889612725E+02	0.000E+00	0.0
	14	1	6	6	0	0	1.2953769500E+01	-1.0774234864E+02	-1.1877464535E+02	3.6264118659E+02	3.2500000000E+02	0.000E+00	0.0
	-14	1	6	6	0	0	-7.4151469880E+01	2.1156064339E+02	-8.1175710329E+02	9.0267986632E+02	3.2500000000E+02	0.000E+00	0.0
	25	2	5	5	0	0	6.1197700381E+01	-1.0381829475E+02	-1.8145882238E+02	2.5123399412E+02	1.2517115772E+02	0.000E+00	0.0
	-5	1	9	9	0	501	-3.1050208461E+01	-5.5314065031E+01	-3.8681288926E+01	7.4414217383E+01	4.1800000000E+00	0.000E+00	0.0
	5	1	9	9	501	0	9.2247908841E+01	-4.8504229716E+01	-1.4277753346E+02	1.7681977674E+02	4.1800000000E+00	0.000E+00	0.0
</event>
<event>
    11  -1  1.0000000E+00  1.0000000E+00  -1.0000000E+00  -1.0000000E+00
	2212	-1	0	0	0	0	0.0000000000E+00	0.0000000000E+00	6.5000000000E+03	6.5000000000E+03	9.3827000000E-01	0.000E+00	0.0
	2212	-1	0	0	0	0	0.0000000000E+00	0.0000000000E+00	-6.5000000000E+03	6.5000000000E+03	9.3827000000E-01	0.000E+00	0.0
	2212	1	0	0	0	0	0.0000000000E+00	0.0000000000E+00	5.1042657754E+03	5.1042657754E+03	9.3827000000E-01	0.000E+00	0.0
	2212	1	0	0	0	0	0.0000000000E+00	0.0000000000E+00	-6.3011130354E+03	6.3011130354E+03	9.3827000000E-01	0.000E+00	0.0
	51	2	1	2	0	0	9.8564435960E+01	-3.1969226276E+01	1.0601932846E+03	1.4983725014E+03	1.0537425554E+03	0.000E+00	0.0
	1000022	2	5	5	0	0	-9.8564435960E+01	3.1969226276E+01	1.1291184311E+03	1.4185601499E+03	8.5244793858E+02	0.000E+00	0.0
	14	1	6	6	0	0	-2.6445267917E+02	1.3921330131E+02	8.0817159228E+02	9.2091361449E+02	3.2500000000E+02	0.000E+00	0.0
	-14	1	6	6	0	0	1.6588824321E+02	-1.0724407503E+02	3.2094683884E+02	4.9764653543E+02	3.2500000000E+02	0.000E+00	0.0
	25	2	5	5	0	0	9.8564435960E+01	-3.1969226276E+01	6.7728828882E+01	1.7606103918E+02	1.2519311400E+02	0.000E+00	0.0
	-5	1	9	9	0	501	7.9084390699E+01	-6.2885919609E+01	2.4759023468E+00	1.0115622685E+02	4.1800000000E+00	0.000E+00	0.0
	5	1	9	9	501	0	1.9480045260E+01	3.0916693333E+01	6.5252926535E+01	7.4904812338E+01	4.1800000000E+00	0.000E+00	0.0
</event>
<event>
    11  -1  1.0000000E+00  1.0000000E+00  -1.0000000E+00  -1.0000000E+00
	2212	-1	0	0	0	0	0.0000000000E+00	0.0000000000E+00	6.5000000000E+03	6.5000000000E+03	9.3827000000E-01	0.000E+00	0.0
	2212	-1	0	0	0	0	0.0000000000E+00	0.0000000000E+00	-6.5000000000E+03	6.5000000000E+03	9.3827000000E-01	0.000E+00	0.0
	2212	1	0	0	0	0	0.0000000000E+00	0.0000000000E+00	4.8837526229E+03	4.8837526229E+03	9.3827000000E-01	0.000E+00	0.0
	2212	1	0	0	0	0	0.0000000000E+00	0.0000000000E+00	-6.3292703417E+03	6.3292703417E+03	9.3827000000E-01	0.000E+00	0.0
	51	2	1	2	0	0	-5.8675638911E+01	-1.0244068885E+02	1.3810909925E+03	1.7392856880E+03	1.0506024223E+03	0.000E+00	0.0
	1000022	2	5	5	0	0	5.8675638911E+01	1.0244068885E+02	1.2759514977E+03	1.5454017636E+03	8.6387352154E+02	0.000E+00	0.0
	14	1	6	6	0	0	-1.3545819422E+01	1.2862754330E+02	1.6767435002E+02	3.8790233535E+02	3.2500000000E+02	0.000E+00	0.0
	-14	1	6	6	0	0	7.2221458334E+01	-2.6186854453E+01	1.1082771477E+03	1.1574994283E+03	3.2500000000E+02	0.000E+00	0.0
	25	2	5	5	0	0	-5.8675638911E+01	-1.0244068885E+02	1.6956622108E+02	2.4157527176E+02	1.2517580940E+02	0.000E+00	0.0
	-5	1	9	9	0	501	-1.8355915730E+01	-1.8764434064E+01	1.4218695589E+02	1.4465008280E+02	4.1800000000E+00	0.000E+00	0.0
	5	1	9	9	501	0	-4.0319723182E+01	-8.3676254784E+01	2.7379265193E+01	9.6925188959E+01	4.1800000000E+00	0.000E+00	0.0
</event>
<event>
    11  -1  1.0000000E+00  1.0000000E+00  -1.0000000E+00  -1.0000000E+00
	2212	-1	0	0	0	0	0.0000000000E+00	0.0000000000E+00	6.5000000000E+03	6.5000000000E+03	9.3827000000E-01	0.000E+00	0.0
	2212	-1	0	0	0	0	0.0000000000E+00	0.0000000000E+00	-6.5000000000E+03	6.5000000000E+03	9.3827000000E-01	0.000E+00	0.0
	2212	1	0	0	0	0	0.0000000000E+00	0.0000000000E+00	6.2161374887E+03	6.2161374887E+03	9.3827000000E-01	0.000E+00	0.0
	2212	1	0	0	0	0	0.0000000000E+00	0.0000000000E+00	-5.5131736001E+03	5.5131736001E+03	9.3827000000E-01	0.000E+00	0.0
	51	2	1	2	0	0	1.9547200898E+01	5.2043160457E+01	-5.4113107734E+02	1.1901283573E+03	1.0585329850E+03	0.000E+00	0.0
	1000022	2	5	5	0	0	-1.9547200898E+01	-5.2043160457E+01	-7.4156636969E+02	1.1284963242E+03	8.4881840780E+02	0.000E+00	0.0
	14	1	6	6	0	0	-1.5457478675E+02	1.9226327698E+02	-4.6465801582E+02	6.1837739613E+02	3.2500000000E+02	0.000E+00	0.0
	-14	1	6	6	0	0	1.3502758586E+02	-2.4430643744E+02	-2.7690835387E+02	5.1011892805E+02	3.2500000000E+02	0.000E+00	0.0
	25	2	5	5	0	0	1.9547200898E+01	5.2043160457E+01	3.8602481043E+01	1.4219258705E+02	1.2505197582E+02	0.000E+00	0.0
	-5	1	9	9	0	501	5.6411199841E+01	-1.3219456137E+01	3.3245883672E+01	6.6930849906E+01	4.1800000000E+00	0.000E+00	0.0
	5	1	9	9	501	0	-3.6863998943E+01	6.5262616594E+01	5.3565973710E+00	7.5261737145E+01	4.1800000000E+00	0.000E+00	0.0
</event>
<event>
    11  -1  1.0000000E+00  1.0000000E+00  -1.0000000E+00  -1.0000000E+00
	2212	-1	0	0	0	0	0.0000000000E+00	0.0000000000E+00	6.5000000000E+03	6.5000000000E+03	9.3827000000E-01	0.000E+00	0.0
	2212	-1	0	0	0	0	0.0000000000E+00	0.0000000000E+00	-6.5000000000E+03	6.5000000000E+03	9.3827000000E-01	0.000E+00	0.0
	2212	1	0	0	0	0	0.0000000000E+00	0.0000000000E+00	5.3654805956E+03	5.3654805956E+03	9.3827000000E-01	0.000E+00	0.0
	2212	1	0	0	0	0	0.0000000000E+00	0.0000000000E+00	-6.2541563449E+03	6.2541563449E+03	9.3827000000E-01	0.000E+00	0.0
	51	2	1	2	0	0	-1.1034506448E+02	6.1936403693E+01	1.0314853993E+03	1.4817664691E+03	1.0562469355E+03	0.000E+00	0.0
	1000022	2	5	5	0	0	1.1034506448E+02	-6.1936403693E+01	5.8398756862E+02	1.0275168216E+03	8.3590501073E+02	0.000E+00	0.0
	14	1	6	6	0	0	-1.7143146279E+02	9.8146325846E+01	3.2656113625E+02	5.0128696714E+02	3.2500000000E+02	0.000E+00	0.0
	-14	1	6	6	0	0	2.8177652727E+02	-1.6008272954E+02	2.5742643237E+02	5.2622985444E+02	3.2500000000E+02	0.000E+00	0.0
	25	2	5	5	0	0	-1.1034506448E+02	6.1936403693E+01	3.0468818068E+02	3.5284623795E+02	1.2511366364E+02	0.000E+00	0.0
	-5	1	9	9	0	501	-1.2326459856E+02	7.0353376738E+01	1.9076188127E+02	2.3780522833E+02	4.1800000000E+00	0.000E+00	0.0
	5	1	9	9	501	0	1.2919534076E+01	-8.4169730443E+00	1.1392629942E+02	1.1504100962E+02	4.1800000000E+00	0.000E+00	0.0
</event>
<event>
    11  -1  1.0000000E+00  1.0000000E+00  -1.0000000E+00  -1.0000000E+00
	2212	-1	0	0	0	0	0.0000000000E+00	0.0000000000E+00	6.5000000000E+03	6.5000000000E+03	9.3827000000E-01	0.000E+00	0.0
	2212	-1	0	0	0	0	0.0000000000E+00	0.0000000000E+00	-6.5000000000E+03	6.5000000000E+03	9.3827000000E-01	0.000E+00	0.0
	2212	1	0	0	0	0	0.0000000000E+00	0.0000000000E+00	5.0125048636E+03	5.0125048636E+03	9.3827000000E-01	0.000E+00	0.0
	2212	1	0	0	0	0	0.0000000000E+00	0.0000000000E+00	-6.3135545133E+03	6.3135545133E+03	9.3827000000E-01	0.000E+00	0.0
	51	2	1	2	0	0	-9.0103818052E+01	3.7208415890E+01	1.1550652063E+03	1.5662138468E+03	1.0532554385E+03	0.000E+00	0.0
	1000022	2	5	5	0	0	9.0103818052E+01	-3.7208415890E+01	1.2273169810E+03	1.4989776500E+03	8.5505781038E+02	0.000E+00	0.0
	14	1	6	6	0	0	-4.2602979292E+01	-1.9754770719E+02	2.7451551147E+02	4.7098182184E+02	3.2500000000E+02	0.000E+00	0.0
	-14	1	6	6	0	0	1.3270679734E+02	1.6033929130E+02	9.5280146949E+02	1.0279958281E+03	3.2500000000E+02	0.000E+00	0.0
	25	2	5	5	0	0	-9.0103818052E+01	3.7208415890E+01	7.3732668755E+01	1.7496297319E+02	1.2518934182E+02	0.000E+00	0.0
	-5	1	9	9	0	501	3.1512810963E+01	4.8526878357E+00	9.0599827306E+00	3.3409003593E+01	4.1800000000E+00	0.000E+00	0.0
	5	1	9	9	501	0	-1.2161662902E+02	3.2355728054E+01	6.4672686024E+01	1.4155396960E+02	4.1800000000E+00	0.000E+00	0.0
</event>
<event>
    11  -1  1.0000000E+00  1.0000000E+00  -1.0000000E+00  -1.0000000E+00
	2212	-1	0	0	0	0	0.0000000000E+00	0.0000000000E+00	6.5000000000E+03	6.5000000000E+03	9.3827000000E-01	0.000E+00	0.0
	2212	-1	0	0	0	0	0.0000000000E+00	0.0000000000E+00	-6.5000000000E+03	6.5000000000E+03	9.3827000000E-01	0.000E+00	0.0
	2212	1	0	0	0	0	0.0000000000E+00	0.0000000000E+00	6.1629552505E+03	6.1629552505E+03	9.3827000000E-01	0.000E+00	0.0
	2212	1	0	0	0	0	0.0000000000E+00	0.0000000000E+00	-5.6529319546E+03	5.6529319546E+03	9.3827000000E-01	0.000E+00	0.0
	51	2	1	2	0	0	-1.4714049469E+02	-3.7650493947E+01	-5.7842295389E+02	1.2245980350E+03	1.0686436959E+03	0.000E+00	0.0
	1000022	2	5	5	0	0	1.4714049469E+02	3.7650493947E+01	-3.4972926365E+02	9.3027788019E+02	8.4855081854E+02	0.000E+00	0.0
	14	1	6	6	0	0	1.1192700887E+01	-8.8942410981E+01	-4.3101988389E+02	5.4721035200E+02	3.2500000000E+02	0.000E+00	0.0
	-14	1	6	6	0	0	1.3594779380E+02	1.2659290493E+02	8.1290620236E+01	3.8306752819E+02	3.2500000000E+02	0.000E+00	0.0
	25	2	5	5	0	0	-1.4714049469E+02	-3.7650493947E+01	-1.6029403222E+02	2.5383491478E+02	1.2518027929E+02	0.000E+00	0.0
	-5	1	9	9	0	501	-4.9391566743E+01	-1.6955489869E+01	1.2800580705E+01	5.3929053102E+01	4.1800000000E+00	0.000E+00	0.0
	5	1	9	9	501	0	-9.7748927945E+01	-2.0695004078E+01	-1.7309461293E+02	1.9990586168E+02	4.1800000000E+00	0.000E+00	0.0
</event>
<event>
    11  -1  1.0000000E+00  1.0000000E+00  -1.0000000E+00  -1.0000000E+00
	2212	-1	0	0	0	0	0.0000000000E+00	0.0000000000E+00	6.5000000000E+03	6.5000000000E+03	9.3827000000E-01	0.000E+00	0.0
	2212	-1	0	0	0	0	0.0000000000E+00	0.0000000000E+00	-6.5000000000E+03	6.5000000000E+03	9.3827000000E-01	0.000E+00	0.0
	2212	1	0	0	0	0	0.0000000000E+00	0.0000000000E+00	6.2816644756E+03	6.2816644756E+03	9.3827000000E-01	0.000E+00	0.0
	2212	1	0	0	0	0	0.0000000000E+00	0.0000000000E+00	-5.2590853421E+03	5.2590853421E+03	9.3827000000E-01	0.000E+00	0.0
	51	2	1	2	0	0	1.1643656648E+02	4.6611793120E+01	-9.6938464256E+02	1.4279985045E+03	1.0410297836E+03	0.000E+00	0.0
	1000022	2	5	5	0	0	-1.1643656648E+02	-4.6611793120E+01	-9.0475471490E+02	1.2464528993E+03	8.4813536818E+02	0.000E+00	0.0
	14	1	6	6	0	0	-1.6577183562E+02	-2.2118979209E+02	-2.5332796354E+02	4.9619077251E+02	3.2500000000E+02	0.000E+00	0.0
	-14	1	6	6	0	0	4.9335269136E+01	1.7457799897E+02	-6.5142675136E+02	7.5026212679E+02	3.2500000000E+02	0.000E+00	0.0
	25	2	5	5	0	0	1.1643656648E+02	4.6611793120E+01	-1.1782441861E+02	2.1279728306E+02	1.2517969798E+02	0.000E+00	0.0
	-5	1	9	9	0	501	5.2754455174E+01	1.3326516832E+00	1.8110639494E+01	5.5948870982E+01	4.1800000000E+00	0.000E+00	0.0
	5	1	9	9	501	0	6.3682111310E+01	4.5279141437E+01	-1.3593505811E+02	1.5684841208E+02	4.1800000000E+00	0.000E+00	0.0
</event>
<event>
    11  -1  1.0000000E+00  1.0000000E+00  -1.0000000E+00  -1.0000000E+00
	2212	-1	0	0	0	0	0.0000000000E+00	0.0000000000E+00	6.5000000000E+03	6.5000000000E+03	9.3827000000E-01	0.000E+00	0.0
	2212	-1	0	0	0	0	0.0000000000E+00	0.0000000000E+00	-6.5000000000E+03	6.5000000000E+03	9.3827000000E-01	0.000E+00	0.0
	2212	1	0	0	0	0	0.0000000000E+00	0.0000000000E+00	6.3267154291E+03	6.3267154291E+03	9.3827000000E-01	0.000E+00	0.0
	2212	1	0	0	0	0	0.0000000000E+00	0.0000000000E+00	-4.9424162701E+03	4.9424162701E+03	9.3827000000E-01	0.000E+00	0.0
	51	2	1	2	0	0	3.4820913780E+01	-4.4675803985E+01	-1.5673809399E+03	1.8813591754E+03	1.0390480801E+03	0.000E+00	0.0
	1000022	2	5	5	0	0	-3.4820913780E+01	4.4675803985E+01	-9.8028094886E+02	1.3041279900E+03	8.5824859574E+02	0.000E+00	0.0
	14	1	6	6	0	0	-1.6179369034E+02	4.8402542742E+01	-8.6049308069E+02	9.3519695588E+02	3.2500000000E+02	0.000E+00	0.0
	-14	1	6	6	0	0	1.2697277656E+02	-3.7267387566E+00	-1.1978786817E+02	3.6893103411E+02	3.2500000000E+02	0.000E+00	0.0
	25	2	5	5	0	0	3.4820913780E+01	-4.4675803985E+01	-4.0401821019E+02	4.2674031077E+02	1.2517250167E+02	0.000E+00	0.0
	-5	1	9	9	0	501	-2.1942375777E+01	-1.6954985683E+01	-1.3499236708E+01	3.1123000915E+01	4.1800000000E+00	0.000E+00	0.0
	5	1	9	9	501	0	5.6763289558E+01	-2.7720818303E+01	-3.9051897348E+02	3.9561730985E+02	4.1800000000E+00	0.000E+00	0.0
</event>
<event>
    11  -1  1.0000000E+00  1.0000000E+00  -1.0000000E+00  -1.0000000E+00
	2212	-1	0	0	0	0	0.0000000000E+00	0.0000000000E+00	6.5000000000E+03	6.5000000000E+03	9.3827000000E-01	0.000E+00	0.0
	2212	-1	0	0	0	0	0.0000000000E+00	0.0000000000E+00	-6.5000000000E+03	6.5000000000E+03	9.3827000000E-01	0.000E+00	0.0
	2212	1	0	0	0	0	0.0000000000E+00	0.0000000000E+00	6.2460547277E+03	6.2460547277E+03	9.3827000000E-01	0.000E+00	0.0
	2212	1	0	0	0	0	0.0000000000E+00	0.0000000000E+00	-5.4070116469E+03	5.4070116469E+03	9.3827000000E-01	0.000E+00	0.0
	51	2	1	2	0	0	2.3533995864E+01	1.3618955722E+02	-8.9537759351E+02	1.3896184294E+03	1.0536777970E+03	0.000E+00	0.0
	1000022	2	5	5	0	0	-2.3533995864E+01	-1.3618955722E+02	-6.3888999396E+02	1.0733738188E+03	8.5138092893E+02	0.000E+00	0.0
	14	1	6	6	0	0	4.2179888999E+01	1.3465393756E+01	-6.2908061990E+02	7.0945604952E+02	3.2500000000E+02	0.000E+00	0.0
	-14	1	6	6	0	0	-6.5713884863E+01	-1.4965495097E+02	-9.8093740565E+00	3.6391776933E+02	3.2500000000E+02	0.000E+00	0.0
	25	2	5	5	0	0	2.3533995864E+01	1.3618955722E+02	-2.0015308685E+02	2.7355980658E+02	1.2518891781E+02	0.000E+00	0.0
	-5	1	9	9	0	501	5.2668091785E+01	6.7067413167E+01	-1.7433667162E+02	1.9412035770E+02	4.1800000000E+00	0.000E+00	0.0
	5	1	9	9	501	0	-2.9134095921E+01	6.9122144049E+01	-2.5816415233E+01	7.9439448881E+01	4.1800000000E+00	0.000E+00	0.0
</event>
<event>
    11  -1  1.0000000E+00  1.0000000E+00  -1.0000000E+00  -1.0000000E+00
	2212	-1	0	0	0	0	0.0000000000E+00	0.0000000000E+00	6.5000000000E+03	6.5000000000E+03	9.3827000000E-01	0.000E+00	0.0
	2212	-1	0	0	0	0	0.0000000000E+00	0.0000000000E+00	-6.5000000000E+03	6.5000000000E+03	9.3827000000E-01	0.000E+00	0.0
	2212	1	0	0	0	0	0.0000000000E+00	0.0000000000E+00	6.2501039803E+03	6.2501039803E+03	9.3827000000E-01	0.000E+00	0.0
	2212	1	0	0	0	0	0.0000000000E+00	0.0000000000E+00	-5.3326137960E+03	5.3326137960E+03	9.3827000000E-01	0.000E+00	0.0
	51	2	1	2	0	0	1.2437187003E+02	1.1578206116E+02	-9.0943102127E+02	1.4222655495E+03	1.0802317637E+03	0.000E+00	0.0
	1000022	2	5	5	0	0	-1.2437187003E+02	-1.1578206116E+02	-7.5722182740E+02	1.1522769315E+03	8.5175312341E+02	0.000E+00	0.0
	14	1	6	6	0	0	-1.2169606592E+02	-3.3014324303E+02	-4.3037163298E+02	6.4393263300E+02	3.2500000000E+02	0.000E+00	0.0
	-14	1	6	6	0	0	-2.6758041103E+00	2.1436118187E+02	-3.2685019442E+02	5.0834429849E+02	3.2500000000E+02	0.000E+00	0.0
	25	2	5	5	0	0	1.2437187003E+02	1.1578206116E+02	-1.6026835691E+02	2.6500529217E+02	1.2517192540E+02	0.000E+00	0.0
	-5	1	9	9	0	501	1.1196483711E+02	5.5144901512E+01	-4.2525815377E+01	1.3192043922E+02	4.1800000000E+00	0.000E+00	0.0
	5	1	9	9	501	0	1.2407032919E+01	6.0637159649E+01	-1.1774254153E+02	1.3308485294E+02	4.1800000000E+00	0.000E+00	0.0
</event>
<event>
    11  -1  1.0000000E+00  1.0000000E+00  -1.0000000E+00  -1.0000000E+00
	2212	-1	0	0	0	0	0.0000000000E+00	0.0000000000E+00	6.5000000000E+03	6.5000000000E+03	9.3827000000E-01	0.000E+00	0.0
	2212	-1	0	0	0	0	0.0000000000E+00	0.0000000000E+00	-6.5000000000E+03	6.5000000000E+03	9.3827000000E-01	0.000E+00	0.0
	2212	1	0	0	0	0	0.0000000000E+00	0.0000000000E+00	5.9047047131E+03	5.9047047131E+03	9.3827000000E-01	0.000E+00	0.0
	2212	1	0	0	0	0	0.0000000000E+00	0.0000000000E+00	-6.0245769255E+03	6.0245769255E+03	9.3827000000E-01	0.000E+00	0.0
	51	2	1	2	0	0	-2.6489377464E+00	-1.6671075566E+02	5.9955068724E+01	1.0786392192E+03	1.0639870592E+03	0.000E+00	0.0
	1000022	2	5	5	0	0	2.6489377464E+00	1.6671075566E+02	1.5706450716E+02	8.5981540680E+02	8.2874228891E+02	0.000E+00	0.0
	14	1	6	6	0	0	1.2628270971E+02	2.3341671309E+02	-8.8640102810E+01	4.2885050140E+02	3.2500000000E+02	0.000E+00	0.0
	-14	1	6	6	0	0	-1.2363377197E+02	-6.6705957430E+01	2.4570460997E+02	4.3096490540E+02	3.2500000000E+02	0.000E+00	0.0
	25	2	5	5	0	0	-2.6489377464E+00	-1.6671075566E+02	-3.7192294752E+01	2.1090295458E+02	1.2368224020E+02	0.000E+00	0.0
	-5	1	9	9	0	501	-6.1785761341E+01	-8.3013804013E+01	-3.1186191637E+01	1.0816109703E+02	4.1800000000E+00	0.000E+00	0.0
	5	1	9	9	501	0	5.9136823595E+01	-8.3696951646E+01	-6.0061031144E+00	1.0274185756E+02	4.1800000000E+00	0.000E+00	0.0
</event>
<event>
    11  -1  1.0000000E+00  1.0000000E+00  -1.0000000E+00  -1.0000000E+00
	2212	-1	0	0	0	0	0.0000000000E+00	0.0000000000E+00	6.5000000000E+03	6.5000000000E+03	9.3827000000E-01	0.000E+00	0.0
	2212	-1	0	0	0	0	0.0000000000E+00	0.0000000000E+00	-6.5000000000E+03	6.5000000000E+03	9.3827000000E-01	0.000E+00	0.0
	2212	1	0	0	0	0	0.0000000000E+00	0.0000000000E+00	6.2187186343E+03	6.2187186343E+03	9.3827000000E-01	0.000E+00	0.0
	2212	1	0	0	0	0	0.0000000000E+00	0.0000000000E+00	-5.5260372622E+03	5.5260372622E+03	9.3827000000E-01	0.000E+00	0.0
	51	2	1	2	0	0	4.3804169751E+01	1.2600520259E+02	-7.1696696225E+02	1.2758009317E+03	1.0468191229E+03	0.000E+00	0.0
	1000022	2	5	5	0	0	-4.3804169751E+01	-1.2600520259E+02	-5.5258666106E+02	1.0248235167E+03	8.5271044674E+02	0.000E+00	0.0
	14	1	6	6	0	0	-9.0449133619E+01	-3.0985492664E+02	-4.3210430623E+02	6.2970648146E+02	3.2500000000E+02	0.000E+00	0.0
	-14	1	6	6	0	0	4.6644963868E+01	1.8384972405E+02	-1.2048235484E+02	3.9511703521E+02	3.2500000000E+02	0.000E+00	0.0
	25	2	5	5	0	0	4.3804169751E+01	1.2600520259E+02	-1.4009471111E+02	2.3042058684E+02	1.2518387434E+02	0.000E+00	0.0
	-5	1	9	9	0	501	-1.7846122347E+01	3.4402201933E+00	1.4545001988E+01	2.3650553495E+01	4.1800000000E+00	0.000E+00	0.0
	5	1	9	9	501	0	6.1650292098E+01	1.2256498239E+02	-1.5463971309E+02	2.0677003335E+02	4.1800000000E+00	0.000E+00	0.0
</event>
<event>
    11  -1  1.0000000E+00  1.0000000E+00  -1.0000000E+00  -1.0000000E+00
	2212	-1	0	0	0	0	0.0000000000E+00	0.0000000000E+00	6.5000000000E+03	6.5000000000E+03	9.3827000000E-01	0.000E+00	0.0
	2212	-1	0	0	0	0	0.0000000000E+00	0.0000000000E+00	-6.5000000000E+03	6.5000000000E+03	9.3827000000E-01	0.000E+00	0.0
	2212	1	0	0	0	0	0.0000000000E+00	0.0000000000E+00	5.3973340495E+03	5.3973340495E+03	9.3827000000E-01	0.000E+00	0.0
	2212	1	0	0	0	0	0.0000000000E+00	0.0000000000E+00	-6.2655601009E+03	6.2655601009E+03	9.3827000000E-01	0.000E+00	0.0
	51	2	1	2	0	0	-5.8439117782E+01	6.3329541787E+00	7.6033202190E+02	1.2710608157E+03	1.0168753989E+03	0.000E+00	0.0
	1000022	2	5	5	0	0	5.8439117782E+01	-6.3329541787E+00	8.4181681774E+02	1.1963180221E+03	8.4797760495E+02	0.000E+00	0.0
	14	1	6	6	0	0	-2.3493353979E+02	6.3656441913E+01	4.2457069319E+02	5.8747866704E+02	3.2500000000E+02	0.000E+00	0.0
	-14	1	6	6	0	0	2.9337265757E+02	-6.9989396092E+01	4.1724612455E+02	6.0883935503E+02	3.2500000000E+02	0.000E+00	0.0
	25	2	5	5	0	0	-5.8439117782E+01	6.3329541787E+00	2.6409233587E+01	1.4078782755E+02	1.2517399080E+02	0.000E+00	0.0
	-5	1	9	9	0	501	-9.5514536995E+01	2.1459726373E+01	1.7105321100E+01	9.9466632814E+01	4.1800000000E+00	0.000E+00	0.0
	5	1	9	9	501	0	3.7075419213E+01	-1.5126772195E+01	9.3039124874E+00	4.1321194736E+01	4.1800000000E+00	0.000E+00	0.0
</event>
<event>
    11  -1  1.0000000E+00  1.0000000E+00  -1.0000000E+00  -1.0000000E+00
	2212	-1	0	0	0	0	0.0000000000E+00	0.0000000000E+00	6.5000000000E+03	6.5000000000E+03	9.3827000000E-01	0.000E+00	0.0
	2212	-1	0	0	0	0	0.0000000000E+00	0.0000000000E+00	-6.5000000000E+03	6.5000000000E+03	9.3827000000E-01	0.000E+00	0.0
	2212	1	0	0	0	0	0.0000000000E+00	0.0000000000E+00	5.3526330065E+03	5.3526330065E+03	9.3827000000E-01	0.000E+00	0.0
	2212	1	0	0	0	0	0.0000000000E+00	0.0000000000E+00	-6.2668208551E+03	6.2668208551E+03	9.3827000000E-01	0.000E+00	0.0
	51	2	1	2	0	0	-1.3323571429E+02	3.7190522338E+01	8.8245392148E+02	1.3667582200E+03	1.0344893513E+03	0.000E+00	0.0
	1000022	2	5	5	0	0	1.3323571429E+02	-3.7190522338E+01	7.8743339370E+02	1.1549953651E+03	8.3356346694E+02	0.000E+00	0.0
	14	1	6	6	0	0	-1.9988648702E+01	-7.9898954549E+01	7.0968941357E+02	7.8489964501E+02	3.2500000000E+02	0.000E+00	0.0
	-14	1	6	6	0	0	1.5322436299E+02	4.2708432211E+01	7.7743980138E+01	3.7009572011E+02	3.2500000000E+02	0.000E+00	0.0
	25	2	5	5	0	0	-1.3323571429E+02	3.7190522338E+01	1.2675445486E+02	2.2555077331E+02	1.2518613742E+02	0.000E+00	0.0
	-5	1	9	9	0	501	2.0422098587E+01	-1.3031981473E+01	1.2750176393E+01	2.7693574162E+01	4.1800000000E+00	0.000E+00	0.0
	5	1	9	9	501	0	-1.5365781288E+02	5.0222503811E+01	1.1400427847E+02	1.9785719915E+02	4.1800000000E+00	0.000E+00	0.0
</event>
<event>
    11  -1  1.0000000E+00  1.0000000E+00  -1.0000000E+00  -1.0000000E+00
	2212	-1	0	0	0	0	0.0000000000E+00	0.0000000000E+00	6.5000000000E+03	6.5000000000E+03	9.3827000000E-01	0.000E+00	0.0
	2212	-1	0	0	0	0	0.0000000000E+00	0.0000000000E+00	-6.5000000000E+03	6.5000000000E+03	9.3827000000E-01	0.000E+00	0.0
	2212	1	0	0	0	0	0.0000000000E+00	0.0000000000E+00	6.1656047131E+03	6.1656047131E+03	9.3827000000E-01	0.000E+00	0.0
	2212	1	0	0	0	0	0.0000000000E+00	0.0000000000E+00	-5.6688567425E+03	5.6688567425E+03	9.3827000000E-01	0.000E+00	0.0
	51	2	1	2	0	0	-1.3107211489E+01	2.6189385829E+01	-3.3455798220E+02	1.1065750216E+03	1.0543820712E+03	0.000E+00	0.0
	1000022	2	5	5	0	0	1.3107211489E+01	-2.6189385829E+01	-5.7061376654E+02	1.0172636750E+03	8.4164578718E+02	0.000E+00	0.0
	14	1	6	6	0	0	2.1296518019E+02	-5.5719330072E+01	-8.9660326840E+01	4.0264473910E+02	3.2500000000E+02	0.000E+00	0.0
	-14	1	6	6	0	0	-1.9985796870E+02	2.9529944243E+01	-4.8095343970E+02	6.1461893594E+02	3.2500000000E+02	0.000E+00	0.0
	25	2	5	5	0	0	-1.3107211489E+01	2.6189385829E+01	7.3865795960E+01	1.4827486928E+02	1.2518625374E+02	0.000E+00	0.0
	-5	1	9	9	0	501	4.7603519523E+01	3.3229506905E+01	6.3507376021E+01	8.6144961601E+01	4.1800000000E+00	0.000E+00	0.0
	5	1	9	9	501	0	-6.0710731012E+01	-7.0401210753E+00	1.0358419938E+01	6.2129907680E+01	4.1800000000E+00	0.000E+00	0.0
</event>
<event>
    11  -1  1.0000000E+00  1.0000000E+00  -1.0000000E+00  -1.0000000E+00
	2212	-1	0	0	0	0	0.0000000000E+00	0.0000000000E+00	6.5000000000E+03	6.5000000000E+03	9.3827000000E-01	0.000E+00	0.0
	2212	-1	0	0	0	0	0.0000000000E+00	0.0000000000E+00	-6.5000000000E+03	6.5000000000E+03	9.3827000000E-01	0.000E+00	0.0
	2212	1	0	0	0	0	0.0000000000E+00	0.0000000000E+00	6.0379743913E+03	6.0379743913E+03	9.3827000000E-01	0.000E+00	0.0
	2212	1	0	0	0	0	0.0000000000E+00	0.0000000000E+00	-5.9011611679E+03	5.9011611679E+03	9.3827000000E-01	0.000E+00	0.0
	51	2	1	2	0	0	2.0079401799E+01	-1.0544171753E+02	-2.2673506042E+02	1.0815014700E+03	1.0520054676E+03	0.000E+00	0.0
	1000022	2	5	5	0	0	-2.0079401799E+01	1.0544171753E+02	-2.3770014881E+01	8.6094181224E+02	8.5389381792E+02	0.000E+00	0.0
	14	1	6	6	0	0	1.5675034576E+02	2.7304091409E+02	1.6341314689E+01	4.5278477252E+02	3.2500000000E+02	0.000E+00	0.0
	-14	1	6	6	0	0	-1.7682974756E+02	-1.6759919657E+02	-4.0111329570E+01	4.0815703972E+02	3.2500000000E+02	0.000E+00	0.0
	25	2	5	5	0	0	2.0079401799E+01	-1.0544171753E+02	-1.1304320848E+02	1.9992262860E+02	1.2517648450E+02	0.000E+00	0.0
	-5	1	9	9	0	501	-2.1915364010E+01	-1.1242725678E+01	-9.1009895581E+01	9.4376668483E+01	4.1800000000E+00	0.000E+00	0.0
	5	1	9	9	501	0	4.1994765809E+01	-9.4198991848E+01	-2.2033312900E+01	1.0554596012E+02	4.1800000000E+00	0.000E+00	0.0
</event>
<event>
    11  -1  1.0000000E+00  1.0000000E+00  -1.0000000E+00  -1.0000000E+00
	2212	-1	0	0	0	0	0.0000000000E+00	0.0000000000E+00	6.5000000000E+03	6.5000000000E+03	9.3827000000E-01	0.000E+00	0.0
	2212	-1	0	0	0	0	0.0000000000E+00	0.0000000000E+00	-6.5000000000E+03	6.5000000000E+03	9.3827000000E-01	0.000E+00	0.0
	2212	1	0	0	0	0	0.0000000000E+00	0.0000000000E+00	5.6730218974E+03	5.6730218974E+03	9.3827000000E-01	0.000E+00	0.0
	2212	1	0	0	0	0	0.0000000000E+00	0.0000000000E+00	-6.1704194990E+03	6.1704194990E+03	9.3827000000E-01	0.000E+00	0.0
	51	2	1	2	0	0	-6.2211909589E+01	-4.8112781356E+01	5.2946686555E+02	1.1733472430E+03	1.0441376488E+03	0.000E+00	0.0
	1000022	2	5	5	0	0	6.2211909589E+01	4.8112781356E+01	3.9527657060E+02	9.7688422934E+02	8.8987306333E+02	0.000E+00	0.0
	14	1	6	6	0	0	4.0362214724E+01	-2.6524869335E+02	8.8544510903E+01	4.3064034659E+02	3.2500000000E+02	0.000E+00	0.0
	-14	1	6	6	0	0	2.1849694864E+01	3.1336147471E+02	3.0673205970E+02	5.4624388275E+02	3.2500000000E+02	0.000E+00	0.0
	25	2	5	5	0	0	-6.2211909589E+01	-4.8112781356E+01	1.0212103100E+02	1.7967437432E+02	1.2517593375E+02	0.000E+00	0.0
	-5	1	9	9	0	501	1.3105579861E+01	-4.9600981937E+01	8.9402957775E+01	1.0316188682E+02	4.1800000000E+00	0.000E+00	0.0
	5	1	9	9	501	0	-7.5317489449E+01	1.4882005814E+00	1.2718073229E+01	7.6512487507E+01	4.1800000000E+00	0.000E+00	0.0
</event>
<event>
    11  -1  1.0000000E+00  1.0000000E+00  -1.0000000E+00  -1.0000000E+00
	2212	-1	0	0	0	0	0.0000000000E+00	0.0000000000E+00	6.5000000000E+03	6.5000000000E+03	9.3827000000E-01	0.000E+00	0.0
	2212	-1	0	0	0	0	0.0000000000E+00	0.0000000000E+00	-6.5000000000E+03	6.5000000000E+03	9.3827000000E-01	0.000E+00	0.0
	2212	1	0	0	0	0	0.0000000000E+00	0.0000000000E+00	5.3510294181E+03	5.3510294181E+03	9.3827000000E-01	0.000E+00	0.0
	2212	1	0	0	0	0	0.0000000000E+00	0.0000000000E+00	-6.2596826178E+03	6.2596826178E+03	9.3827000000E-01	0.000E+00	0.0
	51	2	1	2	0	0	6.6410017978E+01	2.3786070701E+01	1.0636707137E+03	1.4969441756E+03	1.0509378716E+03	0.000E+00	0.0
	1000022	2	5	5	0	0	-6.6410017978E+01	-2.3786070701E+01	6.0335630124E+02	1.0518616488E+03	8.5871883316E+02	0.000E+00	0.0
	14	1	6	6	0	0	-2.1525312087E+02	3.7053714076E+00	5.0724725426E+01	3.9312292427E+02	3.2500000000E+02	0.000E+00	0.0
	-14	1	6	6	0	0	1.4884310289E+02	-2.7491442108E+01	5.5263157581E+02	6.5873872457E+02	3.2500000000E+02	0.000E+00	0.0
	25	2	5	5	0	0	6.6410017978E+01	2.3786070701E+01	3.0529689844E+02	3.3742631525E+02	1.2519686251E+02	0.000E+00	0.0
	-5	1	9	9	0	501	-5.1824047712E+00	1.8146449783E+01	-4.1147617539E+00	1.9762454889E+01	4.1800000000E+00	0.000E+00	0.0
	5	1	9	9	501	0	7.1592422749E+01	5.6396209176E+00	3.0941166019E+02	3.1766386036E+02	4.1800000000E+00	0.000E+00	0.0
</event>
<event>
    11  -1  1.0000000E+00  1.0000000E+00  -1.0000000E+00  -1.0000000E+00
	2212	-1	0	0	0	0	0.0000000000E+00	0.0000000000E+00	6.5000000000E+03	6.5000000000E+03	9.3827000000E-01	0.000E+00	0.0
	2212	-1	0	0	0	0	0.0000000000E+00	0.0000000000E+00	-6.5000000000E+03	6.5000000000E+03	9.3827000000E-01	0.000E+00	0.0
	2212	1	0	0	0	0	0.0000000000E+00	0.0000000000E+00	5.1918061384E+03	5.1918061384E+03	9.3827000000E-01	0.000E+00	0.0
	2212	1	0	0	0	0	0.0000000000E+00	0.0000000000E+00	-6.2895080456E+03	6.2895080456E+03	9.3827000000E-01	0.000E+00	0.0
	51	2	1	2	0	0	-1.9522091408E+01	1.3490901360E+02	1.1332817692E+03	1.5506019003E+03	1.0495032782E+03	0.000E+00	0.0
	1000022	2	5	5	0	0	1.9522091408E+01	-1.3490901360E+02	8.7699761811E+02	1.2306475190E+03	8.5251799966E+02	0.000E+00	0.0
	14	1	6	6	0	0	-1.0618953721E+02	-2.3466058445E+02	1.9485783660E+02	4.5818815370E+02	3.2500000000E+02	0.000E+00	0.0
	-14	1	6	6	0	0	1.2571162862E+02	9.9751570847E+01	6.8213978151E+02	7.7245936526E+02	3.2500000000E+02	0.000E+00	0.0
	25	2	5	5	0	0	-1.9522091408E+01	1.3490901360E+02	2.2070428904E+02	2.8803829708E+02	1.2519633931E+02	0.000E+00	0.0
	-5	1	9	9	0	501	-3.3066727544E+00	1.4007783875E+02	1.1621133377E+02	1.8208591788E+02	4.1800000000E+00	0.000E+00	0.0
	5	1	9	9	501	0	-1.6215418654E+01	-5.1688251522E+00	1.0449295527E+02	1.0595237919E+02	4.1800000000E+00	0.000E+00	0.0
</event>
<event>
    11  -1  1.0000000E+00  1.0000000E+00  -1.0000000E+00  -1.0000000E+00
	2212	-1	0	0	0	0	0.0000000000E+00	0.0000000000E+00	6.5000000000E+03	6.5000000000E+03	9.3827000000E-01	0.000E+00	0.0
	2212	-1	0	0	0	0	0.0000000000E+00	0.0000000000E+00	-6.5000000000E+03	6.5000000000E+03	9.3827000000E-01	0.000E+00	0.0
	2212	1	0	0	0	0	0.0000000000E+00	0.0000000000E+00	5.1765193578E+03	5.1765193578E+03	9.3827000000E-01	0.000E+00	0.0
	2212	1	0	0	0	0	0.0000000000E+00	0.0000000000E+00	-6.2928865787E+03	6.2928865787E+03	9.3827000000E-01	0.000E+00	0.0
	51	2	1	2	0	0	4.3227157384E-01	5.8382420894E+01	9.5550128867E+02	1.4187437479E+03	1.0471114628E+03	0.000E+00	0.0
	1000022	2	5	5	0	0	-4.3227157384E-01	-5.8382420894E+01	1.0935459807E+03	1.3906002814E+03	8.5704004384E+02	0.000E+00	0.0
	14	1	6	6	0	0	-8.4991431877E+01	-1.4447281031E+01	1.1541990475E+02	3.5549827262E+02	3.2500000000E+02	0.000E+00	0.0
	-14	1	6	6	0	0	8.4559160303E+01	-4.3935139864E+01	9.7812607592E+02	1.0351020087E+03	3.2500000000E+02	0.000E+00	0.0
	25	2	5	5	0	0	4.3227157384E-01	5.8382420894E+01	2.2821240203E+01	1.3999378220E+02	1.2517490212E+02	0.000E+00	0.0
	-5	1	9	9	0	501	-2.9857532540E+01	3.3800104686E+01	-4.3589206172E+01	6.2860246745E+01	4.1800000000E+00	0.000E+00	0.0
	5	1	9	9	501	0	3.0289804114E+01	2.4582316208E+01	6.6410446375E+01	7.7133535451E+01	4.1800000000E+00	0.000E+00	0.0
</event>
<event>
    11  -1  1.0000000E+00  1.0000000E+00  -1.0000000E+00  -1.0000000E+00
	2212	-1	0	0	0	0	0.0000000000E+00	0.0000000000E+00	6.5000000000E+03	6.5000000000E+03	9.3827000000E-01	0.000E+00	0.0
	2212	-1	0	0	0	0	0.0000000000E+00	0.0000000000E+00	-6.5000000000E+03	6.5000000000E+03	9.3827000000E-01	0.000E+00	0.0
	2212	1	0	0	0	0	0.0000000000E+00	0.0000000000E+00	6.2831026162E+03	6.2831026162E+03	9.3827000000E-01	0.000E+00	0.0
	2212	1	0	0	0	0	0.0000000000E+00	0.0000000000E+00	-5.2273862208E+03	5.2273862208E+03	9.3827000000E-01	0.000E+00	0.0
	51	2	1	2	0	0	-1.3619207003E+02	-3.3500787859E+01	-1.1045547573E+03	1.5309533605E+03	1.0507646727E+03	0.000E+00	0.0
	1000022	2	5	5	0	0	1.3619207003E+02	3.3500787859E+01	-8.2568826713E+02	1.1924281697E+03	8.4879517125E+02	0.000E+00	0.0
	14	1	6	6	0	0	3.0669040910E+02	-1.0788161217E+01	-6.3479528594E+02	7.7637970511E+02	3.2500000000E+02	0.000E+00	0.0
	-14	1	6	6	0	0	-1.7049833907E+02	4.4288949075E+01	-1.9089298119E+02	4.1604846461E+02	3.2500000000E+02	0.000E+00	0.0
	25	2	5	5	0	0	-1.3619207003E+02	-3.3500787859E+01	-2.3002812825E+02	2.9708299335E+02	1.2519897134E+02	0.000E+00	0.0
	-5	1	9	9	0	501	-2.6210818659E+01	-6.7398056375E+01	-7.9439384539E+01	1.0750624742E+02	4.1800000000E+00	0.000E+00	0.0
	5	1	9	9	501	0	-1.0998125137E+02	3.3897268516E+01	-1.5058874371E+02	1.8957674593E+02	4.1800000000E+00	0.000E+00	0.0
</event>
<event>
    11  -1  1.0000000E+00  1.0000000E+00  -1.0000000E+00  -1.0000000E+00
	2212	-1	0	0	0	0	0.0000000000E+00	0.0000000000E+00	6.5000000000E+03	6.5000000000E+03	9.3827000000E-01	0.000E+00	0.0
	2212	-1	0	0	0	0	0.0000000000E+00	0.0000000000E+00	-6.5000000000E+03	6.5000000000E+03	9.3827000000E-01	0.000E+00	0.0
	2212	1	0	0	0	0	0.0000000000E+00	0.0000000000E+00	6.0058928741E+03	6.0058928741E+03	9.3827000000E-01	0.000E+00	0.0
	2212	1	0	0	0	0	0.0000000000E+00	0.0000000000E+00	-5.9373171939E+03	5.9373171939E+03	9.3827000000E-01	0.000E+00	0.0
	51	2	1	2	0	0	8.6805243062E+00	-5.5865140419E+01	-1.1520802675E+02	1.0623424549E+03	1.0545626281E+03	0.000E+00	0.0
	1000022	2	5	5	0	0	-8.6805243062E+00	5.5865140419E+01	-1.2650608461E+01	9.0803126813E+02	9.0618126255E+02	0.000E+00	0.0
	14	1	6	6	0	0	1.0446753632E+01	-6.4157948925E+01	2.9544783542E+02	4.4400427985E+02	3.2500000000E+02	0.000E+00	0.0
	-14	1	6	6	0	0	-1.9127277938E+01	1.2002308934E+02	-3.0809844388E+02	4.6402698828E+02	3.2500000000E+02	0.000E+00	0.0
	25	2	5	5	0	0	8.6805243062E+00	-5.5865140419E+01	-5.5925071795E+01	1.4875866391E+02	1.2571897636E+02	0.000E+00	0.0
	-5	1	9	9	0	501	5.8485824250E+01	-3.5597542007E+00	-2.4484146660E+00	5.8793967569E+01	4.1800000000E+00	0.000E+00	0.0
	5	1	9	9	501	0	-4.9805299943E+01	-5.2305386219E+01	-5.3476657129E+01	8.9964696340E+01	4.1800000000E+00	0.000E+00	0.0
</event>
<event>
    11  -1  1.0000000E+00  1.0000000E+00  -1.0000000E+00  -1.0000000E+00
	2212	-1	0	0	0	0	0.0000000000E+00	0.0000000000E+00	6.5000000000E+03	6.5000000000E+03	9.3827000000E-01	0.000E+00	0.0
	2212	-1	0	0	0	0	0.0000000000E+00	0.0000000000E+00	-6.5000000000E+03	6.5000000000E+03	9.3827000000E-01	0.000E+00	0.0
	2212	1	0	0	0	0	0.0000000000E+00	0.0000000000E+00	5.7666581456E+03	5.7666581456E+03	9.3827000000E-01	0.000E+00	0.0
	2212	1	0	0	0	0	0.0000000000E+00	0.0000000000E+00	-6.1273421232E+03	6.1273421232E+03	9.3827000000E-01	0.000E+00	0.0
	51	2	1	2	0	0	5.1828121082E+01	-1.1765772111E+02	4.2195121075E+02	1.1347752163E+03	1.0455345397E+03	0.000E+00	0.0
	1000022	2	5	5	0	0	-5.1828121082E+01	1.1765772111E+02	2.3788720458E+02	8.8855034105E+02	8.4640527705E+02	0.000E+00	0.0
	14	1	6	6	0	0	-2.5952688868E+02	-7.8684176708E+01	1.1383626589E+02	4.3832533698E+02	3.2500000000E+02	0.000E+00	0.0
	-14	1	6	6	0	0	2.0769876759E+02	1.9634189781E+02	1.2405093869E+02	4.5022500407E+02	3.2500000000E+02	0.000E+00	0.0
	25	2	5	5	0	0	5.1828121082E+01	-1.1765772111E+02	1.2279677302E+02	2.1744939018E+02	1.2520262119E+02	0.000E+00	0.0
	-5	1	9	9	0	501	1.9091786761E+01	-2.0107090876E+01	1.1018639369E+02	1.1369830772E+02	4.1800000000E+00	0.000E+00	0.0
	5	1	9	9	501	0	3.2736334321E+01	-9.7550630230E+01	1.2610379337E+01	1.0375108245E+02	4.1800000000E+00	0.000E+00	0.0
</event>
<event>
    11  -1  1.0000000E+00  1.0000000E+00  -1.0000000E+00  -1.0000000E+00
	2212	-1	0	0	0	0	0.0000000000E+00	0.0000000000E+00	6.5000000000E+03	6.5000000000E+03	9.3827000000E-01	0.000E+00	0.0
	2212	-1	0	0	0	0	0.0000000000E+00	0.0000000000E+00	-6.5000000000E+03	6.5000000000E+03	9.3827000000E-01	0.000E+00	0.0
	2212	1	0	0	0	0	0.0000000000E+00	0.0000000000E+00	6.1942377854E+03	6.1942377854E+03	9.3827000000E-01	0.000E+00	0.0
	2212	1	0	0	0	0	0.0000000000E+00	0.0000000000E+00	-5.5906204153E+03	5.5906204153E+03	9.3827000000E-01	0.000E+00	0.0
	51	2	1	2	0	0	-2.7069795392E+01	-1.3545212835E+02	-5.0301540764E+02	1.1765713816E+03	1.0546163581E+03	0.000E+00	0.0
	1000022	2	5	5	0	0	2.7069795392E+01	1.3545212835E+02	-5.9229002308E+02	1.0283873848E+03	8.2927262638E+02	0.000E+00	0.0
	14	1	6	6	0	0	1.0372149517E+02	1.5245797541E+02	-3.0858014137E+01	3.7493839476E+02	3.2500000000E+02	0.000E+00	0.0
	-14	1	6	6	0	0	-7.6651699775E+01	-1.7005847066E+01	-5.6143200894E+02	6.5344899004E+02	3.2500000000E+02	0.000E+00	0.0
	25	2	5	5	0	0	-2.7069795392E+01	-1.3545212835E+02	-1.1327347047E+01	1.8675441444E+02	1.2517527561E+02	0.000E+00	0.0
	-5	1	9	9	0	501	-4.3322567884E+01	-3.4636441140E+00	-2.9174683569E+01	5.2511677559E+01	4.1800000000E+00	0.000E+00	0.0
	5	1	9	9	501	0	1.6252772493E+01	-1.3198848423E+02	1.7847336522E+01	1.3424273688E+02	4.1800000000E+00	0.000E+00	0.0
</event>
<event>
    11  -1  1.0000000E+00  1.0000000E+00  -1.0000000E+00  -1.0000000E+00
	2212	-1	0	0	0	0	0.0000000000E+00	0.0000000000E+00	6.5000000000E+03	6.5000000000E+03	9.3827000000E-01	0.000E+00	0.0
	2212	-1	0	0	0	0	0.0000000000E+00	0.0000000000E+00	-6.5000000000E+03	6.5000000000E+03	9.3827000000E-01	0.000E+00	0.0
	2212	1	0	0	0	0	0.0000000000E+00	0.0000000000E+00	6.2013659280E+03	6.2013659280E+03	9.3827000000E-01	0.000E+00	0.0
	2212	1	0	0	0	0	0.0000000000E+00	0.0000000000E+00	-5.5771449011E+03	5.5771449011E+03	9.3827000000E-01	0.000E+00	0.0
	51	2	1	2	0	0	9.5786272537E+01	-3.9926478184E+01	-5.1738917759E+02	1.1750934427E+03	1.0499447149E+03	0.000E+00	0.0
	1000022	2	5	5	0	0	-9.5786272537E+01	3.9926478184E+01	-6.2424757152E+02	1.0588859750E+03	8.4899077961E+02	0.000E+00	0.0
	14	1	6	6	0	0	-1.6301476643E+01	-2.2097985752E+02	-4.5664477656E+02	6.0269999795E+02	3.2500000000E+02	0.000E+00	0.0
	-14	1	6	6	0	0	-7.9484795894E+01	2.6090633571E+02	-1.6760279497E+02	4.5618597707E+02	3.2500000000E+02	0.000E+00	0.0
	25	2	5	5	0	0	9.5786272537E+01	-3.9926478184E+01	2.6544624936E-02	1.6260319593E+02	1.2518252656E+02	0.000E+00	0.0
	-5	1	9	9	0	501	9.3351484024E+01	2.4073302112E+01	1.2239490928E+01	9.7269219089E+01	4.1800000000E+00	0.000E+00	0.0
	5	1	9	9	501	0	2.4347885131E+00	-6.3999780296E+01	-1.2212946303E+01	6.5333976845E+01	4.1800000000E+00	0.000E+00	0.0
</event>
<event>
    11  -1  1.0000000E+00  1.0000000E+00  -1.0000000E+00  -1.0000000E+00
	2212	-1	0	0	0	0	0.0000000000E+00	0.0000000000E+00	6.5000000000E+03	6.5000000000E+03	9.3827000000E-01	0.000E+00	0.0
	2212	-1	0	0	0	0	0.0000000000E+00	0.0000000000E+00	-6.5000000000E+03	6.5000000000E+03	9.3827000000E-01	0.000E+00	0.0
	2212	1	0	0	0	0	0.0000000000E+00	0.0000000000E+00	5.3232425359E+03	5.3232425359E+03	9.3827000000E-01	0.000E+00	0.0
	2212	1	0	0	0	0	0.0000000000E+00	0.0000000000E+00	-6.2644153741E+03	6.2644153741E+03	9.3827000000E-01	0.000E+00	0.0
	51	2	1	2	0	0	1.1090853015E+02	5.7202127941E+01	1.0463255591E+03	1.4897227356E+03	1.0530450455E+03	0.000E+00	0.0
	1000022	2	5	5	0	0	-1.1090853015E+02	-5.7202127941E+01	6.7426332605E+02	1.0922260877E+03	8.5014940346E+02	0.000E+00	0.0
	14	1	6	6	0	0	-2.7148025253E+02	-1.7538308135E+02	4.8226959476E+02	6.6533428798E+02	3.2500000000E+02	0.000E+00	0.0
	-14	1	6	6	0	0	1.6057172238E+02	1.1818095341E+02	1.9199373130E+02	4.2689179968E+02	3.2500000000E+02	0.000E+00	0.0
	25	2	5	5	0	0	1.1090853015E+02	5.7202127941E+01	2.6690951216E+02	3.2011600232E+02	1.2514304520E+02	0.000E+00	0.0
	-5	1	9	9	0	501	5.1667911097E+01	2.9142654484E+01	1.7188681022E+01	6.1901458002E+01	4.1800000000E+00	0.000E+00	0.0
	5	1	9	9	501	0	5.9240619056E+01	2.8059473457E+01	2.4972083113E+02	2.5821454432E+02	4.1800000000E+00	0.000E+00	0.0
</event>
<event>
    11  -1  1.0000000E+00  1.0000000E+00  -1.0000000E+00  -1.0000000E+00
	2212	-1	0	0	0	0	0.0000000000E+00	0.0000000000E+00	6.5000000000E+03	6.5000000000E+03	9.3827000000E-01	0.000E+00	0.0
	2212	-1	0	0	0	0	0.0000000000E+00	0.0000000000E+00	-6.5000000000E+03	6.5000000000E+03	9.3827000000E-01	0.000E+00	0.0
	2212	1	0	0	0	0	0.0000000000E+00	0.0000000000E+00	6.3143296191E+03	6.3143296191E+03	9.3827000000E-01	0.000E+00	0.0
	2212	1	0	0	0	0	0.0000000000E+00	0.0000000000E+00	-5.0279607722E+03	5.0279607722E+03	9.3827000000E-01	0.000E+00	0.0
	51	2	1	2	0	0	2.5957196321E+01	7.7558237226E+01	-1.4758519770E+03	1.8105481079E+03	1.0455889904E+03	0.000E+00	0.0
	1000022	2	5	5	0	0	-2.5957196321E+01	-7.7558237226E+01	-8.7807250449E+02	1.2228922936E+03	8.4721023500E+02	0.000E+00	0.0
	14	1	6	6	0	0	1.5936282342E+02	1.0095239075E+02	-1.9370160598E+02	4.2276850267E+02	3.2500000000E+02	0.000E+00	0.0
	-14	1	6	6	0	0	-1.8532001974E+02	-1.7851062798E+02	-6.8437089851E+02	8.0012379089E+02	3.2500000000E+02	0.000E+00	0.0
	25	2	5	5	0	0	2.5957196321E+01	7.7558237226E+01	-4.0829634240E+02	4.3481731522E+02	1.2518441674E+02	0.000E+00	0.0
	-5	1	9	9	0	501	-1.9121427235E+01	-1.6972265307E+01	-1.9965751211E+02	2.0133127256E+02	4.1800000000E+00	0.000E+00	0.0
	5	1	9	9	501	0	4.5078623556E+01	9.4530502533E+01	-2.0863883029E+02	2.3348604265E+02	4.1800000000E+00	0.000E+00	0.0
</event>
<event>
    11  -1  1.0000000E+00  1.0000000E+00  -1.0000000E+00  -1.0000000E+00
	2212	-1	0	0	0	0	0.0000000000E+00	0.0000000000E+00	6.5000000000E+03	6.5000000000E+03	9.3827000000E-01	0.000E+00	0.0
	2212	-1	0	0	0	0	0.0000000000E+00	0.0000000000E+00	-6.5000000000E+03	6.5000000000E+03	9.3827000000E-01	0.000E+00	0.0
	2212	1	0	0	0	0	0.0000000000E+00	0.0000000000E+00	6.1472538225E+03	6.1472538225E+03	9.3827000000E-01	0.000E+00	0.0
	2212	1	0	0	0	0	0.0000000000E+00	0.0000000000E+00	-5.7342910878E+03	5.7342910878E+03	9.3827000000E-01	0.000E+00	0.0
	51	2	1	2	0	0	-4.8858370498E+01	1.2539279134E+02	-4.8181601506E+02	1.1535426877E+03	1.0394246329E+03	0.000E+00	0.0
	1000022	2	5	5	0	0	4.8858370498E+01	-1.2539279134E+02	-2.7140909181E+02	8.8646815034E+02	8.3309806984E+02	0.000E+00	0.0
	14	1	6	6	0	0	-7.4314186824E+01	-2.3798221507E+02	-3.1746850111E+02	5.1823680133E+02	3.2500000000E+02	0.000E+00	0.0
	-14	1	6	6	0	0	1.2317255732E+02	1.1258942373E+02	4.6059409298E+01	3.6823134901E+02	3.2500000000E+02	0.000E+00	0.0
	25	2	5	5	0	0	-4.8858370498E+01	1.2539279134E+02	-1.4155364288E+02	2.3198693938E+02	1.2517992548E+02	0.000E+00	0.0
	-5	1	9	9	0	501	3.2448058515E+00	1.0892014929E+02	-1.3960537009E+02	1.7714756403E+02	4.1800000000E+00	0.000E+00	0.0
	5	1	9	9	501	0	-5.2103176350E+01	1.6472642054E+01	-1.9482727977E+00	5.4839375351E+01	4.1800000000E+00	0.000E+00	0.0
</event>
<event>
    11  -1  1.0000000E+00  1.0000000E+00  -1.0000000E+00  -1.0000000E+00
	2212	-1	0	0	0	0	0.0000000000E+00	0.0000000000E+00	6.5000000000E+03	6.5000000000E+03	9.3827000000E-01	0.000E+00	0.0
	2212	-1	0	0	0	0	0.0000000000E+00	0.0000000000E+00	-6.5000000000E+03	6.5000000000E+03	9.3827000000E-01	0.000E+00	0.0
	2212	1	0	0	0	0	0.0000000000E+00	0.0000000000E+00	6.1034265452E+03	6.1034265452E+03	9.3827000000E-01	0.000E+00	0.0
	2212	1	0	0	0	0	0.0000000000E+00	0.0000000000E+00	-5.8033812337E+03	5.8033812337E+03	9.3827000000E-01	0.000E+00	0.0
	51	2	1	2	0	0	-7.6993661877E+01	-1.2711943949E+02	-3.0226522148E+02	1.1038540136E+03	1.0512097999E+03	0.000E+00	0.0
	1000022	2	5	5	0	0	7.6993661877E+01	1.2711943949E+02	-2.4534661979E+02	8.9132798797E+02	8.4390949895E+02	0.000E+00	0.0
	14	1	6	6	0	0	2.2317635573E+02	2.6047134825E+02	-1.7788972402E+02	5.0489876503E+02	3.2500000000E+02	0.000E+00	0.0
	-14	1	6	6	0	0	-1.4618269386E+02	-1.3335190876E+02	-6.7456895779E+01	3.8642922294E+02	3.2500000000E+02	0.000E+00	0.0
	25	2	5	5	0	0	-7.6993661877E+01	-1.2711943949E+02	-5.4698691656E+01	2.0186423313E+02	1.2517925500E+02	0.000E+00	0.0
	-5	1	9	9	0	501	-2.9681630429E+01	-2.4806244221E+01	-7.7558802065E+01	8.6770900162E+01	4.1800000000E+00	0.000E+00	0.0
	5	1	9	9	501	0	-4.7312031449E+01	-1.0231319527E+02	2.2860110408E+01	1.1509333297E+02	4.1800000000E+00	0.000E+00	0.0
</event>
<event>
    11  -1  1.0000000E+00  1.0000000E+00  -1.0000000E+00  -1.0000000E+00
	2212	-1	0	0	0	0	0.0000000000E+00	0.0000000000E+00	6.5000000000E+03	6.5000000000E+03	9.3827000000E-01	0.000E+00	0.0
	2212	-1	0	0	0	0	0.0000000000E+00	0.0000000000E+00	-6.5000000000E+03	6.5000000000E+03	9.3827000000E-01	0.000E+00	0.0
	2212	1	0	0	0	0	0.0000000000E+00	0.0000000000E+00	6.2401369916E+03	6.2401369916E+03	9.3827000000E-01	0.000E+00	0.0
	2212	1	0	0	0	0	0.0000000000E+00	0.0000000000E+00	-5.4385237800E+03	5.4385237800E+03	9.3827000000E-01	0.000E+00	0.0
	51	2	1	2	0	0	-5.5118755643E+01	-4.6909401165E+01	-6.5635858032E+02	1.2407250987E+03	1.0504064049E+03	0.000E+00	0.0
	1000022	2	5	5	0	0	5.5118755643E+01	4.6909401165E+01	-8.1010966712E+02	1.1765280034E+03	8.5011875697E+02	0.000E+00	0.0
	14	1	6	6	0	0	3.6861038041E+01	-1.7391465119E+02	-1.3326568952E+02	3.9368742173E+02	3.2500000000E+02	0.000E+00	0.0
	-14	1	6	6	0	0	1.8257717602E+01	2.2082405235E+02	-6.7684397759E+02	7.8284058170E+02	3.2500000000E+02	0.000E+00	0.0
	25	2	5	5	0	0	-5.5118755643E+01	-4.6909401165E+01	8.4964554843E+00	1.4481122494E+02	1.2513805165E+02	0.000E+00	0.0
	-5	1	9	9	0	501	2.1570899838E+01	-3.1565382203E+01	-3.7720819247E+01	5.3870304233E+01	4.1800000000E+00	0.000E+00	0.0
	5	1	9	9	501	0	-7.6689655481E+01	-1.5344018962E+01	4.6217274731E+01	9.0940920709E+01	4.1800000000E+00	0.000E+00	0.0
</event>
<event>
    11  -1  1.0000000E+00  1.0000000E+00  -1.0000000E+00  -1.0000000E+00
	2212	-1	0	0	0	0	0.0000000000E+00	0.0000000000E+00	6.5000000000E+03	6.5000000000E+03	9.3827000000E-01	0.000E+00	0.0
	2212	-1	0	0	0	0	0.0000000000E+00	0.0000000000E+00	-6.5000000000E+03	6.5000000000E+03	9.3827000000E-01	0.000E+00	0.0
	2212	1	0	0	0	0	0.0000000000E+00	0.0000000000E+00	6.2990500880E+03	6.2990500880E+03	9.3827000000E-01	0.000E+00	0.0
	2212	1	0	0	0	0	0.0000000000E+00	0.0000000000E+00	-5.1494871331E+03	5.1494871331E+03	9.3827000000E-01	0.000E+00	0.0
	51	2	1	2	0	0	-9.4637530333E+01	-7.6454403372E+01	-1.3579989230E+03	1.7159558210E+03	1.0418933568E+03	0.000E+00	0.0
	1000022	2	5	5	0	0	9.4637530333E+01	7.6454403372E+01	-7.1823410106E+02	1.0861510521E+03	8.0564405673E+02	0.000E+00	0.0
	14	1	6	6	0	0	1.2342471105E+02	2.3884927794E+02	-5.2561516351E+02	6.7392799095E+02	3.2500000000E+02	0.000E+00	0.0
	-14	1	6	6	0	0	-2.8787180719E+01	-1.6239487456E+02	-1.9261893755E+02	4.1222306117E+02	3.2500000000E+02	0.000E+00	0.0
	25	2	5	5	0	0	-9.4637530333E+01	-7.6454403372E+01	-4.3132885384E+02	4.6531172673E+02	1.2517541664E+02	0.000E+00	0.0
	-5	1	9	9	0	501	-6.0374737485E+01	8.7957165172E+00	-7.2328393662E+01	9.4717171015E+01	4.1800000000E+00	0.000E+00	0.0
	5	1	9	9	501	0	-3.4262792848E+01	-8.5250119890E+01	-3.5900046018E+02	3.7059455571E+02	4.1800000000E+00	0.000E+00	0.0
</event>
<event>
    11  -1  1.0000000E+00  1.0000000E+00  -1.0000000E+00  -1.0000000E+00
	2212	-1	0	0	0	0	0.0000000000E+00	0.0000000000E+00	6.5000000000E+03	6.5000000000E+03	9.3827000000E-01	0.000E+00	0.0
	2212	-1	0	0	0	0	0.0000000000E+00	0.0000000000E+00	-6.5000000000E+03	6.5000000000E+03	9.3827000000E-01	0.000E+00	0.0
	2212	1	0	0	0	0	0.0000000000E+00	0.0000000000E+00	6.1985365698E+03	6.1985365698E+03	9.3827000000E-01	0.000E+00	0.0
	2212	1	0	0	0	0	0.0000000000E+00	0.0000000000E+00	-5.5704910704E+03	5.5704910704E+03	9.3827000000E-01	0.000E+00	0.0
	51	2	1	2	0	0	-8.3718586867E+01	-6.7147624350E+01	-7.6601720593E+02	1.3111642790E+03	1.0587028863E+03	0.000E+00	0.0
	1000022	2	5	5	0	0	8.3718586867E+01	6.7147624350E+01	-3.7831528824E+02	9.3173320581E+02	8.4468142175E+02	0.000E+00	0.0
	14	1	6	6	0	0	-7.2730954125E+01	1.7747489109E+02	2.6651235985E+01	3.7831523500E+02	3.2500000000E+02	0.000E+00	0.0
	-14	1	6	6	0	0	1.5644954099E+02	-1.1032726674E+02	-4.0496652422E+02	5.5341797080E+02	3.2500000000E+02	0.000E+00	0.0
	25	2	5	5	0	0	-8.3718586867E+01	-6.7147624350E+01	-2.4973021109E+02	2.9923915400E+02	1.2514506668E+02	0.000E+00	0.0
	-5	1	9	9	0	501	-5.2838130817E+01	-1.0158967445E+02	-1.4608652126E+02	1.8566387402E+02	4.1800000000E+00	0.000E+00	0.0
	5	1	9	9	501	0	-3.0880456051E+01	3.4442050100E+01	-1.0364368983E+02	1.1357527998E+02	4.1800000000E+00	0.000E+00	0.0
</event>
<event>
    11  -1  1.0000000E+00  1.0000000E+00  -1.0000000E+00  -1.0000000E+00
	2212	-1	0	0	0	0	0.0000000000E+00	0.0000000000E+00	6.5000000000E+03	6.5000000000E+03	9.3827000000E-01	0.000E+00	0.0
	2212	-1	0	0	0	0	0.0000000000E+00	0.0000000000E+00	-6.5000000000E+03	6.5000000000E+03	9.3827000000E-01	0.000E+00	0.0
	2212	1	0	0	0	0	0.0000000000E+00	0.0000000000E+00	5.1050078872E+03	5.1050078872E+03	9.3827000000E-01	0.000E+00	0.0
	2212	1	0	0	0	0	0.0000000000E+00	0.0000000000E+00	-6.2462162975E+03	6.2462162975E+03	9.3827000000E-01	0.000E+00	0.0
	51	2	1	2	0	0	-2.0723910466E+02	5.6511579135E+01	1.4044784668E+03	1.8533230756E+03	1.1900021234E+03	0.000E+00	0.0
	1000022	2	5	5	0	0	2.0723910466E+02	-5.6511579135E+01	6.1951733193E+02	1.0708713952E+03	8.4665353923E+02	0.000E+00	0.0
	14	1	6	6	0	0	7.4381276512E+01	-2.9668078443E+02	3.5144981237E+02	5.6806164521E+02	3.2500000000E+02	0.000E+00	0.0
	-14	1	6	6	0	0	1.3285782815E+02	2.4016920529E+02	2.6806751957E+02	5.0280975002E+02	3.2500000000E+02	0.000E+00	0.0
	25	2	5	5	0	0	-2.0723910466E+02	5.6511579135E+01	5.2169107833E+02	5.7790442013E+02	1.2518119875E+02	0.000E+00	0.0
	-5	1	9	9	0	501	-1.7072159924E+02	-1.0769978184E+01	3.3763095005E+02	3.7851550524E+02	4.1800000000E+00	0.000E+00	0.0
	5	1	9	9	501	0	-3.6517505418E+01	6.7281557319E+01	1.8406012828E+02	1.9938891489E+02	4.1800000000E+00	0.000E+00	0.0
</event>
<event>
    11  -1  1.0000000E+00  1.0000000E+00  -1.0000000E+00  -1.0000000E+00
	2212	-1	0	0	0	0	0.0000000000E+00	0.0000000000E+00	6.5000000000E+03	6.5000000000E+03	9.3827000000E-01	0.000E+00	0.0
	2212	-1	0	0	0	0	0.0000000000E+00	0.0000000000E+00	-6.5000000000E+03	6.5000000000E+03	9.3827000000E-01	0.000E+00	0.0
	2212	1	0	0	0	0	0.0000000000E+00	0.0000000000E+00	6.2889167331E+03	6.2889167331E+03	9.3827000000E-01	0.000E+00	0.0
	2212	1	0	0	0	0	0.0000000000E+00	0.0000000000E+00	-5.1992995404E+03	5.1992995404E+03	9.3827000000E-01	0.000E+00	0.0
	51	2	1	2	0	0	1.4709876413E+02	-8.6511015444E+01	-1.1806709604E+03	1.5878698082E+03	1.0479620264E+03	0.000E+00	0.0
	1000022	2	5	5	0	0	-1.4709876413E+02	8.6511015444E+01	-7.8758629592E+02	1.1429785204E+03	8.1054643440E+02	0.000E+00	0.0
	14	1	6	6	0	0	-3.4663415635E+01	-6.3600543025E+01	-6.7262329481E+02	7.5052893227E+02	3.2500000000E+02	0.000E+00	0.0
	-14	1	6	6	0	0	-1.1243534850E+02	1.5011155847E+02	-1.1496300111E+02	3.9244958810E+02	3.2500000000E+02	0.000E+00	0.0
	25	2	5	5	0	0	1.4709876413E+02	-8.6511015444E+01	-3.0203089683E+02	3.6880520609E+02	1.2518951712E+02	0.000E+00	0.0
	-5	1	9	9	0	501	5.7232693622E+01	8.1243746175E+00	-2.6147725372E+01	6.3582722687E+01	4.1800000000E+00	0.000E+00	0.0
	5	1	9	9	501	0	8.9866070512E+01	-9.4635390062E+01	-2.7588317146E+02	3.0522248340E+02	4.1800000000E+00	0.000E+00	0.0
</event>
<event>
    11  -1  1.0000000E+00  1.0000000E+00  -1.0000000E+00  -1.0000000E+00
	2212	-1	0	0	0	0	0.0000000000E+00	0.0000000000E+00	6.5000000000E+03	6.5000000000E+03	9.3827000000E-01	0.000E+00	0.0
	2212	-1	0	0	0	0	0.0000000000E+00	0.0000000000E+00	-6.5000000000E+03	6.5000000000E+03	9.3827000000E-01	0.000E+00	0.0
	2212	1	0	0	0	0	0.0000000000E+00	0.0000000000E+00	4.8958046401E+03	4.8958046401E+03	9.3827000000E-01	0.000E+00	0.0
	2212	1	0	0	0	0	0.0000000000E+00	0.0000000000E+00	-6.3303310240E+03	6.3303310240E+03	9.3827000000E-01	0.000E+00	0.0
	51	2	1	2	0	0	-9.6973948238E+01	-4.6584969991E+01	1.5863842269E+03	1.9018195912E+03	1.0434216483E+03	0.000E+00	0.0
	1000022	2	5	5	0	0	9.6973948238E+01	4.6584969991E+01	1.0411257951E+03	1.3472292744E+03	8.4823917054E+02	0.000E+00	0.0
	14	1	6	6	0	0	1.6385260551E+02	-2.1785801140E+02	6.0371738390E+02	7.3784108661E+02	3.2500000000E+02	0.000E+00	0.0
	-14	1	6	6	0	0	-6.6878657267E+01	2.6444298139E+02	4.3740841120E+02	6.0938818777E+02	3.2500000000E+02	0.000E+00	0.0
	25	2	5	5	0	0	-9.6973948238E+01	-4.6584969991E+01	3.9340058877E+02	4.2663506150E+02	1.2521719684E+02	0.000E+00	0.0
	-5	1	9	9	0	501	-2.7321879444E+01	2.9444742558E+01	2.2896935888E+02	2.3250358635E+02	4.1800000000E+00	0.000E+00	0.0
	5	1	9	9	501	0	-6.9652068794E+01	-7.6029712549E+01	1.6443122989E+02	1.9413147514E+02	4.1800000000E+00	0.000E+00	0.0
</event>
<event>
    11  -1  1.0000000E+00  1.0000000E+00  -1.0000000E+00  -1.0000000E+00
	2212	-1	0	0	0	0	0.0000000000E+00	0.0000000000E+00	6.5000000000E+03	6.5000000000E+03	9.3827000000E-01	0.000E+00	0.0
	2212	-1	0	0	0	0	0.0000000000E+00	0.0000000000E+00	-6.5000000000E+03	6.5000000000E+03	9.3827000000E-01	0.000E+00	0.0
	2212	1	0	0	0	0	0.0000000000E+00	0.0000000000E+00	5.9704502893E+03	5.9704502893E+03	9.3827000000E-01	0.000E+00	0.0
	2212	1	0	0	0	0	0.0000000000E+00	0.0000000000E+00	-5.9862431360E+03	5.9862431360E+03	9.3827000000E-01	0.000E+00	0.0
	51	2	1	2	0	0	-1.2638555035E+02	-2.9707893310E+00	3.4674276670E+01	1.0513912846E+03	1.0431870373E+03	0.000E+00	0.0
	1000022	2	5	5	0	0	1.2638555035E+02	2.9707893310E+00	-5.6789459506E+00	8.6409740402E+02	8.5478063869E+02	0.000E+00	0.0
	14	1	6	6	0	0	-3.5706468880E+01	-2.3267892011E+02	1.0976528675E+02	4.1603827944E+02	3.2500000000E+02	0.000E+00	0.0
	-14	1	6	6	0	0	1.6209201923E+02	2.3564970944E+02	-1.1544423270E+02	4.4805912458E+02	3.2500000000E+02	0.000E+00	0.0
	25	2	5	5	0	0	-1.2638555035E+02	-2.9707893310E+00	2.1471792630E+01	1.7920917070E+02	1.2519087850E+02	0.000E+00	0.0
	-5	1	9	9	0	501	-4.0955569328E+01	-1.8605074811E+01	6.7195509020E+01	8.0970465604E+01	4.1800000000E+00	0.000E+00	0.0
	5	1	9	9	501	0	-8.5429981019E+01	1.5634285480E+01	-4.5723716390E+01	9.8238705101E+01	4.1800000000E+00	0.000E+00	0.0
</event>
<event>
    11  -1  1.0000000E+00  1.0000000E+00  -1.0000000E+00  -1.0000000E+00
	2212	-1	0	0	0	0	0.0000000000E+00	0.0000000000E+00	6.5000000000E+03	6.5000000000E+03	9.3827000000E-01	0.000E+00	0.0
	2212	-1	0	0	0	0	0.0000000000E+00	0.0000000000E+00	-6.5000000000E+03	6.5000000000E+03	9.3827000000E-01	0.000E+00	0.0
	2212	1	0	0	0	0	0.0000000000E+00	0.0000000000E+00	6.3110859488E+03	6.3110859488E+03	9.3827000000E-01	0.000E+00	0.0
	2212	1	0	0	0	0	0.0000000000E+00	0.0000000000E+00	-5.0489251111E+03	5.0489251111E+03	9.3827000000E-01	0.000E+00	0.0
	51	2	1	2	0	0	-5.2828604571E+00	-8.5856773809E+01	-1.1057562144E+03	1.5253228653E+03	1.0471455217E+03	0.000E+00	0.0
	1000022	2	5	5	0	0	5.2828604571E+00	8.5856773809E+01	-1.2055684204E+03	1.4778972672E+03	8.5052091207E+02	0.000E+00	0.0
	14	1	6	6	0	0	-1.2754941537E+02	-4.1864842933E+01	-9.8070742025E+02	1.0418414287E+03	3.2500000000E+02	0.000E+00	0.0
	-14	1	6	6	0	0	1.3283227583E+02	1.2772161674E+02	-2.2486100017E+02	4.3605583849E+02	3.2500000000E+02	0.000E+00	0.0
	25	2	5	5	0	0	-5.2828604571E+00	-8.5856773809E+01	-5.6592417230E+01	1.6209167291E+02	1.2518671861E+02	0.000E+00	0.0
	-5	1	9	9	0	501	-1.5675260071E+01	-7.0202063257E+01	2.6521081298E+01	7.6778145439E+01	4.1800000000E+00	0.000E+00	0.0
	5	1	9	9	501	0	1.0392399614E+01	-1.5654710551E+01	-8.3113498528E+01	8.5313527472E+01	4.1800000000E+00	0.000E+00	0.0
</event>
<event>
    11  -1  1.0000000E+00  1.0000000E+00  -1.0000000E+00  -1.0000000E+00
	2212	-1	0	0	0	0	0.0000000000E+00	0.0000000000E+00	6.5000000000E+03	6.5000000000E+03	9.3827000000E-01	0.000E+00	0.0
	2212	-1	0	0	0	0	0.0000000000E+00	0.0000000000E+00	-6.5000000000E+03	6.5000000000E+03	9.3827000000E-01	0.000E+00	0.0
	2212	1	0	0	0	0	0.0000000000E+00	0.0000000000E+00	6.2087516509E+03	6.2087516509E+03	9.3827000000E-01	0.000E+00	0.0
	2212	1	0	0	0	0	0.0000000000E+00	0.0000000000E+00	-5.5574925267E+03	5.5574925267E+03	9.3827000000E-01	0.000E+00	0.0
	51	2	1	2	0	0	-7.6841986490E+01	-1.0765043611E+02	-6.2555676116E+02	1.2275298575E+03	1.0478621008E+03	0.000E+00	0.0
	1000022	2	5	5	0	0	7.6841986490E+01	1.0765043611E+02	-5.6795475624E+02	1.0334776721E+03	8.5323512950E+02	0.000E+00	0.0
	14	1	6	6	0	0	-9.1621331588E+01	-2.4233664035E+01	7.7382919185E+00	3.3862460046E+02	3.2500000000E+02	0.000E+00	0.0
	-14	1	6	6	0	0	1.6846331808E+02	1.3188410014E+02	-5.7569304816E+02	6.9485307159E+02	3.2500000000E+02	0.000E+00	0.0
	25	2	5	5	0	0	-7.6841986490E+01	-1.0765043611E+02	-8.3304368041E+01	2.0027815034E+02	1.2521346768E+02	0.000E+00	0.0
	-5	1	9	9	0	501	-1.5407641940E+01	-1.1203719969E+02	-7.9745323106E+01	1.3844319594E+02	4.1800000000E+00	0.000E+00	0.0
	5	1	9	9	501	0	-6.1434344550E+01	4.3867635887E+00	-3.5590449353E+00	6.1834954402E+01	4.1800000000E+00	0.000E+00	0.0
</event>
<event>
    11  -1  1.0000000E+00  1.0000000E+00  -1.0000000E+00  -1.0000000E+00
	2212	-1	0	0	0	0	0.0000000000E+00	0.0000000000E+00	6.5000000000E+03	6.5000000000E+03	9.3827000000E-01	0.000E+00	0.0
	2212	-1	0	0	0	0	0.0000000000E+00	0.0000000000E+00	-6.5000000000E+03	6.5000000000E+03	9.3827000000E-01	0.000E+00	0.0
	2212	1	0	0	0	0	0.0000000000E+00	0.0000000000E+00	6.0835185209E+03	6.0835185209E+03	9.3827000000E-01	0.000E+00	0.0
	2212	1	0	0	0	0	0.0000000000E+00	0.0000000000E+00	-5.6789845386E+03	5.6789845386E+03	9.3827000000E-01	0.000E+00	0.0
	51	2	1	2	0	0	7.5933554156E+01	-2.3837897772E+02	-3.7892456941E+02	1.2545617585E+03	1.1695088434E+03	0.000E+00	0.0
	1000022	2	5	5	0	0	-7.5933554156E+01	2.3837897772E+02	-3.4201654047E+02	9.5084608571E+02	8.5120063621E+02	0.000E+00	0.0
	14	1	6	6	0	0	-2.3735909756E+02	1.3469203689E+02	-3.8243713974E+02	5.7128316258E+02	3.2500000000E+02	0.000E+00	0.0
	-14	1	6	6	0	0	1.6142554341E+02	1.0368694083E+02	4.0420599270E+01	3.7956292312E+02	3.2500000000E+02	0.000E+00	0.0
	25	2	5	5	0	0	7.5933554156E+01	-2.3837897772E+02	-6.2517441803E+01	2.8665085479E+02	1.2517923292E+02	0.000E+00	0.0
	-5	1	9	9	0	501	1.4219197823E+00	-1.4449021235E+02	1.2644785605E+01	1.4510963553E+02	4.1800000000E+00	0.000E+00	0.0
	5	1	9	9	501	0	7.4511634373E+01	-9.3888765366E+01	-7.5162227409E+01	1.4154121925E+02	4.1800000000E+00	0.000E+00	0.0
</event>
<event>
    11  -1  1.0000000E+00  1.0000000E+00  -1.0000000E+00  -1.0000000E+00
	2212	-1	0	0	0	0	0.0000000000E+00	0.0000000000E+00	6.5000000000E+03	6.5000000000E+03	9.3827000000E-01	0.000E+00	0.0
	2212	-1	0	0	0	0	0.0000000000E+00	0.0000000000E+00	-6.5000000000E+03	6.5000000000E+03	9.3827000000E-01	0.000E+00	0.0
	2212	1	0	0	0	0	0.0000000000E+00	0.0000000000E+00	6.2006708367E+03	6.2006708367E+03	9.3827000000E-01	0.000E+00	0.0
	2212	1	0	0	0	0	0.0000000000E+00	0.0000000000E+00	-5.5658701046E+03	5.5658701046E+03	9.3827000000E-01	0.000E+00	0.0
	51	2	1	2	0	0	-8.0287365956E+01	-1.2780707271E+02	-6.3987541057E+02	1.2452592221E+03	1.0575676244E+03	0.000E+00	0.0
	1000022	2	5	5	0	0	8.0287365956E+01	1.2780707271E+02	-5.1845675453E+02	1.0054554192E+03	8.4815239475E+02	0.000E+00	0.0
	14	1	6	6	0	0	-7.4355238032E+00	1.5440096840E+01	-5.6044819597E+02	6.4809016655E+02	3.2500000000E+02	0.000E+00	0.0
	-14	1	6	6	0	0	8.7722889759E+01	1.1236697587E+02	4.1991441438E+01	3.5736525266E+02	3.2500000000E+02	0.000E+00	0.0
	25	2	5	5	0	0	-8.0287365956E+01	-1.2780707271E+02	-1.1634397760E+02	2.2800363956E+02	1.2517599435E+02	0.000E+00	0.0
	-5	1	9	9	0	501	-3.3913501389E+01	9.6883690107E+00	8.5205060580E+00	3.6524806557E+01	4.1800000000E+00	0.000E+00	0.0
	5	1	9	9	501	0	-4.6373864567E+01	-1.3749544172E+02	-1.2486448366E+02	1.9147883300E+02	4.1800000000E+00	0.000E+00	0.0
</event>
<event>
    11  -1  1.0000000E+00  1.0000000E+00  -1.0000000E+00  -1.0000000E+00
	2212	-1	0	0	0	0	0.0000000000E+00	0.0000000000E+00	6.5000000000E+03	6.5000000000E+03	9.3827000000E-01	0.000E+00	0.0
	2212	-1	0	0	0	0	0.0000000000E+00	0.0000000000E+00	-6.5000000000E+03	6.5000000000E+03	9.3827000000E-01	0.000E+00	0.0
	2212	1	0	0	0	0	0.0000000000E+00	0.0000000000E+00	5.9644972586E+03	5.9644972586E+03	9.3827000000E-01	0.000E+00	0.0
	2212	1	0	0	0	0	0.0000000000E+00	0.0000000000E+00	-5.9922897720E+03	5.9922897720E+03	9.3827000000E-01	0.000E+00	0.0
	51	2	1	2	0	0	-3.9036578503E+00	-1.4333297805E+02	4.0872860701E+01	1.0534472211E+03	1.0428426898E+03	0.000E+00	0.0
	1000022	2	5	5	0	0	3.9036578503E+00	1.4333297805E+02	9.8919201616E+00	8.5204714993E+02	8.3983743336E+02	0.000E+00	0.0
	14	1	6	6	0	0	-1.1960473077E+02	-1.1343259509E+02	-1.4601023744E+02	3.9257640618E+02	3.2500000000E+02	0.000E+00	0.0
	-14	1	6	6	0	0	1.2350838862E+02	2.5676557315E+02	1.5590215761E+02	4.5947074375E+02	3.2500000000E+02	0.000E+00	0.0
	25	2	5	5	0	0	-3.9036578503E+00	-1.4333297805E+02	1.7900593209E+01	1.9116581945E+02	1.2515733357E+02	0.000E+00	0.0
	-5	1	9	9	0	501	6.3163146582E+00	-4.0491264299E+00	-3.9272025517E+01	4.0200194575E+01	4.1800000000E+00	0.000E+00	0.0
	5	1	9	9	501	0	-1.0219972508E+01	-1.3928385162E+02	5.7172618726E+01	1.5096562487E+02	4.1800000000E+00	0.000E+00	0.0
</event>
<event>
    11  -1  1.0000000E+00  1.0000000E+00  -1.0000000E+00  -1.0000000E+00
	2212	-1	0	0	0	0	0.0000000000E+00	0.0000000000E+00	6.5000000000E+03	6.5000000000E+03	9.3827000000E-01	0.000E+00	0.0
	2212	-1	0	0	0	0	0.0000000000E+00	0.0000000000E+00	-6.5000000000E+03	6.5000000000E+03	9.3827000000E-01	0.000E+00	0.0
	2212	1	0	0	0	0	0.0000000000E+00	0.0000000000E+00	5.2081786665E+03	5.2081786665E+03	9.3827000000E-01	0.000E+00	0.0
	2212	1	0	0	0	0	0.0000000000E+00	0.0000000000E+00	-6.2872027429E+03	6.2872027429E+03	9.3827000000E-01	0.000E+00	0.0
	51	2	1	2	0	0	1.2267963506E+02	6.2309781221E+01	1.0647713818E+03	1.5007514927E+03	1.0486105786E+03	0.000E+00	0.0
	1000022	2	5	5	0	0	-1.2267963506E+02	-6.2309781221E+01	9.1049601720E+02	1.2536115607E+03	8.5065042535E+02	0.000E+00	0.0
	14	1	6	6	0	0	-1.4102138191E+02	-2.3303287569E+02	2.3557531300E+02	4.8508976428E+02	3.2500000000E+02	0.000E+00	0.0
	-14	1	6	6	0	0	1.8341746851E+01	1.7072309447E+02	6.7492070420E+02	7.6852179645E+02	3.2500000000E+02	0.000E+00	0.0
	25	2	5	5	0	0	1.2267963506E+02	6.2309781221E+01	1.6852805926E+02	2.5100702988E+02	1.2517995284E+02	0.000E+00	0.0
	-5	1	9	9	0	501	1.7465833665E+01	-1.6014562883E+01	1.0020546249E+02	1.0305400857E+02	4.1800000000E+00	0.000E+00	0.0
	5	1	9	9	501	0	1.0521380140E+02	7.8324344104E+01	6.8322596777E+01	1.4795302131E+02	4.1800000000E+00	0.000E+00	0.0
</event>
<event>
    11  -1  1.0000000E+00  1.0000000E+00  -1.0000000E+00  -1.0000000E+00
	2212	-1	0	0	0	0	0.0000000000E+00	0.0000000000E+00	6.5000000000E+03	6.5000000000E+03	9.3827000000E-01	0.000E+00	0.0
	2212	-1	0	0	0	0	0.0000000000E+00	0.0000000000E+00	-6.5000000000E+03	6.5000000000E+03	9.3827000000E-01	0.000E+00	0.0
	2212	1	0	0	0	0	0.0000000000E+00	0.0000000000E+00	6.0200199673E+03	6.0200199673E+03	9.3827000000E-01	0.000E+00	0.0
	2212	1	0	0	0	0	0.0000000000E+00	0.0000000000E+00	-5.9210798929E+03	5.9210798929E+03	9.3827000000E-01	0.000E+00	0.0
	51	2	1	2	0	0	1.1952518030E+02	-7.8408548734E+01	-1.5272278337E+02	1.0748203503E+03	1.0542676926E+03	0.000E+00	0.0
	1000022	2	5	5	0	0	-1.1952518030E+02	7.8408548734E+01	-2.7683477974E+01	8.5596670864E+02	8.4349182693E+02	0.000E+00	0.0
	14	1	6	6	0	0	-3.0703020107E+02	1.4177420371E+02	3.4902744752E+01	4.7033038473E+02	3.2500000000E+02	0.000E+00	0.0
	-14	1	6	6	0	0	1.8750502077E+02	-6.3365654972E+01	-6.2586222726E+01	3.8563632391E+02	3.2500000000E+02	0.000E+00	0.0
	25	2	5	5	0	0	1.1952518030E+02	-7.8408548734E+01	-7.1256596470E+01	2.0293343112E+02	1.2518109156E+02	0.000E+00	0.0
	-5	1	9	9	0	501	1.1178875415E+02	-2.5190355456E+01	-1.4012245148E+00	1.1467656863E+02	4.1800000000E+00	0.000E+00	0.0
	5	1	9	9	501	0	7.7364261543E+00	-5.3218193279E+01	-6.9855371955E+01	8.8256862490E+01	4.1800000000E+00	0.000E+00	0.0
</event>
<event>
    11  -1  1.0000000E+00  1.0000000E+00  -1.0000000E+00  -1.0000000E+00
	2212	-1	0	0	0	0	0.0000000000E+00	0.0000000000E+00	6.5000000000E+03	6.5000000000E+03	9.3827000000E-01	0.000E+00	0.0
	2212	-1	0	0	0	0	0.0000000000E+00	0.0000000000E+00	-6.5000000000E+03	6.5000000000E+03	9.3827000000E-01	0.000E+00	0.0
	2212	1	0	0	0	0	0.0000000000E+00	0.0000000000E+00	6.2789964588E+03	6.2789964588E+03	9.3827000000E-01	0.000E+00	0.0
	2212	1	0	0	0	0	0.0000000000E+00	0.0000000000E+00	-5.2396474392E+03	5.2396474392E+03	9.3827000000E-01	0.000E+00	0.0
	51	2	1	2	0	0	6.6330933779E+01	1.5835462157E+01	-1.2309208890E+03	1.6229560395E+03	1.0555422855E+03	0.000E+00	0.0
	1000022	2	5	5	0	0	-6.6330933779E+01	-1.5835462157E+01	-6.6812217396E+02	1.0836987766E+03	8.5050881495E+02	0.000E+00	0.0
	14	1	6	6	0	0	4.6931326073E+01	1.4198385858E+02	-5.3384867321E+01	3.6171385033E+02	3.2500000000E+02	0.000E+00	0.0
	-14	1	6	6	0	0	-1.1326225985E+02	-1.5781932074E+02	-6.1473730664E+02	7.2198492622E+02	3.2500000000E+02	0.000E+00	0.0
	25	2	5	5	0	0	6.6330933779E+01	1.5835462157E+01	-3.7122684556E+02	3.9765732543E+02	1.2518555415E+02	0.000E+00	0.0
	-5	1	9	9	0	501	5.7574517506E+01	-2.5419865854E+01	-3.3791556176E+02	3.4375193662E+02	4.1800000000E+00	0.000E+00	0.0
	5	1	9	9	501	0	8.7564162734E+00	4.1255328010E+01	-3.3311283800E+01	5.3905388818E+01	4.1800000000E+00	0.000E+00	0.0
</event>
<event>
    11  -1  1.0000000E+00  1.0000000E+00  -1.0000000E+00  -1.0000000E+00
	2212	-1	0	0	0	0	0.0000000000E+00	0.0000000000E+00	6.5000000000E+03	6.5000000000E+03	9.3827000000E-01	0.000E+00	0.0
	2212	-1	0	0	0	0	0.0000000000E+00	0.0000000000E+00	-6.5000000000E+03	6.5000000000E+03	9.3827000000E-01	0.000E+00	0.0
	2212	1	0	0	0	0	0.0000000000E+00	0.0000000000E+00	6.0084195360E+03	6.0084195360E+03	9.3827000000E-01	0.000E+00	0.0
	2212	1	0	0	0	0	0.0000000000E+00	0.0000000000E+00	-5.9381258115E+03	5.9381258115E+03	9.3827000000E-01	0.000E+00	0.0
	51	2	1	2	0	0	1.1343307093E+02	-4.1220337393E+01	-1.3602334267E+01	1.0581005143E+03	1.0511067962E+03	0.000E+00	0.0
	1000022	2	5	5	0	0	-1.1343307093E+02	4.1220337393E+01	-1.1530984282E+02	8.7383770073E+02	8.5774692629E+02	0.000E+00	0.0
	14	1	6	6	0	0	-2.6295278743E+02	-3.4335333651E+00	1.2995300055E+02	4.3779988570E+02	3.2500000000E+02	0.000E+00	0.0
	-14	1	6	6	0	0	1.4951971651E+02	4.4653870758E+01	-2.4526284336E+02	4.3603781503E+02	3.2500000000E+02	0.000E+00	0.0
	25	2	5	5	0	0	1.1343307093E+02	-4.1220337393E+01	4.5016118282E+01	1.7961695174E+02	1.2517835537E+02	0.000E+00	0.0
	-5	1	9	9	0	501	3.3216973206E+01	-7.4665998937E+01	3.8700436794E-01	8.1829095551E+01	4.1800000000E+00	0.000E+00	0.0
	5	1	9	9	501	0	8.0216097719E+01	3.3445661544E+01	4.4629113914E+01	9.7787856190E+01	4.1800000000E+00	0.000E+00	0.0
</event>
<event>
    11  -1  1.0000000E+00  1.0000000E+00  -1.0000000E+00  -1.0000000E+00
	2212	-1	0	0	0	0	0.0000000000E+00	0.0000000000E+00	6.5000000000E+03	6.5000000000E+03	9.3827000000E-01	0.000E+00	0.0
	2212	-1	0	0	0	0	0.0000000000E+00	0.0000000000E+00	-6.5000000000E+03	6.5000000000E+03	9.3827000000E-01	0.000E+00	0.0
	2212	1	0	0	0	0	0.0000000000E+00	0.0000000000E+00	5.1956918290E+03	5.1956918290E+03	9.3827000000E-01	0.000E+00	0.0
	2212	1	0	0	0	0	0.0000000000E+00	0.0000000000E+00	-6.2860316089E+03	6.2860316089E+03	9.3827000000E-01	0.000E+00	0.0
	51	2	1	2	0	0	7.7724712909E+01	1.0362347215E+02	1.1347653833E+03	1.5558901998E+03	1.0565618219E+03	0.000E+00	0.0
	1000022	2	5	5	0	0	-7.7724712909E+01	-1.0362347215E+02	8.6670242848E+02	1.2311141127E+03	8.6469064061E+02	0.000E+00	0.0
	14	1	6	6	0	0	1.6200191887E+02	-2.1781179919E+02	5.9813652147E+02	7.3285667078E+02	3.2500000000E+02	0.000E+00	0.0
	-14	1	6	6	0	0	-2.3972663178E+02	1.1418832704E+02	2.6856590701E+02	4.9825744192E+02	3.2500000000E+02	0.000E+00	0.0
	25	2	5	5	0	0	7.7724712909E+01	1.0362347215E+02	2.2363735137E+02	2.8716244944E+02	1.2517848243E+02	0.000E+00	0.0
	-5	1	9	9	0	501	-8.6895819125E+00	-2.0723358838E+01	9.2509541950E+00	2.4658041059E+01	4.1800000000E+00	0.000E+00	0.0
	5	1	9	9	501	0	8.6414294822E+01	1.2434683098E+02	2.1438639718E+02	2.6250440838E+02	4.1800000000E+00	0.000E+00	0.0
</event>
<event>
    11  -1  1.0000000E+00  1.0000000E+00  -1.0000000E+00  -1.0000000E+00
	2212	-1	0	0	0	0	0.0000000000E+00	0.0000000000E+00	6.5000000000E+03	6.5000000000E+03	9.3827000000E-01	0.000E+00	0.0
	2212	-1	0	0	0	0	0.0000000000E+00	0.0000000000E+00	-6.5000000000E+03	6.5000000000E+03	9.3827000000E-01	0.000E+00	0.0
	2212	1	0	0	0	0	0.0000000000E+00	0.0000000000E+00	6.3000080572E+03	6.3000080572E+03	9.3827000000E-01	0.000E+00	0.0
	2212	1	0	0	0	0	0.0000000000E+00	0.0000000000E+00	-5.0371718394E+03	5.0371718394E+03	9.3827000000E-01	0.000E+00	0.0
	51	2	1	2	0	0	-8.4071121898E+01	9.9812358325E+01	-1.4654767884E+03	1.8261621124E+03	1.0817649389E+03	0.000E+00	0.0
	1000022	2	5	5	0	0	8.4071121898E+01	-9.9812358325E+01	-8.2326977478E+02	1.1875096076E+03	8.4579872646E+02	0.000E+00	0.0
	14	1	6	6	0	0	-1.2541738723E+02	1.2796109484E+02	-2.0633527140E+02	4.2462078027E+02	3.2500000000E+02	0.000E+00	0.0
	-14	1	6	6	0	0	2.0948850913E+02	-2.2777345316E+02	-6.1693450337E+02	7.6288882733E+02	3.2500000000E+02	0.000E+00	0.0
	25	2	5	5	0	0	-8.4071121898E+01	9.9812358325E+01	-4.3956644310E+02	4.7531049580E+02	1.2518366147E+02	0.000E+00	0.0
	-5	1	9	9	0	501	2.3422664641E+01	6.0816099415E+01	-1.3519493322E+02	1.5014113872E+02	4.1800000000E+00	0.000E+00	0.0
	5	1	9	9	501	0	-1.0749378654E+02	3.8996258910E+01	-3.0437150989E+02	3.2516935708E+02	4.1800000000E+00	0.000E+00	0.0
</event>
<event>
    11  -1  1.0000000E+00  1.0000000E+00  -1.0000000E+00  -1.0000000E+00
	2212	-1	0	0	0	0	0.0000000000E+00	0.0000000000E+00	6.5000000000E+03	6.5000000000E+03	9.3827000000E-01	0.000E+00	0.0
	2212	-1	0	0	0	0	0.0000000000E+00	0.0000000000E+00	-6.5000000000E+03	6.5000000000E+03	9.3827000000E-01	0.000E+00	0.0
	2212	1	0	0	0	0	0.0000000000E+00	0.0000000000E+00	6.1261102215E+03	6.1261102215E+03	9.3827000000E-01	0.000E+00	0.0
	2212	1	0	0	0	0	0.0000000000E+00	0.0000000000E+00	-5.7628915564E+03	5.7628915564E+03	9.3827000000E-01	0.000E+00	0.0
	51	2	1	2	0	0	1.8686168745E+02	-2.3739062841E+01	-4.0093327291E+02	1.1395690297E+03	1.0499472609E+03	0.000E+00	0.0
	1000022	2	5	5	0	0	-1.8686168745E+02	2.3739062841E+01	-2.5252397994E+02	8.5919897376E+02	7.9935829434E+02	0.000E+00	0.0
	14	1	6	6	0	0	5.4969075880E+01	1.3102992110E+02	2.6571353365E+01	3.5569857512E+02	3.2500000000E+02	0.000E+00	0.0
	-14	1	6	6	0	0	-2.4183076333E+02	-1.0729085825E+02	-2.7909533330E+02	5.0350039864E+02	3.2500000000E+02	0.000E+00	0.0
	25	2	5	5	0	0	1.8686168745E+02	-2.3739062841E+01	-1.1069468519E+02	2.5179924827E+02	1.2517473690E+02	0.000E+00	0.0
	-5	1	9	9	0	501	2.5580626310E+01	-2.2861855295E+01	2.3626879623E+01	4.1865674611E+01	4.1800000000E+00	0.000E+00	0.0
	5	1	9	9	501	0	1.6128106115E+02	-8.7720754623E-01	-1.3432156481E+02	2.0993357366E+02	4.1800000000E+00	0.000E+00	0.0
</event>
<event>
    11  -1  1.0000000E+00  1.0000000E+00  -1.0000000E+00  -1.0000000E+00
	2212	-1	0	0	0	0	0.0000000000E+00	0.0000000000E+00	6.5000000000E+03	6.5000000000E+03	9.3827000000E-01	0.000E+00	0.0
	2212	-1	0	0	0	0	0.0000000000E+00	0.0000000000E+00	-6.5000000000E+03	6.5000000000E+03	9.3827000000E-01	0.000E+00	0.0
	2212	1	0	0	0	0	0.0000000000E+00	0.0000000000E+00	5.7894483370E+03	5.7894483370E+03	9.3827000000E-01	0.000E+00	0.0
	2212	1	0	0	0	0	0.0000000000E+00	0.0000000000E+00	-6.1039697093E+03	6.1039697093E+03	9.3827000000E-01	0.000E+00	0.0
	51	2	1	2	0	0	1.0285452672E+02	2.9407036276E+01	2.1673536579E+02	1.0881258993E+03	1.0609429422E+03	0.000E+00	0.0
	1000022	2	5	5	0	0	-1.0285452672E+02	-2.9407036276E+01	3.5861153083E+02	9.3611966529E+02	8.5806408283E+02	0.000E+00	0.0
	14	1	6	6	0	0	-2.9628816127E+02	1.2332340841E+02	1.8330448350E+02	4.9215939618E+02	3.2500000000E+02	0.000E+00	0.0
	-14	1	6	6	0	0	1.9343363455E+02	-1.5273044468E+02	1.7530704732E+02	4.4396026911E+02	3.2500000000E+02	0.000E+00	0.0
	25	2	5	5	0	0	1.0285452672E+02	2.9407036276E+01	-4.4090158510E+01	1.7046228837E+02	1.2517836166E+02	0.000E+00	0.0
	-5	1	9	9	0	501	1.0256083813E+02	4.2503180352E+01	-7.6746846204E+01	1.3502887343E+02	4.1800000000E+00	0.000E+00	0.0
	5	1	9	9	501	0	2.9368858564E-01	-1.3096144075E+01	3.2656687694E+01	3.5433414932E+01	4.1800000000E+00	0.000E+00	0.0
</event>
<event>
    11  -1  1.0000000E+00  1.0000000E+00  -1.0000000E+00  -1.0000000E+00
	2212	-1	0	0	0	0	0.0000000000E+00	0.0000000000E+00	6.5000000000E+03	6.5000000000E+03	9.3827000000E-01	0.000E+00	0.0
	2212	-1	0	0	0	0	0.0000000000E+00	0.0000000000E+00	-6.5000000000E+03	6.5000000000E+03	9.3827000000E-01	0.000E+00	0.0
	2212	1	0	0	0	0	0.0000000000E+00	0.0000000000E+00	6.0970286288E+03	6.0970286288E+03	9.3827000000E-01	0.000E+00	0.0
	2212	1	0	0	0	0	0.0000000000E+00	0.0000000000E+00	-5.8133281626E+03	5.8133281626E+03	9.3827000000E-01	0.000E+00	0.0
	51	2	1	2	0	0	4.3596923424E+01	1.3598693210E+02	-2.4781422524E+02	1.0902483181E+03	1.0520629104E+03	0.000E+00	0.0
	1000022	2	5	5	0	0	-4.3596923424E+01	-1.3598693210E+02	-2.7017495088E+02	8.9925630104E+02	8.4573888018E+02	0.000E+00	0.0
	14	1	6	6	0	0	-5.1997748547E+01	2.1040404464E+01	1.3517215295E+02	3.5643088447E+02	3.2500000000E+02	0.000E+00	0.0
	-14	1	6	6	0	0	8.4008251237E+00	-1.5702733656E+02	-4.0534710383E+02	5.4282541657E+02	3.2500000000E+02	0.000E+00	0.0
	25	2	5	5	0	0	4.3596923424E+01	1.3598693210E+02	-1.3525515274E+01	1.9038690755E+02	1.2518425447E+02	0.000E+00	0.0
	-5	1	9	9	0	501	-5.0503188948E+00	1.1028642862E+02	3.6045568959E+01	1.1621255311E+02	4.1800000000E+00	0.000E+00	0.0
	5	1	9	9	501	0	4.8647242318E+01	2.5700503479E+01	-4.9571084233E+01	7.4174354438E+01	4.1800000000E+00	0.000E+00	0.0
</event>
<event>
    11  -1  1.0000000E+00  1.0000000E+00  -1.0000000E+00  -1.0000000E+00
	2212	-1	0	0	0	0	0.0000000000E+00	0.0000000000E+00	6.5000000000E+03	6.5000000000E+03	9.3827000000E-01	0.000E+00	0.0
	2212	-1	0	0	0	0	0.0000000000E+00	0.0000000000E+00	-6.5000000000E+03	6.5000000000E+03	9.3827000000E-01	0.000E+00	0.0
	2212	1	0	0	0	0	0.0000000000E+00	0.0000000000E+00	6.2165599264E+03	6.2165599264E+03	9.3827000000E-01	0.000E+00	0.0
	2212	1	0	0	0	0	0.0000000000E+00	0.0000000000E+00	-5.5218037762E+03	5.5218037762E+03	9.3827000000E-01	0.000E+00	0.0
	51	2	1	2	0	0	-5.9164157351E+01	1.2887274048E+02	-6.7170994250E+02	1.2571168865E+03	1.0531096992E+03	0.000E+00	0.0
	1000022	2	5	5	0	0	5.9164157351E+01	-1.2887274048E+02	-5.9841973634E+02	1.0493638905E+03	8.5026455480E+02	0.000E+00	0.0
	14	1	6	6	0	0	-1.9708445390E+02	-1.1782444409E+02	-1.1778474999E+02	4.1499774568E+02	3.2500000000E+02	0.000E+00	0.0
	-14	1	6	6	0	0	2.5624861125E+02	-1.1048296387E+01	-4.8063498635E+02	6.3436614484E+02	3.2500000000E+02	0.000E+00	0.0
	25	2	5	5	0	0	-5.9164157351E+01	1.2887274048E+02	-9.6336413908E+01	2.1227240688E+02	1.2518102622E+02	0.000E+00	0.0
	-5	1	9	9	0	501	-4.2560754536E+01	1.0248389578E+02	-1.2675144409E+02	1.6851637220E+02	4.1800000000E+00	0.000E+00	0.0
	5	1	9	9	501	0	-1.6603402815E+01	2.6388844697E+01	3.0415030185E+01	4.3756034676E+01	4.1800000000E+00	0.000E+00	0.0
</event>
<event>
    11  -1  1.0000000E+00  1.0000000E+00  -1.0000000E+00  -1.0000000E+00
	2212	-1	0	0	0	0	0.0000000000E+00	0.0000000000E+00	6.5000000000E+03	6.5000000000E+03	9.3827000000E-01	0.000E+00	0.0
	2212	-1	0	0	0	0	0.0000000000E+00	0.0000000000E+00	-6.5000000000E+03	6.5000000000E+03	9.3827000000E-01	0.000E+00	0.0
	2212	1	0	0	0	0	0.0000000000E+00	0.0000000000E+00	5.2420332682E+03	5.2420332682E+03	9.3827000000E-01	0.000E+00	0.0
	2212	1	0	0	0	0	0.0000000000E+00	0.0000000000E+00	-6.2897489918E+03	6.2897489918E+03	9.3827000000E-01	0.000E+00	0.0
	51	2	1	2	0	0	-5.1509443941E+01	-7.8996106826E+01	1.0134561180E+03	1.4470459584E+03	1.0285694409E+03	0.000E+00	0.0
	1000022	2	5	5	0	0	5.1509443941E+01	7.8996106826E+01	9.2476757013E+02	1.2690862320E+03	8.6399722100E+02	0.000E+00	0.0
	14	1	6	6	0	0	1.0861407487E+02	-2.3434719967E+00	8.5641008795E+02	9.2242384394E+02	3.2500000000E+02	0.000E+00	0.0
	-14	1	6	6	0	0	-5.7104630926E+01	8.1339578823E+01	6.8357482176E+01	3.4666238810E+02	3.2500000000E+02	0.000E+00	0.0
	25	2	5	5	0	0	-5.1509443941E+01	-7.8996106826E+01	1.2294815339E+02	1.9913150796E+02	1.2507398343E+02	0.000E+00	0.0
	-5	1	9	9	0	501	-1.8363962080E+01	-9.8821052641E+01	1.2473003481E+02	1.6024321993E+02	4.1800000000E+00	0.000E+00	0.0
	5	1	9	9	501	0	-3.3145481860E+01	1.9824945815E+01	-1.7818814289E+00	3.8888288028E+01	4.1800000000E+00	0.000E+00	0.0
</event>
<event>
    11  -1  1.0000000E+00  1.0000000E+00  -1.0000000E+00  -1.0000000E+00
	2212	-1	0	0	0	0	0.0000000000E+00	0.0000000000E+00	6.5000000000E+03	6.5000000000E+03	9.3827000000E-01	0.000E+00	0.0
	2212	-1	0	0	0	0	0.0000000000E+00	0.0000000000E+00	-6.5000000000E+03	6.5000000000E+03	9.3827000000E-01	0.000E+00	0.0
	2212	1	0	0	0	0	0.0000000000E+00	0.0000000000E+00	6.2733470325E+03	6.2733470325E+03	9.3827000000E-01	0.000E+00	0.0
	2212	1	0	0	0	0	0.0000000000E+00	0.0000000000E+00	-5.2816642647E+03	5.2816642647E+03	9.3827000000E-01	0.000E+00	0.0
	51	2	1	2	0	0	6.6553215607E+01	-8.3388242714E+01	-8.8550197063E+02	1.3784245749E+03	1.0509793714E+03	0.000E+00	0.0
	1000022	2	5	5	0	0	-6.6553215607E+01	8.3388242714E+01	-9.3212793055E+02	1.2700581437E+03	8.5603871411E+02	0.000E+00	0.0
	14	1	6	6	0	0	1.6639716928E+02	1.7632863201E+02	-2.5744324836E+02	4.8029348376E+02	3.2500000000E+02	0.000E+00	0.0
	-14	1	6	6	0	0	-2.3295038489E+02	-9.2940389301E+01	-6.7468468218E+02	7.8976465998E+02	3.2500000000E+02	0.000E+00	0.0
	25	2	5	5	0	0	6.6553215607E+01	-8.3388242714E+01	-5.9554837322E+01	1.7493055904E+02	1.2518383405E+02	0.000E+00	0.0
	-5	1	9	9	0	501	3.9895879498E+01	1.7517709943E+01	-5.5118235688E+01	7.0384967627E+01	4.1800000000E+00	0.000E+00	0.0
	5	1	9	9	501	0	2.6657336109E+01	-1.0090595266E+02	-4.4366016344E+00	1.0454559141E+02	4.1800000000E+00	0.000E+00	0.0
</event>
<event>
    11  -1  1.0000000E+00  1.0000000E+00  -1.0000000E+00  -1.0000000E+00
	2212	-1	0	0	0	0	0.0000000000E+00	0.0000000000E+00	6.5000000000E+03	6.5000000000E+03	9.3827000000E-01	0.000E+00	0.0
	2212	-1	0	0	0	0	0.0000000000E+00	0.0000000000E+00	-6.5000000000E+03	6.5000000000E+03	9.3827000000E-01	0.000E+00	0.0
	2212	1	0	0	0	0	0.0000000000E+00	0.0000000000E+00	6.2741974682E+03	6.2741974682E+03	9.3827000000E-01	0.000E+00	0.0
	2212	1	0	0	0	0	0.0000000000E+00	0.0000000000E+00	-5.2726965636E+03	5.2726965636E+03	9.3827000000E-01	0.000E+00	0.0
	51	2	1	2	0	0	-1.4950438387E+02	1.3639072185E+01	-9.8715157636E+02	1.4510405620E+03	1.0528593890E+03	0.000E+00	0.0
	1000022	2	5	5	0	0	1.4950438387E+02	-1.3639072185E+01	-8.3941467190E+02	1.1991760324E+03	8.4313022729E+02	0.000E+00	0.0
	14	1	6	6	0	0	-8.3645003403E+00	1.4319843995E+02	-1.1289935134E+02	3.7275598131E+02	3.2500000000E+02	0.000E+00	0.0
	-14	1	6	6	0	0	1.5786888421E+02	-1.5683751213E+02	-7.2651532056E+02	8.2642005108E+02	3.2500000000E+02	0.000E+00	0.0
	25	2	5	5	0	0	-1.4950438387E+02	1.3639072185E+01	-1.6208623266E+02	2.5392993579E+02	1.2518338701E+02	0.000E+00	0.0
	-5	1	9	9	0	501	-8.9187753889E+01	6.9132611679E+01	-8.5015887218E+01	1.4134690276E+02	4.1800000000E+00	0.000E+00	0.0
	5	1	9	9	501	0	-6.0316629984E+01	-5.5493539494E+01	-7.7070345446E+01	1.1258303303E+02	4.1800000000E+00	0.000E+00	0.0
</event>
<event>
    11  -1  1.0000000E+00  1.0000000E+00  -1.0000000E+00  -1.0000000E+00
	2212	-1	0	0	0	0	0.0000000000E+00	0.0000000000E+00	6.5000000000E+03	6.5000000000E+03	9.3827000000E-01	0.000E+00	0.0
	2212	-1	0	0	0	0	0.0000000000E+00	0.0000000000E+00	-6.5000000000E+03	6.5000000000E+03	9.3827000000E-01	0.000E+00	0.0
	2212	1	0	0	0	0	0.0000000000E+00	0.0000000000E+00	6.2888780932E+03	6.2888780932E+03	9.3827000000E-01	0.000E+00	0.0
	2212	1	0	0	0	0	0.0000000000E+00	0.0000000000E+00	-5.1981717447E+03	5.1981717447E+03	9.3827000000E-01	0.000E+00	0.0
	51	2	1	2	0	0	4.7551458159E+01	-3.3759367746E+01	-1.2722213567E+03	1.6496441649E+03	1.0485122100E+03	0.000E+00	0.0
	1000022	2	5	5	0	0	-4.7551458159E+01	3.3759367746E+01	-7.2782749193E+02	1.1246811464E+03	8.5543789196E+02	0.000E+00	0.0
	14	1	6	6	0	0	-7.7404523916E+01	-8.0160347579E+01	-2.8708342602E+01	3.4476993863E+02	3.2500000000E+02	0.000E+00	0.0
	-14	1	6	6	0	0	2.9853065758E+01	1.1391971533E+02	-6.9911914932E+02	7.7991120778E+02	3.2500000000E+02	0.000E+00	0.0
	25	2	5	5	0	0	4.7551458159E+01	-3.3759367746E+01	-3.6287885649E+02	3.8826901569E+02	1.2518357707E+02	0.000E+00	0.0
	-5	1	9	9	0	501	2.4404862268E+00	-2.8659112690E+01	-7.5529916549E+00	3.0030331269E+01	4.1800000000E+00	0.000E+00	0.0
	5	1	9	9	501	0	4.5110971932E+01	-5.1002550562E+00	-3.5532586484E+02	3.5823868442E+02	4.1800000000E+00	0.000E+00	0.0
</event>
<event>
    11  -1  1.0000000E+00  1.0000000E+00  -1.0000000E+00  -1.0000000E+00
	2212	-1	0	0	0	0	0.0000000000E+00	0.0000000000E+00	6.5000000000E+03	6.5000000000E+03	9.3827000000E-01	0.000E+00	0.0
	2212	-1	0	0	0	0	0.0000000000E+00	0.0000000000E+00	-6.5000000000E+03	6.5000000000E+03	9.3827000000E-01	0.000E+00	0.0
	2212	1	0	0	0	0	0.0000000000E+00	0.0000000000E+00	6.2660252503E+03	6.2660252503E+03	9.3827000000E-01	0.000E+00	0.0
	2212	1	0	0	0	0	0.0000000000E+00	0.0000000000E+00	-5.3256601147E+03	5.3256601147E+03	9.3827000000E-01	0.000E+00	0.0
	51	2	1	2	0	0	6.3630781618E+01	-6.2813296033E+00	-1.0647329505E+03	1.4955962390E+03	1.0483623051E+03	0.000E+00	0.0
	1000022	2	5	5	0	0	-6.3630781618E+01	6.2813296033E+00	-6.7197571251E+02	1.1053426241E+03	8.7529573683E+02	0.000E+00	0.0
	14	1	6	6	0	0	-1.6497176709E+02	-1.3579725970E+02	-6.3962422797E+01	3.9417352931E+02	3.2500000000E+02	0.000E+00	0.0
	-14	1	6	6	0	0	1.0134098547E+02	1.4207858930E+02	-6.0801328971E+02	7.1116909476E+02	3.2500000000E+02	0.000E+00	0.0
	25	2	5	5	0	0	6.3630781618E+01	-6.2813296033E+00	-2.6838942316E+02	3.0297201094E+02	1.2518316771E+02	0.000E+00	0.0
	-5	1	9	9	0	501	-1.3187507905E+01	3.5025380267E+01	-2.7176699240E+01	4.6440639629E+01	4.1800000000E+00	0.000E+00	0.0
	5	1	9	9	501	0	7.6818289523E+01	-4.1306709871E+01	-2.4121272392E+02	2.5653137131E+02	4.1800000000E+00	0.000E+00	0.0
</event>
<event>
    11  -1  1.0000000E+00  1.0000000E+00  -1.0000000E+00  -1.0000000E+00
	2212	-1	0	0	0	0	0.0000000000E+00	0.0000000000E+00	6.5000000000E+03	6.5000000000E+03	9.3827000000E-01	0.000E+00	0.0
	2212	-1	0	0	0	0	0.0000000000E+00	0.0000000000E+00	-6.5000000000E+03	6.5000000000E+03	9.3827000000E-01	0.000E+00	0.0
	2212	1	0	0	0	0	0.0000000000E+00	0.0000000000E+00	6.2478347239E+03	6.2478347239E+03	9.3827000000E-01	0.000E+00	0.0
	2212	1	0	0	0	0	0.0000000000E+00	0.0000000000E+00	-5.4129444179E+03	5.4129444179E+03	9.3827000000E-01	0.000E+00	0.0
	51	2	1	2	0	0	-9.7919274401E+01	2.2084830288E+01	-9.6084419145E+02	1.4246993255E+03	1.0471249609E+03	0.000E+00	0.0
	1000022	2	5	5	0	0	9.7919274401E+01	-2.2084830288E+01	-5.6819009127E+02	1.0279757020E+03	8.5077502317E+02	0.000E+00	0.0
	14	1	6	6	0	0	3.6631898329E+00	-1.1102036266E+02	-5.8424759106E+02	6.7772353327E+02	3.2500000000E+02	0.000E+00	0.0
	-14	1	6	6	0	0	9.4256084568E+01	8.8935532376E+01	1.6057499792E+01	3.5025216873E+02	3.2500000000E+02	0.000E+00	0.0
	25	2	5	5	0	0	-9.7919274401E+01	2.2084830288E+01	-2.6670021473E+02	3.1124515613E+02	1.2517435301E+02	0.000E+00	0.0
	-5	1	9	9	0	501	-7.3108793467E+01	1.1015117015E+01	-4.2530361706E+01	8.5396326337E+01	4.1800000000E+00	0.000E+00	0.0
	5	1	9	9	501	0	-2.4810480934E+01	1.1069713273E+01	-2.2416985302E+02	2.2584882979E+02	4.1800000000E+00	0.000E+00	0.0
</event>
<event>
    11  -1  1.0000000E+00  1.0000000E+00  -1.0000000E+00  -1.0000000E+00
	2212	-1	0	0	0	0	0.0000000000E+00	0.0000000000E+00	6.5000000000E+03	6.5000000000E+03	9.3827000000E-01	0.000E+00	0.0
	2212	-1	0	0	0	0	0.0000000000E+00	0.0000000000E+00	-6.5000000000E+03	6.5000000000E+03	9.3827000000E-01	0.000E+00	0.0
	2212	1	0	0	0	0	0.0000000000E+00	0.0000000000E+00	6.2672847875E+03	6.2672847875E+03	9.3827000000E-01	0.000E+00	0.0
	2212	1	0	0	0	0	0.0000000000E+00	0.0000000000E+00	-5.2821217545E+03	5.2821217545E+03	9.3827000000E-01	0.000E+00	0.0
	51	2	1	2	0	0	5.1403191679E+01	-7.2372825310E+00	-8.0522262406E+02	1.3359466006E+03	1.0647418368E+03	0.000E+00	0.0
	1000022	2	5	5	0	0	-5.1403191679E+01	7.2372825310E+00	-9.9495617712E+02	1.3147086766E+03	8.5780326624E+02	0.000E+00	0.0
	14	1	6	6	0	0	-1.6574882483E+02	-2.2202136847E+02	-6.4049475938E+02	7.6982121157E+02	3.2500000000E+02	0.000E+00	0.0
	-14	1	6	6	0	0	1.1434563315E+02	2.2925865100E+02	-3.5446141774E+02	5.4488746503E+02	3.2500000000E+02	0.000E+00	0.0
	25	2	5	5	0	0	5.1403191679E+01	-7.2372825310E+00	9.7931441104E+00	1.3588478147E+02	1.2519625310E+02	0.000E+00	0.0
	-5	1	9	9	0	501	-1.5947100373E-01	-5.2298585345E+01	-2.5943690650E+01	5.8529607419E+01	4.1800000000E+00	0.000E+00	0.0
	5	1	9	9	501	0	5.1562662682E+01	4.5061302814E+01	3.5736834760E+01	7.7355174054E+01	4.1800000000E+00	0.000E+00	0.0
</event>
<event>
    11  -1  1.0000000E+00  1.0000000E+00  -1.0000000E+00  -1.0000000E+00
	2212	-1	0	0	0	0	0.0000000000E+00	0.0000000000E+00	6.5000000000E+03	6.5000000000E+03	9.3827000000E-01	0.000E+00	0.0
	2212	-1	0	0	0	0	0.0000000000E+00	0.0000000000E+00	-6.5000000000E+03	6.5000000000E+03	9.3827000000E-01	0.000E+00	0.0
	2212	1	0	0	0	0	0.0000000000E+00	0.0000000000E+00	5.1399281627E+03	5.1399281627E+03	9.3827000000E-01	0.000E+00	0.0
	2212	1	0	0	0	0	0.0000000000E+00	0.0000000000E+00	-6.2919085032E+03	6.2919085032E+03	9.3827000000E-01	0.000E+00	0.0
	51	2	1	2	0	0	1.4580268591E+01	-1.5518549265E+02	1.2080862309E+03	1.6173574127E+03	1.0639913241E+03	0.000E+00	0.0
	1000022	2	5	5	0	0	-1.4580268591E+01	1.5518549265E+02	8.8983080845E+02	1.2384869655E+03	8.4720480097E+02	0.000E+00	0.0
	14	1	6	6	0	0	1.0880406488E+02	3.2612564830E+02	4.6037834989E+02	6.6012838756E+02	3.2500000000E+02	0.000E+00	0.0
	-14	1	6	6	0	0	-1.2338433347E+02	-1.7094015566E+02	4.2945245856E+02	5.7835857798E+02	3.2500000000E+02	0.000E+00	0.0
	25	2	5	5	0	0	1.4580268591E+01	-1.5518549265E+02	2.6214953203E+02	3.2967636859E+02	1.2517591423E+02	0.000E+00	0.0
	-5	1	9	9	0	501	1.3670376222E+01	-4.2462969284E+01	1.9128124472E+02	1.9645857052E+02	4.1800000000E+00	0.000E+00	0.0
	5	1	9	9	501	0	9.0989236844E-01	-1.1272252336E+02	7.0868287305E+01	1.3321779807E+02	4.1800000000E+00	0.000E+00	0.0
</event>
<event>
    11  -1  1.0000000E+00  1.0000000E+00  -1.0000000E+00  -1.0000000E+00
	2212	-1	0	0	0	0	0.0000000000E+00	0.0000000000E+00	6.5000000000E+03	6.5000000000E+03	9.3827000000E-01	0.000E+00	0.0
	2212	-1	0	0	0	0	0.0000000000E+00	0.0000000000E+00	-6.5000000000E+03	6.5000000000E+03	9.3827000000E-01	0.000E+00	0.0
	2212	1	0	0	0	0	0.0000000000E+00	0.0000000000E+00	5.6409979926E+03	5.6409979926E+03	9.3827000000E-01	0.000E+00	0.0
	2212	1	0	0	0	0	0.0000000000E+00	0.0000000000E+00	-6.1750161515E+03	6.1750161515E+03	9.3827000000E-01	0.000E+00	0.0
	51	2	1	2	0	0	1.0752212046E+01	-9.0973059227E+01	4.0245391663E+02	1.1344637391E+03	1.0567152468E+03	0.000E+00	0.0
	1000022	2	5	5	0	0	-1.0752212046E+01	9.0973059227E+01	5.7129379322E+02	1.0244581934E+03	8.4542668766E+02	0.000E+00	0.0
	14	1	6	6	0	0	2.3513462440E+02	-4.4598212298E+01	1.7446951730E+02	4.3970661195E+02	3.2500000000E+02	0.000E+00	0.0
	-14	1	6	6	0	0	-2.4588683644E+02	1.3557127153E+02	3.9682427592E+02	5.8475158141E+02	3.2500000000E+02	0.000E+00	0.0
	25	2	5	5	0	0	1.0752212046E+01	-9.0973059227E+01	-3.7275634303E+01	1.5952766249E+02	1.2517146087E+02	0.000E+00	0.0
	-5	1	9	9	0	501	3.9418762966E+00	-7.0448653161E+01	3.8589136741E+01	8.0530397959E+01	4.1800000000E+00	0.000E+00	0.0
	5	1	9	9	501	0	6.8103357496E+00	-2.0524406066E+01	-7.5864771044E+01	7.8997264528E+01	4.1800000000E+00	0.000E+00	0.0
</event>
<event>
    11  -1  1.0000000E+00  1.0000000E+00  -1.0000000E+00  -1.0000000E+00
	2212	-1	0	0	0	0	0.0000000000E+00	0.0000000000E+00	6.5000000000E+03	6.5000000000E+03	9.3827000000E-01	0.000E+00	0.0
	2212	-1	0	0	0	0	0.0000000000E+00	0.0000000000E+00	-6.5000000000E+03	6.5000000000E+03	9.3827000000E-01	0.000E+00	0.0
	2212	1	0	0	0	0	0.0000000000E+00	0.0000000000E+00	5.3190198453E+03	5.3190198453E+03	9.3827000000E-01	0.000E+00	0.0
	2212	1	0	0	0	0	0.0000000000E+00	0.0000000000E+00	-6.2663555057E+03	6.2663555057E+03	9.3827000000E-01	0.000E+00	0.0
	51	2	1	2	0	0	-1.2059031285E+02	3.3194678790E+01	9.9976380744E+02	1.4556406235E+03	1.0505798608E+03	0.000E+00	0.0
	1000022	2	5	5	0	0	1.2059031285E+02	-3.3194678790E+01	7.3965868714E+02	1.1417807959E+03	8.6076971492E+02	0.000E+00	0.0
	14	1	6	6	0	0	2.9813761330E+01	-2.4769274987E+02	1.6496980117E+02	4.4167928863E+02	3.2500000000E+02	0.000E+00	0.0
	-14	1	6	6	0	0	9.0776551523E+01	2.1449807108E+02	5.7468888597E+02	7.0010150726E+02	3.2500000000E+02	0.000E+00	0.0
	25	2	5	5	0	0	-1.2059031285E+02	3.3194678790E+01	2.0767697332E+02	2.7284385311E+02	1.2518040055E+02	0.000E+00	0.0
	-5	1	9	9	0	501	-8.6852349241E+01	5.8259165903E+01	6.3080895088E+01	1.2220528919E+02	4.1800000000E+00	0.000E+00	0.0
	5	1	9	9	501	0	-3.3737963612E+01	-2.5064487113E+01	1.4459607823E+02	1.5063856393E+02	4.1800000000E+00	0.000E+00	0.0
</event>
<event>
    11  -1  1.0000000E+00  1.0000000E+00  -1.0000000E+00  -1.0000000E+00
	2212	-1	0	0	0	0	0.0000000000E+00	0.0000000000E+00	6.5000000000E+03	6.5000000000E+03	9.3827000000E-01	0.000E+00	0.0
	2212	-1	0	0	0	0	0.0000000000E+00	0.0000000000E+00	-6.5000000000E+03	6.5000000000E+03	9.3827000000E-01	0.000E+00	0.0
	2212	1	0	0	0	0	0.0000000000E+00	0.0000000000E+00	6.2841437625E+03	6.2841437625E+03	9.3827000000E-01	0.000E+00	0.0
	2212	1	0	0	0	0	0.0000000000E+00	0.0000000000E+00	-5.2655840086E+03	5.2655840086E+03	9.3827000000E-01	0.000E+00	0.0
	51	2	1	2	0	0	1.5879452804E+02	-1.0931329587E+01	-1.0708986695E+03	1.4959895461E+03	1.0323882823E+03	0.000E+00	0.0
	1000022	2	5	5	0	0	-1.5879452804E+02	1.0931329587E+01	-7.7689685403E+02	1.1349867144E+03	8.1196731705E+02	0.000E+00	0.0
	14	1	6	6	0	0	-2.7733189519E+02	-1.3446401761E+02	-4.7968473345E+02	6.5628956691E+02	3.2500000000E+02	0.000E+00	0.0
	-14	1	6	6	0	0	1.1853736716E+02	1.4539534719E+02	-2.9721212057E+02	4.7869714749E+02	3.2500000000E+02	0.000E+00	0.0
	25	2	5	5	0	0	1.5879452804E+02	-1.0931329587E+01	-2.4166289987E+02	3.1528551442E+02	1.2517508669E+02	0.000E+00	0.0
	-5	1	9	9	0	501	1.6070421413E+02	-2.5772262309E+01	-1.4699562792E+02	2.1935186567E+02	4.1800000000E+00	0.000E+00	0.0
	5	1	9	9	501	0	-1.9096860917E+00	1.4840932721E+01	-9.4667271945E+01	9.5933648750E+01	4.1800000000E+00	0.000E+00	0.0
</event>
<event>
    11  -1  1.0000000E+00  1.0000000E+00  -1.0000000E+00  -1.0000000E+00
	2212	-1	0	0	0	0	0.0000000000E+00	0.0000000000E+00	6.5000000000E+03	6.5000000000E+03	9.3827000000E-01	0.000E+00	0.0
	2212	-1	0	0	0	0	0.0000000000E+00	0.0000000000E+00	-6.5000000000E+03	6.5000000000E+03	9.3827000000E-01	0.000E+00	0.0
	2212	1	0	0	0	0	0.0000000000E+00	0.0000000000E+00	6.3140800347E+03	6.3140800347E+03	9.3827000000E-01	0.000E+00	0.0
	2212	1	0	0	0	0	0.0000000000E+00	0.0000000000E+00	-5.0302431931E+03	5.0302431931E+03	9.3827000000E-01	0.000E+00	0.0
	51	2	1	2	0	0	-1.5181127291E+01	-1.1298080311E+02	-1.1775657736E+03	1.5788238717E+03	1.0454800515E+03	0.000E+00	0.0
	1000022	2	5	5	0	0	1.5181127291E+01	1.1298080311E+02	-1.1740562745E+03	1.4539026212E+03	8.4995856828E+02	0.000E+00	0.0
	14	1	6	6	0	0	-8.4119968314E+01	-1.1121865972E+02	-8.8939998350E+02	9.5713274418E+02	3.2500000000E+02	0.000E+00	0.0
	-14	1	6	6	0	0	9.9301095605E+01	2.2419946282E+02	-2.8465629100E+02	4.9676987703E+02	3.2500000000E+02	0.000E+00	0.0
	25	2	5	5	0	0	-1.5181127291E+01	-1.1298080311E+02	-1.0978056709E+02	2.0177415098E+02	1.2516351943E+02	0.000E+00	0.0
	-5	1	9	9	0	501	-2.5562257082E+01	1.2459243382E+01	-5.9671607130E+01	6.6233185264E+01	4.1800000000E+00	0.000E+00	0.0
	5	1	9	9	501	0	1.0381129791E+01	-1.2544004649E+02	-5.0108959956E+01	1.3554096571E+02	4.1800000000E+00	0.000E+00	0.0
</event>
<event>
    11  -1  1.0000000E+00  1.0000000E+00  -1.0000000E+00  -1.0000000E+00
	2212	-1	0	0	0	0	0.0000000000E+00	0.0000000000E+00	6.5000000000E+03	6.5000000000E+03	9.3827000000E-01	0.000E+00	0.0
	2212	-1	0	0	0	0	0.0000000000E+00	0.0000000000E+00	-6.5000000000E+03	6.5000000000E+03	9.3827000000E-01	0.000E+00	0.0
	2212	1	0	0	0	0	0.0000000000E+00	0.0000000000E+00	5.4245157490E+03	5.4245157490E+03	9.3827000000E-01	0.000E+00	0.0
	2212	1	0	0	0	0	0.0000000000E+00	0.0000000000E+00	-6.2337371359E+03	6.2337371359E+03	9.3827000000E-01	0.000E+00	0.0
	51	2	1	2	0	0	-6.6349287027E+01	2.8125348813E+01	9.9024428837E+02	1.4598709126E+03	1.0702551414E+03	0.000E+00	0.0
	1000022	2	5	5	0	0	6.6349287027E+01	-2.8125348813E+01	4.8584360934E+02	9.8758871997E+02	8.5679297613E+02	0.000E+00	0.0
	14	1	6	6	0	0	1.1098770577E+02	-2.7860127876E+02	1.9884696469E+02	4.8487323985E+02	3.2500000000E+02	0.000E+00	0.0
	-14	1	6	6	0	0	-4.4638418742E+01	2.5047592995E+02	2.8699664465E+02	5.0271548012E+02	3.2500000000E+02	0.000E+00	0.0
	25	2	5	5	0	0	-6.6349287027E+01	2.8125348813E+01	3.2337777757E+02	3.5415839505E+02	1.2514678828E+02	0.000E+00	0.0
	-5	1	9	9	0	501	-9.1221669882E+01	5.3669337864E+01	2.6790519340E+02	2.8808411260E+02	4.1800000000E+00	0.000E+00	0.0
	5	1	9	9	501	0	2.4872382855E+01	-2.5543989051E+01	5.5472584174E+01	6.6074282443E+01	4.1800000000E+00	0.000E+00	0.0
</event>
<event>
    11  -1  1.0000000E+00  1.0000000E+00  -1.0000000E+00  -1.0000000E+00
	2212	-1	0	0	0	0	0.0000000000E+00	0.0000000000E+00	6.5000000000E+03	6.5000000000E+03	9.3827000000E-01	0.000E+00	0.0
	2212	-1	0	0	0	0	0.0000000000E+00	0.0000000000E+00	-6.5000000000E+03	6.5000000000E+03	9.3827000000E-01	0.000E+00	0.0
	2212	1	0	0	0	0	0.0000000000E+00	0.0000000000E+00	5.9002606894E+03	5.9002606894E+03	9.3827000000E-01	0.000E+00	0.0
	2212	1	0	0	0	0	0.0000000000E+00	0.0000000000E+00	-6.0396656419E+03	6.0396656419E+03	9.3827000000E-01	0.000E+00	0.0
	51	2	1	2	0	0	-3.4905501234E+01	-8.9633096433E+01	2.5778799125E+01	1.0555754236E+03	1.0508674714E+03	0.000E+00	0.0
	1000022	2	5	5	0	0	3.4905501234E+01	8.9633096433E+01	2.2859330214E+02	8.7874012067E+02	8.4301649800E+02	0.000E+00	0.0
	14	1	6	6	0	0	2.5186387233E+02	-8.1517407559E+01	1.4840576155E+02	4.4466815490E+02	3.2500000000E+02	0.000E+00	0.0
	-14	1	6	6	0	0	-2.1695837109E+02	1.7115050399E+02	8.0187540591E+01	4.3407196577E+02	3.2500000000E+02	0.000E+00	0.0
	25	2	5	5	0	0	-3.4905501234E+01	-8.9633096433E+01	-8.9188349612E+01	1.8133354810E+02	1.2519907335E+02	0.000E+00	0.0
	-5	1	9	9	0	501	-4.2502147220E+01	1.9846979358E+00	-7.7575528402E+01	8.8576557570E+01	4.1800000000E+00	0.000E+00	0.0
	5	1	9	9	501	0	7.5966459866E+00	-9.1617794369E+01	-1.1612821211E+01	9.2756990527E+01	4.1800000000E+00	0.000E+00	0.0
</event>
<event>
    11  -1  1.0000000E+00  1.0000000E+00  -1.0000000E+00  -1.0000000E+00
	2212	-1	0	0	0	0	0.0000000000E+00	0.0000000000E+00	6.5000000000E+03	6.5000000000E+03	9.3827000000E-01	0.000E+00	0.0
	2212	-1	0	0	0	0	0.0000000000E+00	0.0000000000E+00	-6.5000000000E+03	6.5000000000E+03	9.3827000000E-01	0.000E+00	0.0
	2212	1	0	0	0	0	0.0000000000E+00	0.0000000000E+00	5.7354772163E+03	5.7354772163E+03	9.3827000000E-01	0.000E+00	0.0
	2212	1	0	0	0	0	0.0000000000E+00	0.0000000000E+00	-6.1710169983E+03	6.1710169983E+03	9.3827000000E-01	0.000E+00	0.0
	51	2	1	2	0	0	-4.2878651334E+01	6.1575066992E+01	4.5049382913E+02	1.1021046949E+03	1.0030254239E+03	0.000E+00	0.0
	1000022	2	5	5	0	0	4.2878651334E+01	-6.1575066992E+01	3.5822928034E+02	9.2834909006E+02	8.5315517234E+02	0.000E+00	0.0
	14	1	6	6	0	0	-2.4593100605E+02	1.9023450790E+01	1.1607801363E+02	4.2419695504E+02	3.2500000000E+02	0.000E+00	0.0
	-14	1	6	6	0	0	2.8880965739E+02	-8.0598517783E+01	2.4215126671E+02	5.0415213501E+02	3.2500000000E+02	0.000E+00	0.0
	25	2	5	5	0	0	-4.2878651334E+01	6.1575066992E+01	7.7310501705E+01	1.6515669533E+02	1.2517888289E+02	0.000E+00	0.0
	-5	1	9	9	0	501	-2.8120446389E+01	2.4319985977E+01	1.0813772764E+02	1.1442666543E+02	4.1800000000E+00	0.000E+00	0.0
	5	1	9	9	501	0	-1.4758204945E+01	3.7255081015E+01	-3.0827225931E+01	5.0730029896E+01	4.1800000000E+00	0.000E+00	0.0
</event>
<event>
    11  -1  1.0000000E+00  1.0000000E+00  -1.0000000E+00  -1.0000000E+00
	2212	-1	0	0	0	0	0.0000000000E+00	0.0000000000E+00	6.5000000000E+03	6.5000000000E+03	9.3827000000E-01	0.000E+00	0.0
	2212	-1	0	0	0	0	0.0000000000E+00	0.0000000000E+00	-6.5000000000E+03	6.5000000000E+03	9.3827000000E-01	0.000E+00	0.0
	2212	1	0	0	0	0	0.0000000000E+00	0.0000000000E+00	5.2215977537E+03	5.2215977537E+03	9.3827000000E-01	0.000E+00	0.0
	2212	1	0	0	0	0	0.0000000000E+00	0.0000000000E+00	-6.2826626526E+03	6.2826626526E+03	9.3827000000E-01	0.000E+00	0.0
	51	2	1	2	0	0	-7.4483395758E+01	-1.2140001360E+02	1.1268341403E+03	1.5496512935E+03	1.0542192430E+03	0.000E+00	0.0
	1000022	2	5	5	0	0	7.4483395758E+01	1.2140001360E+02	8.1078679302E+02	1.1817333280E+03	8.4784001749E+02	0.000E+00	0.0
	14	1	6	6	0	0	1.2530153642E+02	-1.3757704209E+02	6.1383656008E+02	7.1906066506E+02	3.2500000000E+02	0.000E+00	0.0
	-14	1	6	6	0	0	-5.0818140665E+01	2.5897705569E+02	1.9695023295E+02	4.6267266296E+02	3.2500000000E+02	0.000E+00	0.0
	25	2	5	5	0	0	-7.4483395758E+01	-1.2140001360E+02	2.5027810594E+02	3.1400626566E+02	1.2520009989E+02	0.000E+00	0.0
	-5	1	9	9	0	501	-4.2460985032E+01	1.7666113843E+01	7.3128941434E+01	8.6488966368E+01	4.1800000000E+00	0.000E+00	0.0
	5	1	9	9	501	0	-3.2022410725E+01	-1.3906612744E+02	1.7714916451E+02	2.2751729929E+02	4.1800000000E+00	0.000E+00	0.0
</event>
<event>
    11  -1  1.0000000E+00  1.0000000E+00  -1.0000000E+00  -1.0000000E+00
	2212	-1	0	0	0	0	0.0000000000E+00	0.0000000000E+00	6.5000000000E+03	6.5000000000E+03	9.3827000000E-01	0.000E+00	0.0
	2212	-1	0	0	0	0	0.0000000000E+00	0.0000000000E+00	-6.5000000000E+03	6.5000000000E+03	9.3827000000E-01	0.000E+00	0.0
	2212	1	0	0	0	0	0.0000000000E+00	0.0000000000E+00	5.2837964209E+03	5.2837964209E+03	9.3827000000E-01	0.000E+00	0.0
	2212	1	0	0	0	0	0.0000000000E+00	0.0000000000E+00	-6.2803339871E+03	6.2803339871E+03	9.3827000000E-01	0.000E+00	0.0
	51	2	1	2	0	0	3.6937560644E+01	1.0760782166E+02	1.0763709214E+03	1.4967139177E+03	1.0337477277E+03	0.000E+00	0.0
	1000022	2	5	5	0	0	-3.6937560644E+01	-1.0760782166E+02	7.5332177386E+02	1.1396142980E+03	8.4751591529E+02	0.000E+00	0.0
	14	1	6	6	0	0	2.3646812946E+02	-6.3090810546E+01	2.4181403841E+02	4.7328284968E+02	3.2500000000E+02	0.000E+00	0.0
	-14	1	6	6	0	0	-2.7340569010E+02	-4.4517011114E+01	5.1150773545E+02	6.6633144837E+02	3.2500000000E+02	0.000E+00	0.0
	25	2	5	5	0	0	3.6937560644E+01	1.0760782166E+02	2.4321579232E+02	2.9625529396E+02	1.2517767730E+02	0.000E+00	0.0
	-5	1	9	9	0	501	3.0940379619E+01	1.3607991626E+02	2.0540566993E+02	2.4836266293E+02	4.1800000000E+00	0.000E+00	0.0
	5	1	9	9	501	0	5.9971810253E+00	-2.8472094599E+01	3.7810122395E+01	4.7892631026E+01	4.1800000000E+00	0.000E+00	0.0
</event>
<event>
    11  -1  1.0000000E+00  1.0000000E+00  -1.0000000E+00  -1.0000000E+00
	2212	-1	0	0	0	0	0.0000000000E+00	0.0000000000E+00	6.5000000000E+03	6.5000000000E+03	9.3827000000E-01	0.000E+00	0.0
	2212	-1	0	0	0	0	0.0000000000E+00	0.0000000000E+00	-6.5000000000E+03	6.5000000000E+03	9.3827000000E-01	0.000E+00	0.0
	2212	1	0	0	0	0	0.0000000000E+00	0.0000000000E+00	5.6815540711E+03	5.6815540711E+03	9.3827000000E-01	0.000E+00	0.0
	2212	1	0	0	0	0	0.0000000000E+00	0.0000000000E+00	-6.1626971284E+03	6.1626971284E+03	9.3827000000E-01	0.000E+00	0.0
	51	2	1	2	0	0	5.3244719541E+01	-6.5606926389E+01	3.6845493005E+02	1.1167609201E+03	1.0508361662E+03	0.000E+00	0.0
	1000022	2	5	5	0	0	-5.3244719541E+01	6.5606926389E+01	5.1332152082E+02	1.0013452436E+03	8.5560156861E+02	0.000E+00	0.0
	14	1	6	6	0	0	2.0208424654E+02	-1.2554402725E+02	2.7173330978E+02	4.8586349639E+02	3.2500000000E+02	0.000E+00	0.0
	-14	1	6	6	0	0	-2.5532896609E+02	1.9115095364E+02	2.4158821104E+02	5.1548174722E+02	3.2500000000E+02	0.000E+00	0.0
	25	2	5	5	0	0	5.3244719541E+01	-6.5606926389E+01	-3.2178463471E+01	1.5440355687E+02	1.2516283760E+02	0.000E+00	0.0
	-5	1	9	9	0	501	8.2486834791E+01	-8.2058372468E+01	-1.8306429507E+01	1.1785691396E+02	4.1800000000E+00	0.000E+00	0.0
	5	1	9	9	501	0	-2.9242115250E+01	1.6451446079E+01	-1.3872033964E+01	3.6546642919E+01	4.1800000000E+00	0.000E+00	0.0
</event>
<event>
    11  -1  1.0000000E+00  1.0000000E+00  -1.0000000E+00  -1.0000000E+00
	2212	-1	0	0	0	0	0.0000000000E+00	0.0000000000E+00	6.5000000000E+03	6.5000000000E+03	9.3827000000E-01	0.000E+00	0.0
	2212	-1	0	0	0	0	0.0000000000E+00	0.0000000000E+00	-6.5000000000E+03	6.5000000000E+03	9.3827000000E-01	0.000E+00	0.0
	2212	1	0	0	0	0	0.0000000000E+00	0.0000000000E+00	5.5601201138E+03	5.5601201138E+03	9.3827000000E-01	0.000E+00	0.0
	2212	1	0	0	0	0	0.0000000000E+00	0.0000000000E+00	-6.2012016854E+03	6.2012016854E+03	9.3827000000E-01	0.000E+00	0.0
	51	2	1	2	0	0	7.4295564660E+01	-9.8693324546E+01	6.3691078775E+02	1.2426800307E+03	1.0598764569E+03	0.000E+00	0.0
	1000022	2	5	5	0	0	-7.4295564660E+01	9.8693324546E+01	5.4313986708E+02	1.0373777449E+03	8.7515225368E+02	0.000E+00	0.0
	14	1	6	6	0	0	6.7082133040E+01	-1.4729775795E+02	4.7925134440E+02	6.0125160555E+02	3.2500000000E+02	0.000E+00	0.0
	-14	1	6	6	0	0	-1.4137769770E+02	2.4599108249E+02	6.3888522676E+01	4.3612613932E+02	3.2500000000E+02	0.000E+00	0.0
	25	2	5	5	0	0	7.4295564660E+01	-9.8693324546E+01	9.7941704499E+01	2.0130045598E+02	1.2517624719E+02	0.000E+00	0.0
	-5	1	9	9	0	501	9.4585957189E+00	-1.0935301312E+02	5.6727269702E+01	1.2362443949E+02	4.1800000000E+00	0.000E+00	0.0
	5	1	9	9	501	0	6.4836968941E+01	1.0659688575E+01	4.1214434797E+01	7.7676016489E+01	4.1800000000E+00	0.000E+00	0.0
</event>
<event>
    11  -1  1.0000000E+00  1.0000000E+00  -1.0000000E+00  -1.0000000E+00
	2212	-1	0	0	0	0	0.0000000000E+00	0.0000000000E+00	6.5000000000E+03	6.5000000000E+03	9.3827000000E-01	0.000E+00	0.0
	2212	-1	0	0	0	0	0.0000000000E+00	0.0000000000E+00	-6.5000000000E+03	6.5000000000E+03	9.3827000000E-01	0.000E+00	0.0
	2212	1	0	0	0	0	0.0000000000E+00	0.0000000000E+00	5.4670315848E+03	5.4670315848E+03	9.3827000000E-01	0.000E+00	0.0
	2212	1	0	0	0	0	0.0000000000E+00	0.0000000000E+00	-6.2334425912E+03	6.2334425912E+03	9.3827000000E-01	0.000E+00	0.0
	51	2	1	2	0	0	-3.7634637546E+01	-1.3282981519E+02	7.6975472550E+02	1.3088025060E+03	1.0494672632E+03	0.000E+00	0.0
	1000022	2	5	5	0	0	3.7634637546E+01	1.3282981519E+02	6.3356383241E+02	1.0706631984E+03	8.5197208228E+02	0.000E+00	0.0
	14	1	6	6	0	0	2.8479868336E+01	1.8314357601E+02	6.4030143031E+02	7.4159530338E+02	3.2500000000E+02	0.000E+00	0.0
	-14	1	6	6	0	0	9.1547692108E+00	-5.0313760826E+01	-6.7375978997E+00	3.2906789505E+02	3.2500000000E+02	0.000E+00	0.0
	25	2	5	5	0	0	-3.7634637546E+01	-1.3282981519E+02	1.3284717404E+02	2.2886262559E+02	1.2517828883E+02	0.000E+00	0.0
	-5	1	9	9	0	501	9.4498818744E+00	-7.7932933323E+01	1.2288707977E+00	7.8624581952E+01	4.1800000000E+00	0.000E+00	0.0
	5	1	9	9	501	0	-4.7084519421E+01	-5.4896881862E+01	1.3161830324E+02	1.5023804363E+02	4.1800000000E+00	0.000E+00	0.0
</event>
<event>
    11  -1  1.0000000E+00  1.0000000E+00  -1.0000000E+00  -1.0000000E+00
	2212	-1	0	0	0	0	0.0000000000E+00	0.0000000000E+00	6.5000000000E+03	6.5000000000E+03	9.3827000000E-01	0.000E+00	0.0
	2212	-1	0	0	0	0	0.0000000000E+00	0.0000000000E+00	-6.5000000000E+03	6.5000000000E+03	9.3827000000E-01	0.000E+00	0.0
	2212	1	0	0	0	0	0.0000000000E+00	0.0000000000E+00	5.4593258067E+03	5.4593258067E+03	9.3827000000E-01	0.000E+00	0.0
	2212	1	0	0	0	0	0.0000000000E+00	0.0000000000E+00	-6.2208408876E+03	6.2208408876E+03	9.3827000000E-01	0.000E+00	0.0
	51	2	1	2	0	0	6.8001609313E+01	1.4960619666E+02	7.7814133453E+02	1.3396137152E+03	1.0779864269E+03	0.000E+00	0.0
	1000022	2	5	5	0	0	-6.8001609313E+01	-1.4960619666E+02	6.0769612552E+02	1.0622749433E+03	8.5564434269E+02	0.000E+00	0.0
	14	1	6	6	0	0	7.2011058018E+01	-6.6903352655E+01	6.1082233030E+02	6.9884946181E+02	3.2500000000E+02	0.000E+00	0.0
	-14	1	6	6	0	0	-1.4001266733E+02	-8.2702844004E+01	-3.1262047837E+00	3.6342548146E+02	3.2500000000E+02	0.000E+00	0.0
	25	2	5	5	0	0	6.8001609313E+01	1.4960619666E+02	1.5381895541E+02	2.5755836249E+02	1.2517909609E+02	0.000E+00	0.0
	-5	1	9	9	0	501	-6.6141969254E+00	-1.0537070196E+01	-1.0067090937E+01	1.6540742705E+01	4.1800000000E+00	0.000E+00	0.0
	5	1	9	9	501	0	7.4615806239E+01	1.6014326686E+02	1.6388604635E+02	2.4101761979E+02	4.1800000000E+00	0.000E+00	0.0
</event>
<event>
    11  -1  1.0000000E+00  1.0000000E+00  -1.0000000E+00  -1.0000000E+00
	2212	-1	0	0	0	0	0.0000000000E+00	0.0000000000E+00	6.5000000000E+03	6.5000000000E+03	9.3827000000E-01	0.000E+00	0.0
	2212	-1	0	0	0	0	0.0000000000E+00	0.0000000000E+00	-6.5000000000E+03	6.5000000000E+03	9.3827000000E-01	0.000E+00	0.0
	2212	1	0	0	0	0	0.0000000000E+00	0.0000000000E+00	5.7405188932E+03	5.7405188932E+03	9.3827000000E-01	0.000E+00	0.0
	2212	1	0	0	0	0	0.0000000000E+00	0.0000000000E+00	-6.1390681519E+03	6.1390681519E+03	9.3827000000E-01	0.000E+00	0.0
	51	2	1	2	0	0	-7.9183049614E+01	7.2617571505E+01	3.0760419075E+02	1.0966527632E+03	1.0471311656E+03	0.000E+00	0.0
	1000022	2	5	5	0	0	7.9183049614E+01	-7.2617571505E+01	4.2178509097E+02	9.5382702705E+02	8.4872850048E+02	0.000E+00	0.0
	14	1	6	6	0	0	1.6028248406E+02	-1.3030280150E+02	4.7316920034E+02	6.1006834611E+02	3.2500000000E+02	0.000E+00	0.0
	-14	1	6	6	0	0	-8.1099434441E+01	5.7685229994E+01	-5.1384109364E+01	3.4375868094E+02	3.2500000000E+02	0.000E+00	0.0
	25	2	5	5	0	0	-7.9183049614E+01	7.2617571505E+01	-2.3235832263E+01	1.6658592786E+02	1.2517068515E+02	0.000E+00	0.0
	-5	1	9	9	0	501	-5.4090910846E+01	1.0709721320E+02	-2.8570283017E+01	1.2340734655E+02	4.1800000000E+00	0.000E+00	0.0
	5	1	9	9	501	0	-2.5092138769E+01	-3.4479641690E+01	5.3344507532E+00	4.3178581310E+01	4.1800000000E+00	0.000E+00	0.0
</event>
<event>
    11  -1  1.0000000E+00  1.0000000E+00  -1.0000000E+00  -1.0000000E+00
	2212	-1	0	0	0	0	0.0000000000E+00	0.0000000000E+00	6.5000000000E+03	6.5000000000E+03	9.3827000000E-01	0.000E+00	0.0
	2212	-1	0	0	0	0	0.0000000000E+00	0.0000000000E+00	-6.5000000000E+03	6.5000000000E+03	9.3827000000E-01	0.000E+00	0.0
	2212	1	0	0	0	0	0.0000000000E+00	0.0000000000E+00	5.1220087352E+03	5.1220087352E+03	9.3827000000E-01	0.000E+00	0.0
	2212	1	0	0	0	0	0.0000000000E+00	0.0000000000E+00	-6.2982056680E+03	6.2982056680E+03	9.3827000000E-01	0.000E+00	0.0
	51	2	1	2	0	0	-4.8620071458E+01	-6.2260423248E+01	1.0402286643E+03	1.4834416918E+03	1.0546484283E+03	0.000E+00	0.0
	1000022	2	5	5	0	0	4.8620071458E+01	6.2260423248E+01	1.1234481304E+03	1.4226579087E+03	8.6924079051E+02	0.000E+00	0.0
	14	1	6	6	0	0	-7.9247889575E+01	2.9332750974E+02	6.8101447394E+02	8.1346602246E+02	3.2500000000E+02	0.000E+00	0.0
	-14	1	6	6	0	0	1.2786796103E+02	-2.3106708650E+02	4.4243365647E+02	6.0919188627E+02	3.2500000000E+02	0.000E+00	0.0
	25	2	5	5	0	0	-4.8620071458E+01	-6.2260423248E+01	5.2748802377E+01	1.5712768814E+02	1.2516550074E+02	0.000E+00	0.0
	-5	1	9	9	0	501	2.8851945950E+01	-2.6753559472E+00	5.1564251749E+01	5.9295335170E+01	4.1800000000E+00	0.000E+00	0.0
	5	1	9	9	501	0	-7.7472017408E+01	-5.9585067301E+01	1.1845506287E+00	9.7832352965E+01	4.1800000000E+00	0.000E+00	0.0
</event>
<event>
    11  -1  1.0000000E+00  1.0000000E+00  -1.0000000E+00  -1.0000000E+00
	2212	-1	0	0	0	0	0.0000000000E+00	0.0000000000E+00	6.5000000000E+03	6.5000000000E+03	9.3827000000E-01	0.000E+00	0.0
	2212	-1	0	0	0	0	0.0000000000E+00	0.0000000000E+00	-6.5000000000E+03	6.5000000000E+03	9.3827000000E-01	0.000E+00	0.0
	2212	1	0	0	0	0	0.0000000000E+00	0.0000000000E+00	6.2412268104E+03	6.2412268104E+03	9.3827000000E-01	0.000E+00	0.0
	2212	1	0	0	0	0	0.0000000000E+00	0.0000000000E+00	-5.4333624425E+03	5.4333624425E+03	9.3827000000E-01	0.000E+00	0.0
	51	2	1	2	0	0	-8.1195225098E+01	-1.9443869506E+01	-6.7145410591E+02	1.2497560388E+03	1.0507467875E+03	0.000E+00	0.0
	1000022	2	5	5	0	0	8.1195225098E+01	1.9443869506E+01	-8.0644387208E+02	1.1749354575E+03	8.5038278545E+02	0.000E+00	0.0
	14	1	6	6	0	0	-1.1961882843E+02	6.2222304558E+01	-6.8787357825E+02	7.7264179214E+02	3.2500000000E+02	0.000E+00	0.0
	-14	1	6	6	0	0	2.0081405353E+02	-4.2778435052E+01	-1.1857029383E+02	4.0229366535E+02	3.2500000000E+02	0.000E+00	0.0
	25	2	5	5	0	0	-8.1195225098E+01	-1.9443869506E+01	-1.4204958787E+00	1.5047528960E+02	1.2518013553E+02	0.000E+00	0.0
	-5	1	9	9	0	501	9.6125751047E+00	3.2483948749E+01	-2.6036644678E+01	4.2930033689E+01	4.1800000000E+00	0.000E+00	0.0
	5	1	9	9	501	0	-9.0807800203E+01	-5.1927818255E+01	2.4616148799E+01	1.0754525591E+02	4.1800000000E+00	0.000E+00	0.0
</event>
<event>
    11  -1  1.0000000E+00  1.0000000E+00  -1.0000000E+00  -1.0000000E+00
	2212	-1	0	0	0	0	0.0000000000E+00	0.0000000000E+00	6.5000000000E+03	6.5000000000E+03	9.3827000000E-01	0.000E+00	0.0
	2212	-1	0	0	0	0	0.0000000000E+00	0.0000000000E+00	-6.5000000000E+03	6.5000000000E+03	9.3827000000E-01	0.000E+00	0.0
	2212	1	0	0	0	0	0.0000000000E+00	0.0000000000E+00	5.8625839267E+03	5.8625839267E+03	9.3827000000E-01	0.000E+00	0.0
	2212	1	0	0	0	0	0.0000000000E+00	0.0000000000E+00	-6.0667293582E+03	6.0667293582E+03	9.3827000000E-01	0.000E+00	0.0
	51	2	1	2	0	0	2.3763519501E+01	8.2859192096E+01	1.3261030221E+02	1.0628784162E+03	1.0510445684E+03	0.000E+00	0.0
	1000022	2	5	5	0	0	-2.3763519501E+01	-8.2859192096E+01	2.4422348993E+02	9.1351131760E+02	8.7602937381E+02	0.000E+00	0.0
	14	1	6	6	0	0	7.0141548188E+01	4.7731783913E+01	3.9698785734E+02	5.2002165230E+02	3.2500000000E+02	0.000E+00	0.0
	-14	1	6	6	0	0	-9.3905067689E+01	-1.3059097601E+02	-1.5276436741E+02	3.9348966531E+02	3.2500000000E+02	0.000E+00	0.0
	25	2	5	5	0	0	2.3763519501E+01	8.2859192096E+01	-4.0078058412E+01	1.5717539751E+02	1.2516990151E+02	0.000E+00	0.0
	-5	1	9	9	0	501	-3.6747346781E+01	7.8669603685E+01	-4.1569518600E+01	9.6357518213E+01	4.1800000000E+00	0.000E+00	0.0
	5	1	9	9	501	0	6.0510866282E+01	4.1895884106E+00	1.4914601886E+00	6.0817879302E+01	4.1800000000E+00	0.000E+00	0.0
</event>
<event>
    11  -1  1.0000000E+00  1.0000000E+00  -1.0000000E+00  -1.0000000E+00
	2212	-1	0	0	0	0	0.0000000000E+00	0.0000000000E+00	6.5000000000E+03	6.5000000000E+03	9.3827000000E-01	0.000E+00	0.0
	2212	-1	0	0	0	0	0.0000000000E+00	0.0000000000E+00	-6.5000000000E+03	6.5000000000E+03	9.3827000000E-01	0.000E+00	0.0
	2212	1	0	0	0	0	0.0000000000E+00	0.0000000000E+00	5.8766185114E+03	5.8766185114E+03	9.3827000000E-01	0.000E+00	0.0
	2212	1	0	0	0	0	0.0000000000E+00	0.0000000000E+00	-6.0493395397E+03	6.0493395397E+03	9.3827000000E-01	0.000E+00	0.0
	51	2	1	2	0	0	-5.6908389180E+01	-1.3485983864E+02	2.3302211810E+02	1.0951979743E+03	1.0600629955E+03	0.000E+00	0.0
	1000022	2	5	5	0	0	5.6908389180E+01	1.3485983864E+02	8.1553949297E+01	8.6095001647E+02	8.4448691131E+02	0.000E+00	0.0
	14	1	6	6	0	0	2.1947325213E+02	2.4167033299E+02	-4.1962265232E+01	4.6255690456E+02	3.2500000000E+02	0.000E+00	0.0
	-14	1	6	6	0	0	-1.6256486295E+02	-1.0681049434E+02	1.2351621453E+02	3.9839311191E+02	3.2500000000E+02	0.000E+00	0.0
	25	2	5	5	0	0	-5.6908389180E+01	-1.3485983864E+02	9.1167079031E+01	2.1309193249E+02	1.2518384302E+02	0.000E+00	0.0
	-5	1	9	9	0	501	-1.8961431916E+01	-2.5558779901E+01	-3.1109973526E+01	4.4699999811E+01	4.1800000000E+00	0.000E+00	0.0
	5	1	9	9	501	0	-3.7946957264E+01	-1.0930105874E+02	1.2227705256E+02	1.6839193268E+02	4.1800000000E+00	0.000E+00	0.0
</event>
<event>
    11  -1  1.0000000E+00  1.0000000E+00  -1.0000000E+00  -1.0000000E+00
	2212	-1	0	0	0	0	0.0000000000E+00	0.0000000000E+00	6.5000000000E+03	6.5000000000E+03	9.3827000000E-01	0.000E+00	0.0
	2212	-1	0	0	0	0	0.0000000000E+00	0.0000000000E+00	-6.5000000000E+03	6.5000000000E+03	9.3827000000E-01	0.000E+00	0.0
	2212	1	0	0	0	0	0.0000000000E+00	0.0000000000E+00	4.8386348658E+03	4.8386348658E+03	9.3827000000E-01	0.000E+00	0.0
	2212	1	0	0	0	0	0.0000000000E+00	0.0000000000E+00	-5.8503126078E+03	5.8503126078E+03	9.3827000000E-01	0.000E+00	0.0
	51	2	1	2	0	0	7.0201528018E+02	-2.4782086861E+02	1.5729124646E+03	2.7103073966E+03	2.0778527200E+03	0.000E+00	0.0
	1000022	2	5	5	0	0	-7.0201528018E+02	2.4782086861E+02	1.1064019928E+02	1.1355601911E+03	8.5030292092E+02	0.000E+00	0.0
	14	1	6	6	0	0	-2.6752194019E+02	3.2208140756E+02	-1.1648598103E+02	5.4267707281E+02	3.2500000000E+02	0.000E+00	0.0
	-14	1	6	6	0	0	-4.3449333999E+02	-7.4260538949E+01	2.2712618031E+02	5.9288311826E+02	3.2500000000E+02	0.000E+00	0.0
	25	2	5	5	0	0	7.0201528018E+02	-2.4782086861E+02	9.0103754273E+02	1.1754923353E+03	1.2519161526E+02	0.000E+00	0.0
	-5	1	9	9	0	501	2.1565524537E+02	-1.2118572485E+02	2.3614322418E+02	3.4201499892E+02	4.1800000000E+00	0.000E+00	0.0
	5	1	9	9	501	0	4.8636003481E+02	-1.2663514376E+02	6.6489431855E+02	8.3347733643E+02	4.1800000000E+00	0.000E+00	0.0
</event>
<event>
    11  -1  1.0000000E+00  1.0000000E+00  -1.0000000E+00  -1.0000000E+00
	2212	-1	0	0	0	0	0.0000000000E+00	0.0000000000E+00	6.5000000000E+03	6.5000000000E+03	9.3827000000E-01	0.000E+00	0.0
	2212	-1	0	0	0	0	0.0000000000E+00	0.0000000000E+00	-6.5000000000E+03	6.5000000000E+03	9.3827000000E-01	0.000E+00	0.0
	2212	1	0	0	0	0	0.0000000000E+00	0.0000000000E+00	5.5140500444E+03	5.5140500444E+03	9.3827000000E-01	0.000E+00	0.0
	2212	1	0	0	0	0	0.0000000000E+00	0.0000000000E+00	-6.2196262258E+03	6.2196262258E+03	9.3827000000E-01	0.000E+00	0.0
	51	2	1	2	0	0	1.0451007523E+02	-7.1030608619E+01	6.4256391458E+02	1.2387873620E+03	1.0515407936E+03	0.000E+00	0.0
	1000022	2	5	5	0	0	-1.0451007523E+02	7.1030608619E+01	6.4929712665E+02	1.0797635403E+03	8.5342535762E+02	0.000E+00	0.0
	14	1	6	6	0	0	-6.1610621899E+01	2.8272896101E+02	4.9773197155E+02	6.6113058440E+02	3.2500000000E+02	0.000E+00	0.0
	-14	1	6	6	0	0	-4.2899453327E+01	-2.1169835239E+02	1.5156515510E+02	4.1863295587E+02	3.2500000000E+02	0.000E+00	0.0
	25	2	5	5	0	0	1.0451007523E+02	-7.1030608619E+01	5.6279054762E+01	1.8656018945E+02	1.2517854888E+02	0.000E+00	0.0
	-5	1	9	9	0	501	7.2217895846E+00	-7.5766495653E+01	4.9618155421E+00	7.6385915729E+01	4.1800000000E+00	0.000E+00	0.0
	5	1	9	9	501	0	9.7288285642E+01	4.7358870341E+00	5.1317239219E+01	1.1017427372E+02	4.1800000000E+00	0.000E+00	0.0
</event>
<event>
    11  -1  1.0000000E+00  1.0000000E+00  -1.0000000E+00  -1.0000000E+00
	2212	-1	0	0	0	0	0.0000000000E+00	0.0000000000E+00	6.5000000000E+03	6.5000000000E+03	9.3827000000E-01	0.000E+00	0.0
	2212	-1	0	0	0	0	0.0000000000E+00	0.0000000000E+00	-6.5000000000E+03	6.5000000000E+03	9.3827000000E-01	0.000E+00	0.0
	2212	1	0	0	0	0	0.0000000000E+00	0.0000000000E+00	6.1218772562E+03	6.1218772562E+03	9.3827000000E-01	0.000E+00	0.0
	2212	1	0	0	0	0	0.0000000000E+00	0.0000000000E+00	-5.7643718751E+03	5.7643718751E+03	9.3827000000E-01	0.000E+00	0.0
	51	2	1	2	0	0	3.0391129288E+01	4.7652428940E+01	-4.4197723494E+02	1.1450629463E+03	1.0548132063E+03	0.000E+00	0.0
	1000022	2	5	5	0	0	-3.0391129288E+01	-4.7652428940E+01	-2.2090617550E+02	9.2004435913E+02	8.9134040056E+02	0.000E+00	0.0
	14	1	6	6	0	0	-1.3637450388E+02	6.0595504988E+01	-3.8520542330E+02	5.2562157364E+02	3.2500000000E+02	0.000E+00	0.0
	-14	1	6	6	0	0	1.0598337460E+02	-1.0824793393E+02	1.6429924780E+02	3.9442278549E+02	3.2500000000E+02	0.000E+00	0.0
	25	2	5	5	0	0	3.0391129288E+01	4.7652428940E+01	-1.3659920561E+02	1.9370650963E+02	1.2517385580E+02	0.000E+00	0.0
	-5	1	9	9	0	501	-2.3408639256E+00	3.4284595843E+01	-1.5128401369E+02	1.5519419562E+02	4.1800000000E+00	0.000E+00	0.0
	5	1	9	9	501	0	3.2731993214E+01	1.3367833098E+01	1.4684808087E+01	3.8512314005E+01	4.1800000000E+00	0.000E+00	0.0
</event>
<event>
    11  -1  1.0000000E+00  1.0000000E+00  -1.0000000E+00  -1.0000000E+00
	2212	-1	0	0	0	0	0.0000000000E+00	0.0000000000E+00	6.5000000000E+03	6.5000000000E+03	9.3827000000E-01	0.000E+00	0.0
	2212	-1	0	0	0	0	0.0000000000E+00	0.0000000000E+00	-6.5000000000E+03	6.5000000000E+03	9.3827000000E-01	0.000E+00	0.0
	2212	1	0	0	0	0	0.0000000000E+00	0.0000000000E+00	5.2661446947E+03	5.2661446947E+03	9.3827000000E-01	0.000E+00	0.0
	2212	1	0	0	0	0	0.0000000000E+00	0.0000000000E+00	-6.2758123892E+03	6.2758123892E+03	9.3827000000E-01	0.000E+00	0.0
	51	2	1	2	0	0	1.2489010374E+02	1.2490478153E+01	9.2566956828E+02	1.4067970683E+03	1.0518841627E+03	0.000E+00	0.0
	1000022	2	5	5	0	0	-1.2489010374E+02	-1.2490478153E+01	9.2088604486E+02	1.2597806041E+03	8.5044841872E+02	0.000E+00	0.0
	14	1	6	6	0	0	1.1255721504E+02	6.8151176916E+01	1.3994393507E+02	3.7752220403E+02	3.2500000000E+02	0.000E+00	0.0
	-14	1	6	6	0	0	-2.3744731878E+02	-8.0641655069E+01	7.8094210979E+02	8.8225840011E+02	3.2500000000E+02	0.000E+00	0.0
	25	2	5	5	0	0	1.2489010374E+02	1.2490478153E+01	8.8781649709E+01	1.9826231198E+02	1.2518870943E+02	0.000E+00	0.0
	-5	1	9	9	0	501	3.3779743630E+01	4.4662534107E+01	8.4495497877E+01	1.0145331239E+02	4.1800000000E+00	0.000E+00	0.0
	5	1	9	9	501	0	9.1110360114E+01	-3.2172055954E+01	4.2861518320E+00	9.6808999592E+01	4.1800000000E+00	0.000E+00	0.0
</event>
<event>
    11  -1  1.0000000E+00  1.0000000E+00  -1.0000000E+00  -1.0000000E+00
	2212	-1	0	0	0	0	0.0000000000E+00	0.0000000000E+00	6.5000000000E+03	6.5000000000E+03	9.3827000000E-01	0.000E+00	0.0
	2212	-1	0	0	0	0	0.0000000000E+00	0.0000000000E+00	-6.5000000000E+03	6.5000000000E+03	9.3827000000E-01	0.000E+00	0.0
	2212	1	0	0	0	0	0.0000000000E+00	0.0000000000E+00	5.1947100970E+03	5.1947100970E+03	9.3827000000E-01	0.000E+00	0.0
	2212	1	0	0	0	0	0.0000000000E+00	0.0000000000E+00	-6.3182450744E+03	6.3182450744E+03	9.3827000000E-01	0.000E+00	0.0
	51	2	1	2	0	0	-6.2519137329E+01	5.7293844480E+00	1.1277905171E+03	1.4915845251E+03	9.7415167034E+02	0.000E+00	0.0
	1000022	2	5	5	0	0	6.2519137329E+01	-5.7293844480E+00	9.6009413911E+02	1.2718168314E+03	8.3174264546E+02	0.000E+00	0.0
	14	1	6	6	0	0	2.4348731980E+02	-1.3570892285E+02	3.9247095792E+02	5.8082823576E+02	3.2500000000E+02	0.000E+00	0.0
	-14	1	6	6	0	0	-1.8096818247E+02	1.2997953840E+02	5.6762318119E+02	6.9098859563E+02	3.2500000000E+02	0.000E+00	0.0
	25	2	5	5	0	0	-6.2519137329E+01	5.7293844480E+00	1.6344083833E+02	2.1522799724E+02	1.2517473701E+02	0.000E+00	0.0
	-5	1	9	9	0	501	1.2583520070E+01	8.9009840113E+00	1.3310598737E+02	1.3406061602E+02	4.1800000000E+00	0.000E+00	0.0
	5	1	9	9	501	0	-7.5102657398E+01	-3.1715995633E+00	3.0334850959E+01	8.1167381224E+01	4.1800000000E+00	0.000E+00	0.0
</event>
<event>
    11  -1  1.0000000E+00  1.0000000E+00  -1.0000000E+00  -1.0000000E+00
	2212	-1	0	0	0	0	0.0000000000E+00	0.0000000000E+00	6.5000000000E+03	6.5000000000E+03	9.3827000000E-01	0.000E+00	0.0
	2212	-1	0	0	0	0	0.0000000000E+00	0.0000000000E+00	-6.5000000000E+03	6.5000000000E+03	9.3827000000E-01	0.000E+00	0.0
	2212	1	0	0	0	0	0.0000000000E+00	0.0000000000E+00	6.2700775440E+03	6.2700775440E+03	9.3827000000E-01	0.000E+00	0.0
	2212	1	0	0	0	0	0.0000000000E+00	0.0000000000E+00	-5.2912790353E+03	5.2912790353E+03	9.3827000000E-01	0.000E+00	0.0
	51	2	1	2	0	0	8.9379067447E+01	1.3206429281E+00	-1.0617565324E+03	1.4989882145E+03	1.0543473675E+03	0.000E+00	0.0
	1000022	2	5	5	0	0	-8.9379067447E+01	-1.3206429281E+00	-7.4842644428E+02	1.1616286608E+03	8.8388270784E+02	0.000E+00	0.0
	14	1	6	6	0	0	-2.4566908875E+00	2.1913477557E+02	-6.3060839336E+02	7.4250793327E+02	3.2500000000E+02	0.000E+00	0.0
	-14	1	6	6	0	0	-8.6922376560E+01	-2.2045541850E+02	-1.1781805092E+02	4.1912072749E+02	3.2500000000E+02	0.000E+00	0.0
	25	2	5	5	0	0	8.9379067447E+01	1.3206429281E+00	-2.3037206436E+02	2.7701475990E+02	1.2520194634E+02	0.000E+00	0.0
	-5	1	9	9	0	501	4.5964928816E+01	-6.1717555082E+01	-1.1014428781E+02	1.3442867188E+02	4.1800000000E+00	0.000E+00	0.0
	5	1	9	9	501	0	4.3414138631E+01	6.3038198010E+01	-1.2022777655E+02	1.4258608802E+02	4.1800000000E+00	0.000E+00	0.0
</event>
<event>
    11  -1  1.0000000E+00  1.0000000E+00  -1.0000000E+00  -1.0000000E+00
	2212	-1	0	0	0	0	0.0000000000E+00	0.0000000000E+00	6.5000000000E+03	6.5000000000E+03	9.3827000000E-01	0.000E+00	0.0
	2212	-1	0	0	0	0	0.0000000000E+00	0.0000000000E+00	-6.5000000000E+03	6.5000000000E+03	9.3827000000E-01	0.000E+00	0.0
	2212	1	0	0	0	0	0.0000000000E+00	0.0000000000E+00	6.0408148399E+03	6.0408148399E+03	9.3827000000E-01	0.000E+00	0.0
	2212	1	0	0	0	0	0.0000000000E+00	0.0000000000E+00	-5.8965490094E+03	5.8965490094E+03	9.3827000000E-01	0.000E+00	0.0
	51	2	1	2	0	0	-4.1854840992E+01	6.7263205380E+01	-2.3709456700E+02	1.0820688329E+03	1.0527976819E+03	0.000E+00	0.0
	1000022	2	5	5	0	0	4.1854840992E+01	-6.7263205380E+01	-2.8558452389E+01	8.7468351056E+02	8.7062017662E+02	0.000E+00	0.0
	14	1	6	6	0	0	1.2393624108E+01	-1.5252506257E+01	-3.0327270055E+02	4.4495569640E+02	3.2500000000E+02	0.000E+00	0.0
	-14	1	6	6	0	0	2.9461216884E+01	-5.2010699123E+01	2.7471424816E+02	4.2972781416E+02	3.2500000000E+02	0.000E+00	0.0
	25	2	5	5	0	0	-4.1854840992E+01	6.7263205380E+01	-1.1570737813E+02	1.8795264016E+02	1.2514723759E+02	0.000E+00	0.0
	-5	1	9	9	0	501	-1.0159917691E+01	2.4852930297E+01	-1.3011581780E+02	1.3292287431E+02	4.1800000000E+00	0.000E+00	0.0
	5	1	9	9	501	0	-3.1694923301E+01	4.2410275082E+01	1.4408439676E+01	5.5029765850E+01	4.1800000000E+00	0.000E+00	0.0
</event>
<event>
    11  -1  1.0000000E+00  1.0000000E+00  -1.0000000E+00  -1.0000000E+00
	2212	-1	0	0	0	0	0.0000000000E+00	0.0000000000E+00	6.5000000000E+03	6.5000000000E+03	9.3827000000E-01	0.000E+00	0.0
	2212	-1	0	0	0	0	0.0000000000E+00	0.0000000000E+00	-6.5000000000E+03	6.5000000000E+03	9.3827000000E-01	0.000E+00	0.0
	2212	1	0	0	0	0	0.0000000000E+00	0.0000000000E+00	5.1499407046E+03	5.1499407046E+03	9.3827000000E-01	0.000E+00	0.0
	2212	1	0	0	0	0	0.0000000000E+00	0.0000000000E+00	-6.2948139065E+03	6.2948139065E+03	9.3827000000E-01	0.000E+00	0.0
	51	2	1	2	0	0	9.1922053153E+01	-5.8605739796E+01	1.2932911461E+03	1.6710894221E+03	1.0526412359E+03	0.000E+00	0.0
	1000022	2	5	5	0	0	-9.1922053153E+01	5.8605739796E+01	7.9994314225E+02	1.1724507793E+03	8.5020438859E+02	0.000E+00	0.0
	14	1	6	6	0	0	3.7541588228E+01	-2.1548283594E+02	5.0470314197E+02	6.3889943258E+02	3.2500000000E+02	0.000E+00	0.0
	-14	1	6	6	0	0	-1.2946364138E+02	2.7408857574E+02	2.9524000028E+02	5.3355134669E+02	3.2500000000E+02	0.000E+00	0.0
	25	2	5	5	0	0	9.1922053153E+01	-5.8605739796E+01	3.4493005960E+02	3.8279460967E+02	1.2518254904E+02	0.000E+00	0.0
	-5	1	9	9	0	501	-1.7513229650E+01	-3.5511358709E+01	3.4079583123E+01	5.2408588952E+01	4.1800000000E+00	0.000E+00	0.0
	5	1	9	9	501	0	1.0943528280E+02	-2.3094381087E+01	3.1085047648E+02	3.3038602072E+02	4.1800000000E+00	0.000E+00	0.0
</event>
<event>
    11  -1  1.0000000E+00  1.0000000E+00  -1.0000000E+00  -1.0000000E+00
	2212	-1	0	0	0	0	0.0000000000E+00	0.0000000000E+00	6.5000000000E+03	6.5000000000E+03	9.3827000000E-01	0.000E+00	0.0
	2212	-1	0	0	0	0	0.0000000000E+00	0.0000000000E+00	-6.5000000000E+03	6.5000000000E+03	9.3827000000E-01	0.000E+00	0.0
	2212	1	0	0	0	0	0.0000000000E+00	0.0000000000E+00	6.2907314091E+03	6.2907314091E+03	9.3827000000E-01	0.000E+00	0.0
	2212	1	0	0	0	0	0.0000000000E+00	0.0000000000E+00	-5.1096058278E+03	5.1096058278E+03	9.3827000000E-01	0.000E+00	0.0
	51	2	1	2	0	0	-9.7021733433E+01	-1.4398212788E+02	-1.3190836847E+03	1.7128891249E+03	1.0788249705E+03	0.000E+00	0.0
	1000022	2	5	5	0	0	9.7021733433E+01	1.4398212788E+02	-8.1356763766E+02	1.1754768213E+03	8.3048743914E+02	0.000E+00	0.0
	14	1	6	6	0	0	-1.4513919782E+02	-3.4474202096E+01	-1.7433988738E+02	3.9783571193E+02	3.2500000000E+02	0.000E+00	0.0
	-14	1	6	6	0	0	2.4216093125E+02	1.7845632997E+02	-6.3922775028E+02	7.7764110942E+02	3.2500000000E+02	0.000E+00	0.0
	25	2	5	5	0	0	-9.7021733433E+01	-1.4398212788E+02	-3.6755794360E+02	4.2418594179E+02	1.2120561619E+02	0.000E+00	0.0
	-5	1	9	9	0	501	-1.0069333696E+02	-1.4553808354E+02	-2.4914649974E+02	3.0563365751E+02	4.1800000000E+00	0.000E+00	0.0
	5	1	9	9	501	0	3.6716035241E+00	1.5559556589E+00	-1.1841144386E+02	1.1855228428E+02	4.1800000000E+00	0.000E+00	0.0
</event>
<event>
    11  -1  1.0000000E+00  1.0000000E+00  -1.0000000E+00  -1.0000000E+00
	2212	-1	0	0	0	0	0.0000000000E+00	0.0000000000E+00	6.5000000000E+03	6.5000000000E+03	9.3827000000E-01	0.000E+00	0.0
	2212	-1	0	0	0	0	0.0000000000E+00	0.0000000000E+00	-6.5000000000E+03	6.5000000000E+03	9.3827000000E-01	0.000E+00	0.0
	2212	1	0	0	0	0	0.0000000000E+00	0.0000000000E+00	6.1911624772E+03	6.1911624772E+03	9.3827000000E-01	0.000E+00	0.0
	2212	1	0	0	0	0	0.0000000000E+00	0.0000000000E+00	-5.6139646871E+03	5.6139646871E+03	9.3827000000E-01	0.000E+00	0.0
	51	2	1	2	0	0	1.1303817213E+02	-6.3377243580E+01	-5.2582143419E+02	1.1780688811E+03	1.0462140338E+03	0.000E+00	0.0
	1000022	2	5	5	0	0	-1.1303817213E+02	6.3377243580E+01	-5.3055173898E+02	1.0087579408E+03	8.4812329997E+02	0.000E+00	0.0
	14	1	6	6	0	0	3.2806919619E+01	2.8910927400E+02	-2.7370398761E+02	5.1497508593E+02	3.2500000000E+02	0.000E+00	0.0
	-14	1	6	6	0	0	-1.4584509175E+02	-2.2573203042E+02	-2.5684775137E+02	4.9378285483E+02	3.2500000000E+02	0.000E+00	0.0
	25	2	5	5	0	0	1.1303817213E+02	-6.3377243580E+01	-4.6646051163E+01	1.8611489495E+02	1.2517426522E+02	0.000E+00	0.0
	-5	1	9	9	0	501	2.8113299707E+01	-6.6590701233E+01	2.3202058335E+01	7.6029514151E+01	4.1800000000E+00	0.000E+00	0.0
	5	1	9	9	501	0	8.4924872419E+01	3.2134576534E+00	-6.9848109498E+01	1.1008538080E+02	4.1800000000E+00	0.000E+00	0.0
</event>
<event>
    11  -1  1.0000000E+00  1.0000000E+00  -1.0000000E+00  -1.0000000E+00
	2212	-1	0	0	0	0	0.0000000000E+00	0.0000000000E+00	6.5000000000E+03	6.5000000000E+03	9.3827000000E-01	0.000E+00	0.0
	2212	-1	0	0	0	0	0.0000000000E+00	0.0000000000E+00	-6.5000000000E+03	6.5000000000E+03	9.3827000000E-01	0.000E+00	0.0
	2212	1	0	0	0	0	0.0000000000E+00	0.0000000000E+00	6.0384334181E+03	6.0384334181E+03	9.3827000000E-01	0.000E+00	0.0
	2212	1	0	0	0	0	0.0000000000E+00	0.0000000000E+00	-5.9077159618E+03	5.9077159618E+03	9.3827000000E-01	0.000E+00	0.0
	51	2	1	2	0	0	5.3314256719E+01	6.5384935279E+00	-2.7715136791E+02	1.0831491674E+03	1.0457122339E+03	0.000E+00	0.0
	1000022	2	5	5	0	0	-5.3314256719E+01	-6.5384935279E+00	3.9083692062E+01	8.3616424991E+02	8.3352141903E+02	0.000E+00	0.0
	14	1	6	6	0	0	6.5074350329E+01	2.8815982123E+01	2.6171453092E+02	4.2330193431E+02	3.2500000000E+02	0.000E+00	0.0
	-14	1	6	6	0	0	-1.1838860705E+02	-3.5354475651E+01	-2.2263083886E+02	4.1286231560E+02	3.2500000000E+02	0.000E+00	0.0
	25	2	5	5	0	0	5.3314256719E+01	6.5384935279E+00	-1.6980114840E+02	2.1768637023E+02	1.2517892761E+02	0.000E+00	0.0
	-5	1	9	9	0	501	2.7270215279E+01	-5.8599807440E+01	-9.5725648356E+01	1.1557886583E+02	4.1800000000E+00	0.000E+00	0.0
	5	1	9	9	501	0	2.6044041440E+01	6.5138300968E+01	-7.4075500047E+01	1.0210750440E+02	4.1800000000E+00	0.000E+00	0.0
</event>
<event>
    11  -1  1.0000000E+00  1.0000000E+00  -1.0000000E+00  -1.0000000E+00
	2212	-1	0	0	0	0	0.0000000000E+00	0.0000000000E+00	6.5000000000E+03	6.5000000000E+03	9.3827000000E-01	0.000E+00	0.0
	2212	-1	0	0	0	0	0.0000000000E+00	0.0000000000E+00	-6.5000000000E+03	6.5000000000E+03	9.3827000000E-01	0.000E+00	0.0
	2212	1	0	0	0	0	0.0000000000E+00	0.0000000000E+00	5.5405595263E+03	5.5405595263E+03	9.3827000000E-01	0.000E+00	0.0
	2212	1	0	0	0	0	0.0000000000E+00	0.0000000000E+00	-6.2169477304E+03	6.2169477304E+03	9.3827000000E-01	0.000E+00	0.0
	51	2	1	2	0	0	2.7711219940E+01	1.0051657848E+02	7.3516451407E+02	1.2796974532E+03	1.0422510325E+03	0.000E+00	0.0
	1000022	2	5	5	0	0	-2.7711219940E+01	-1.0051657848E+02	5.1179230960E+02	1.0109025238E+03	8.6551779306E+02	0.000E+00	0.0
	14	1	6	6	0	0	2.1536363022E+02	-2.0130450256E+02	3.5462066042E+02	5.6416824509E+02	3.2500000000E+02	0.000E+00	0.0
	-14	1	6	6	0	0	-2.4307485016E+02	1.0078792408E+02	1.5717164918E+02	4.4673427866E+02	3.2500000000E+02	0.000E+00	0.0
	25	2	5	5	0	0	2.7711219940E+01	1.0051657848E+02	1.6459589450E+02	2.3159021961E+02	1.2518277468E+02	0.000E+00	0.0
	-5	1	9	9	0	501	-4.2923412544E+01	7.2607262641E+01	6.6675159273E+01	1.0759778435E+02	4.1800000000E+00	0.000E+00	0.0
	5	1	9	9	501	0	7.0634632484E+01	2.7909315836E+01	9.7920735223E+01	1.2399243527E+02	4.1800000000E+00	0.000E+00	0.0
</event>
<event>
    11  -1  1.0000000E+00  1.0000000E+00  -1.0000000E+00  -1.0000000E+00
	2212	-1	0	0	0	0	0.0000000000E+00	0.0000000000E+00	6.5000000000E+03	6.5000000000E+03	9.3827000000E-01	0.000E+00	0.0
	2212	-1	0	0	0	0	0.0000000000E+00	0.0000000000E+00	-6.5000000000E+03	6.5000000000E+03	9.3827000000E-01	0.000E+00	0.0
	2212	1	0	0	0	0	0.0000000000E+00	0.0000000000E+00	6.2986684139E+03	6.2986684139E+03	9.3827000000E-01	0.000E+00	0.0
	2212	1	0	0	0	0	0.0000000000E+00	0.0000000000E+00	-5.1262573298E+03	5.1262573298E+03	9.3827000000E-01	0.000E+00	0.0
	51	2	1	2	0	0	7.0661936981E+01	1.1208723931E+02	-1.2504860261E+03	1.6393849830E+03	1.0518132736E+03	0.000E+00	0.0
	1000022	2	5	5	0	0	-7.0661936981E+01	-1.1208723931E+02	-8.9532806597E+02	1.2434063696E+03	8.5257867422E+02	0.000E+00	0.0
	14	1	6	6	0	0	-2.3351785919E+02	8.3085049921E+01	-6.3620757951E+02	7.5618701411E+02	3.2500000000E+02	0.000E+00	0.0
	-14	1	6	6	0	0	1.6285592221E+02	-1.9517228923E+02	-2.5912048647E+02	4.8721935551E+02	3.2500000000E+02	0.000E+00	0.0
	25	2	5	5	0	0	7.0661936981E+01	1.1208723931E+02	-2.7708301820E+02	3.3166788668E+02	1.2518757735E+02	0.000E+00	0.0
	-5	1	9	9	0	501	7.3143825952E+01	3.3027812715E+00	-1.0747765676E+02	1.3011474452E+02	4.1800000000E+00	0.000E+00	0.0
	5	1	9	9	501	0	-2.4818889707E+00	1.0878445804E+02	-1.6960536144E+02	2.0155314215E+02	4.1800000000E+00	0.000E+00	0.0
</event>
<event>
    11  -1  1.0000000E+00  1.0000000E+00  -1.0000000E+00  -1.0000000E+00
	2212	-1	0	0	0	0	0.0000000000E+00	0.0000000000E+00	6.5000000000E+03	6.5000000000E+03	9.3827000000E-01	0.000E+00	0.0
	2212	-1	0	0	0	0	0.0000000000E+00	0.0000000000E+00	-6.5000000000E+03	6.5000000000E+03	9.3827000000E-01	0.000E+00	0.0
	2212	1	0	0	0	0	0.0000000000E+00	0.0000000000E+00	5.6578556887E+03	5.6578556887E+03	9.3827000000E-01	0.000E+00	0.0
	2212	1	0	0	0	0	0.0000000000E+00	0.0000000000E+00	-6.1713374249E+03	6.1713374249E+03	9.3827000000E-01	0.000E+00	0.0
	51	2	1	2	0	0	2.7622821553E+01	-9.4980213601E+01	3.6237299356E+02	1.1172393296E+03	1.0522002053E+03	0.000E+00	0.0
	1000022	2	5	5	0	0	-2.7622821553E+01	9.4980213601E+01	5.6725985454E+02	1.0024476305E+03	8.2056885633E+02	0.000E+00	0.0
	14	1	6	6	0	0	4.1721463571E+01	-1.2203448632E+02	4.8370479008E+02	5.9684874157E+02	3.2500000000E+02	0.000E+00	0.0
	-14	1	6	6	0	0	-6.9344285125E+01	2.1701469993E+02	8.3555064463E+01	4.0559888888E+02	3.2500000000E+02	0.000E+00	0.0
	25	2	5	5	0	0	2.7622821553E+01	-9.4980213601E+01	-5.3778118357E+01	1.6835925599E+02	1.2517384638E+02	0.000E+00	0.0
	-5	1	9	9	0	501	-4.8254068753E+01	-5.3272263680E+01	-3.3093157107E+01	7.9240259188E+01	4.1800000000E+00	0.000E+00	0.0
	5	1	9	9	501	0	7.5876890307E+01	-4.1707949921E+01	-2.0684961250E+01	8.9118996803E+01	4.1800000000E+00	0.000E+00	0.0
</event>
<event>
    11  -1  1.0000000E+00  1.0000000E+00  -1.0000000E+00  -1.0000000E+00
	2212	-1	0	0	0	0	0.0000000000E+00	0.0000000000E+00	6.5000000000E+03	6.5000000000E+03	9.3827000000E-01	0.000E+00	0.0
	2212	-1	0	0	0	0	0.0000000000E+00	0.0000000000E+00	-6.5000000000E+03	6.5000000000E+03	9.3827000000E-01	0.000E+00	0.0
	2212	1	0	0	0	0	0.0000000000E+00	0.0000000000E+00	6.3278649033E+03	6.3278649033E+03	9.3827000000E-01	0.000E+00	0.0
	2212	1	0	0	0	0	0.0000000000E+00	0.0000000000E+00	-4.9059443654E+03	4.9059443654E+03	9.3827000000E-01	0.000E+00	0.0
	51	2	1	2	0	0	-4.3788296825E+02	-1.2471319864E+02	-1.4110226257E+03	1.8154479912E+03	1.0476505539E+03	0.000E+00	0.0
	1000022	2	5	5	0	0	4.3788296825E+02	1.2471319864E+02	-9.1435481584E+02	1.0729413204E+03	3.2842574819E+02	0.000E+00	0.0
	14	1	6	6	0	0	0.0000000000E+00	0.0000000000E+00	0.0000000000E+00	0.0000000000E+00	0.0000000000E+00	0.000E+00	0.0
	-14	1	6	6	0	0	0.0000000000E+00	0.0000000000E+00	0.0000000000E+00	0.0000000000E+00	0.0000000000E+00	0.000E+00	0.0
	25	2	5	5	0	0	-4.3788296825E+02	-1.2471319864E+02	-5.0756572211E+02	6.9324941083E+02	1.2520745807E+02	0.000E+00	0.0
	-5	1	9	9	0	501	-2.0034576561E+02	6.9850487420E+00	-2.2066380831E+02	2.9815634389E+02	4.1800000000E+00	0.000E+00	0.0
	5	1	9	9	501	0	-2.3753720263E+02	-1.3169824738E+02	-2.8690191379E+02	3.9509306693E+02	4.1800000000E+00	0.000E+00	0.0
</event>
<event>
    11  -1  1.0000000E+00  1.0000000E+00  -1.0000000E+00  -1.0000000E+00
	2212	-1	0	0	0	0	0.0000000000E+00	0.0000000000E+00	6.5000000000E+03	6.5000000000E+03	9.3827000000E-01	0.000E+00	0.0
	2212	-1	0	0	0	0	0.0000000000E+00	0.0000000000E+00	-6.5000000000E+03	6.5000000000E+03	9.3827000000E-01	0.000E+00	0.0
	2212	1	0	0	0	0	0.0000000000E+00	0.0000000000E+00	5.3142615805E+03	5.3142615805E+03	9.3827000000E-01	0.000E+00	0.0
	2212	1	0	0	0	0	0.0000000000E+00	0.0000000000E+00	-6.2699492822E+03	6.2699492822E+03	9.3827000000E-01	0.000E+00	0.0
	51	2	1	2	0	0	9.0007675047E+01	4.0711991318E+01	8.3587956256E+02	1.3414817886E+03	1.0445668472E+03	0.000E+00	0.0
	1000022	2	5	5	0	0	-9.0007675047E+01	-4.0711991318E+01	9.1409578745E+02	1.2509928103E+03	8.4832367353E+02	0.000E+00	0.0
	14	1	6	6	0	0	4.0766078135E+01	-9.7386458113E+00	6.7940442011E+01	3.3466045182E+02	3.2500000000E+02	0.000E+00	0.0
	-14	1	6	6	0	0	-1.3077375318E+02	-3.0973345507E+01	8.4615534544E+02	9.1633235852E+02	3.2500000000E+02	0.000E+00	0.0
	25	2	5	5	0	0	9.0007675047E+01	4.0711991318E+01	4.1591914252E+01	1.6479632703E+02	1.2517625280E+02	0.000E+00	0.0
	-5	1	9	9	0	501	5.7783575682E+01	4.9256517799E+01	-3.3069753235E+01	8.2923019381E+01	4.1800000000E+00	0.000E+00	0.0
	5	1	9	9	501	0	3.2224099365E+01	-8.5445264808E+00	7.4661667487E+01	8.1873307644E+01	4.1800000000E+00	0.000E+00	0.0
</event>
<event>
    11  -1  1.0000000E+00  1.0000000E+00  -1.0000000E+00  -1.0000000E+00
	2212	-1	0	0	0	0	0.0000000000E+00	0.0000000000E+00	6.5000000000E+03	6.5000000000E+03	9.3827000000E-01	0.000E+00	0.0
	2212	-1	0	0	0	0	0.0000000000E+00	0.0000000000E+00	-6.5000000000E+03	6.5000000000E+03	9.3827000000E-01	0.000E+00	0.0
	2212	1	0	0	0	0	0.0000000000E+00	0.0000000000E+00	5.0747200701E+03	5.0747200701E+03	9.3827000000E-01	0.000E+00	0.0
	2212	1	0	0	0	0	0.0000000000E+00	0.0000000000E+00	-6.3049179170E+03	6.3049179170E+03	9.3827000000E-01	0.000E+00	0.0
	51	2	1	2	0	0	-6.0601717833E+00	-1.3450330153E+02	1.2438410893E+03	1.6362930145E+03	1.0546024417E+03	0.000E+00	0.0
	1000022	2	5	5	0	0	6.0601717833E+00	1.3450330153E+02	1.0120844176E+03	1.3351119544E+03	8.6027972126E+02	0.000E+00	0.0
	14	1	6	6	0	0	1.8299391251E+02	-1.1152109508E+02	2.8301445634E+02	4.8129607225E+02	3.2500000000E+02	0.000E+00	0.0
	-14	1	6	6	0	0	-1.7693374072E+02	2.4602439661E+02	7.2906996122E+02	8.5381588220E+02	3.2500000000E+02	0.000E+00	0.0
	25	2	5	5	0	0	-6.0601717833E+00	-1.3450330153E+02	2.1811342933E+02	2.8525005838E+02	1.2516494696E+02	0.000E+00	0.0
	-5	1	9	9	0	501	-4.1591787919E+00	-1.2027798279E+02	2.3416564877E+02	2.6331561932E+02	4.1800000000E+00	0.000E+00	0.0
	5	1	9	9	501	0	-1.9009929915E+00	-1.4225318743E+01	-1.6052219447E+01	2.1934439060E+01	4.1800000000E+00	0.000E+00	0.0
</event>
<event>
    11  -1  1.0000000E+00  1.0000000E+00  -1.0000000E+00  -1.0000000E+00
	2212	-1	0	0	0	0	0.0000000000E+00	0.0000000000E+00	6.5000000000E+03	6.5000000000E+03	9.3827000000E-01	0.000E+00	0.0
	2212	-1	0	0	0	0	0.0000000000E+00	0.0000000000E+00	-6.5000000000E+03	6.5000000000E+03	9.3827000000E-01	0.000E+00	0.0
	2212	1	0	0	0	0	0.0000000000E+00	0.0000000000E+00	6.1394709398E+03	6.1394709398E+03	9.3827000000E-01	0.000E+00	0.0
	2212	1	0	0	0	0	0.0000000000E+00	0.0000000000E+00	-5.7291036893E+03	5.7291036893E+03	9.3827000000E-01	0.000E+00	0.0
	51	2	1	2	0	0	-1.1409408428E+02	2.4163590859E+01	-5.1287458324E+02	1.1782884906E+03	1.0543823261E+03	0.000E+00	0.0
	1000022	2	5	5	0	0	1.1409408428E+02	-2.4163590859E+01	-2.3634060305E+02	8.8737603096E+02	8.4733582509E+02	0.000E+00	0.0
	14	1	6	6	0	0	-2.7663815844E+01	1.4054009844E+02	1.0288313623E+02	3.6976579844E+02	3.2500000000E+02	0.000E+00	0.0
	-14	1	6	6	0	0	1.4175790012E+02	-1.6470368930E+02	-3.3922373928E+02	5.1761023252E+02	3.2500000000E+02	0.000E+00	0.0
	25	2	5	5	0	0	-1.1409408428E+02	2.4163590859E+01	-1.7402664739E+02	2.4404933993E+02	1.2519371840E+02	0.000E+00	0.0
	-5	1	9	9	0	501	-1.1629498297E+02	4.1366393467E+01	-1.8548965530E+02	2.2284430932E+02	4.1800000000E+00	0.000E+00	0.0
	5	1	9	9	501	0	2.2008986901E+00	-1.7202802608E+01	1.1463007914E+01	2.1205030608E+01	4.1800000000E+00	0.000E+00	0.0
</event>
<event>
    11  -1  1.0000000E+00  1.0000000E+00  -1.0000000E+00  -1.0000000E+00
	2212	-1	0	0	0	0	0.0000000000E+00	0.0000000000E+00	6.5000000000E+03	6.5000000000E+03	9.3827000000E-01	0.000E+00	0.0
	2212	-1	0	0	0	0	0.0000000000E+00	0.0000000000E+00	-6.5000000000E+03	6.5000000000E+03	9.3827000000E-01	0.000E+00	0.0
	2212	1	0	0	0	0	0.0000000000E+00	0.0000000000E+00	6.3148711882E+03	6.3148711882E+03	9.3827000000E-01	0.000E+00	0.0
	2212	1	0	0	0	0	0.0000000000E+00	0.0000000000E+00	-4.9973470531E+03	4.9973470531E+03	9.3827000000E-01	0.000E+00	0.0
	51	2	1	2	0	0	1.1141054867E+02	-2.2539455677E+01	-1.2308125561E+03	1.6249791704E+03	1.0548636966E+03	0.000E+00	0.0
	1000022	2	5	5	0	0	-1.1141054867E+02	2.2539455677E+01	-1.1897880299E+03	1.4758714368E+03	8.6584098095E+02	0.000E+00	0.0
	14	1	6	6	0	0	-1.1002692458E+02	-2.4739815884E+02	-7.7987606525E+02	8.8721105171E+02	3.2500000000E+02	0.000E+00	0.0
	-14	1	6	6	0	0	-1.3836240944E+00	2.6993761452E+02	-4.0991196469E+02	5.8866038507E+02	3.2500000000E+02	0.000E+00	0.0
	25	2	5	5	0	0	1.1141054867E+02	-2.2539455677E+01	-1.2773610517E+02	2.1191032194E+02	1.2517641376E+02	0.000E+00	0.0
	-5	1	9	9	0	501	-1.3270488212E+01	-3.7400221744E+01	-5.0772584843E+01	6.4577164815E+01	4.1800000000E+00	0.000E+00	0.0
	5	1	9	9	501	0	1.2468103689E+02	1.4860766067E+01	-7.6963520327E+01	1.4733315712E+02	4.1800000000E+00	0.000E+00	0.0
</event>
<event>
    11  -1  1.0000000E+00  1.0000000E+00  -1.0000000E+00  -1.0000000E+00
	2212	-1	0	0	0	0	0.0000000000E+00	0.0000000000E+00	6.5000000000E+03	6.5000000000E+03	9.3827000000E-01	0.000E+00	0.0
	2212	-1	0	0	0	0	0.0000000000E+00	0.0000000000E+00	-6.5000000000E+03	6.5000000000E+03	9.3827000000E-01	0.000E+00	0.0
	2212	1	0	0	0	0	0.0000000000E+00	0.0000000000E+00	5.7948087855E+03	5.7948087855E+03	9.3827000000E-01	0.000E+00	0.0
	2212	1	0	0	0	0	0.0000000000E+00	0.0000000000E+00	-6.1106796666E+03	6.1106796666E+03	9.3827000000E-01	0.000E+00	0.0
	51	2	1	2	0	0	-5.3065731945E+01	1.9852714086E+01	1.9584102666E+02	1.0675883687E+03	1.0479413700E+03	0.000E+00	0.0
	1000022	2	5	5	0	0	5.3065731945E+01	-1.9852714086E+01	3.8388509735E+02	9.4119742125E+02	8.5748161243E+02	0.000E+00	0.0
	14	1	6	6	0	0	6.2088221706E+01	-8.3655194813E+01	4.8656411587E+02	5.9432548132E+02	3.2500000000E+02	0.000E+00	0.0
	-14	1	6	6	0	0	-9.0224897606E+00	6.3802480727E+01	-1.0267901852E+02	3.4687193993E+02	3.2500000000E+02	0.000E+00	0.0
	25	2	5	5	0	0	-5.3065731945E+01	1.9852714086E+01	-6.8014216266E+01	1.5331412668E+02	1.2517661787E+02	0.000E+00	0.0
	-5	1	9	9	0	501	-7.7159409630E+01	-2.5957757733E+01	-5.8955830172E+01	1.0060140154E+02	4.1800000000E+00	0.000E+00	0.0
	5	1	9	9	501	0	2.4093677685E+01	4.5810471819E+01	-9.0583860939E+00	5.2712725136E+01	4.1800000000E+00	0.000E+00	0.0
</event>
<event>
    11  -1  1.0000000E+00  1.0000000E+00  -1.0000000E+00  -1.0000000E+00
	2212	-1	0	0	0	0	0.0000000000E+00	0.0000000000E+00	6.5000000000E+03	6.5000000000E+03	9.3827000000E-01	0.000E+00	0.0
	2212	-1	0	0	0	0	0.0000000000E+00	0.0000000000E+00	-6.5000000000E+03	6.5000000000E+03	9.3827000000E-01	0.000E+00	0.0
	2212	1	0	0	0	0	0.0000000000E+00	0.0000000000E+00	6.1951855593E+03	6.1951855593E+03	9.3827000000E-01	0.000E+00	0.0
	2212	1	0	0	0	0	0.0000000000E+00	0.0000000000E+00	-5.5908613377E+03	5.5908613377E+03	9.3827000000E-01	0.000E+00	0.0
	51	2	1	2	0	0	9.6802544872E+01	7.5129527463E+01	-5.7291531010E+02	1.2048740609E+03	1.0528410951E+03	0.000E+00	0.0
	1000022	2	5	5	0	0	-9.6802544872E+01	-7.5129527463E+01	-5.3795493612E+02	1.0266174700E+03	8.6575558784E+02	0.000E+00	0.0
	14	1	6	6	0	0	-4.6607155582E+01	1.0969686301E+02	-5.4922658002E+02	6.4921526855E+02	3.2500000000E+02	0.000E+00	0.0
	-14	1	6	6	0	0	-5.0195389290E+01	-1.8482639048E+02	1.1271643908E+01	3.7740220148E+02	3.2500000000E+02	0.000E+00	0.0
	25	2	5	5	0	0	9.6802544872E+01	7.5129527463E+01	-6.6369285494E+01	1.8733563302E+02	1.2519815794E+02	0.000E+00	0.0
	-5	1	9	9	0	501	3.6543860892E+01	7.4332371686E+01	-9.0076191114E+01	1.2244160998E+02	4.1800000000E+00	0.000E+00	0.0
	5	1	9	9	501	0	6.0258683980E+01	7.9715577737E-01	2.3706905620E+01	6.4894023040E+01	4.1800000000E+00	0.000E+00	0.0
</event>
<event>
    11  -1  1.0000000E+00  1.0000000E+00  -1.0000000E+00  -1.0000000E+00
	2212	-1	0	0	0	0	0.0000000000E+00	0.0000000000E+00	6.5000000000E+03	6.5000000000E+03	9.3827000000E-01	0.000E+00	0.0
	2212	-1	0	0	0	0	0.0000000000E+00	0.0000000000E+00	-6.5000000000E+03	6.5000000000E+03	9.3827000000E-01	0.000E+00	0.0
	2212	1	0	0	0	0	0.0000000000E+00	0.0000000000E+00	5.9189962601E+03	5.9189962601E+03	9.3827000000E-01	0.000E+00	0.0
	2212	1	0	0	0	0	0.0000000000E+00	0.0000000000E+00	-6.0262774681E+03	6.0262774681E+03	9.3827000000E-01	0.000E+00	0.0
	51	2	1	2	0	0	1.6507515482E+02	8.2835145970E+01	-1.5004659101E+01	1.0654927775E+03	1.0492560464E+03	0.000E+00	0.0
	1000022	2	5	5	0	0	-1.6507515482E+02	-8.2835145970E+01	2.0585148215E+02	8.1080188630E+02	7.6217674983E+02	0.000E+00	0.0
	14	1	6	6	0	0	-1.3767862173E+02	-3.6617534568E+01	-9.2122929323E+01	3.6661680380E+02	3.2500000000E+02	0.000E+00	0.0
	-14	1	6	6	0	0	-2.7396533099E+01	-4.6217611402E+01	2.9797441147E+02	4.4418508251E+02	3.2500000000E+02	0.000E+00	0.0
	25	2	5	5	0	0	1.6507515482E+02	8.2835145970E+01	-9.8570274112E+01	2.4392438553E+02	1.2518601666E+02	0.000E+00	0.0
	-5	1	9	9	0	501	1.0396553100E+02	1.1143755061E+02	-4.9163077300E+01	1.6019250885E+02	4.1800000000E+00	0.000E+00	0.0
	5	1	9	9	501	0	6.1109623826E+01	-2.8602404639E+01	-4.9407196811E+01	8.3731876678E+01	4.1800000000E+00	0.000E+00	0.0
</event>
<event>
    11  -1  1.0000000E+00  1.0000000E+00  -1.0000000E+00  -1.0000000E+00
	2212	-1	0	0	0	0	0.0000000000E+00	0.0000000000E+00	6.5000000000E+03	6.5000000000E+03	9.3827000000E-01	0.000E+00	0.0
	2212	-1	0	0	0	0	0.0000000000E+00	0.0000000000E+00	-6.5000000000E+03	6.5000000000E+03	9.3827000000E-01	0.000E+00	0.0
	2212	1	0	0	0	0	0.0000000000E+00	0.0000000000E+00	6.0568775288E+03	6.0568775288E+03	9.3827000000E-01	0.000E+00	0.0
	2212	1	0	0	0	0	0.0000000000E+00	0.0000000000E+00	-5.6474717609E+03	5.6474717609E+03	9.3827000000E-01	0.000E+00	0.0
	51	2	1	2	0	0	1.9338295052E+02	-1.4687839906E+02	-2.2872564789E+02	1.2737281232E+03	1.2292671314E+03	0.000E+00	0.0
	1000022	2	5	5	0	0	-1.9338295052E+02	1.4687839906E+02	-4.9288989260E+02	1.0099761156E+03	8.4743204929E+02	0.000E+00	0.0
	14	1	6	6	0	0	7.8125688037E+01	-1.4711967904E+02	-1.8324494240E+02	4.0859702888E+02	3.2500000000E+02	0.000E+00	0.0
	-14	1	6	6	0	0	-2.7150863856E+02	2.9399807811E+02	-3.0964495020E+02	6.0137908670E+02	3.2500000000E+02	0.000E+00	0.0
	25	2	5	5	0	0	1.9338295052E+02	-1.4687839906E+02	8.3484124683E+01	2.8567459472E+02	1.2518045107E+02	0.000E+00	0.0
	-5	1	9	9	0	501	1.3169783663E+01	-6.4681673975E+01	5.3979227889E+01	8.5372077364E+01	4.1800000000E+00	0.000E+00	0.0
	5	1	9	9	501	0	1.8021316686E+02	-8.2196725086E+01	2.9504896794E+01	2.0030251735E+02	4.1800000000E+00	0.000E+00	0.0
</event>
<event>
    11  -1  1.0000000E+00  1.0000000E+00  -1.0000000E+00  -1.0000000E+00
	2212	-1	0	0	0	0	0.0000000000E+00	0.0000000000E+00	6.5000000000E+03	6.5000000000E+03	9.3827000000E-01	0.000E+00	0.0
	2212	-1	0	0	0	0	0.0000000000E+00	0.0000000000E+00	-6.5000000000E+03	6.5000000000E+03	9.3827000000E-01	0.000E+00	0.0
	2212	1	0	0	0	0	0.0000000000E+00	0.0000000000E+00	5.4300898021E+03	5.4300898021E+03	9.3827000000E-01	0.000E+00	0.0
	2212	1	0	0	0	0	0.0000000000E+00	0.0000000000E+00	-6.2305078214E+03	6.2305078214E+03	9.3827000000E-01	0.000E+00	0.0
	51	2	1	2	0	0	8.8829737335E+00	1.0901648612E+02	6.5456593542E+02	1.2624380324E+03	1.0739318975E+03	0.000E+00	0.0
	1000022	2	5	5	0	0	-8.8829737335E+00	-1.0901648612E+02	8.0093694506E+02	1.1731693253E+03	8.5021336994E+02	0.000E+00	0.0
	14	1	6	6	0	0	-1.5499017663E+02	-2.8375217213E+02	3.9006300536E+02	6.0192308328E+02	3.2500000000E+02	0.000E+00	0.0
	-14	1	6	6	0	0	1.4610720290E+02	1.7473568601E+02	4.1087393970E+02	5.7124624203E+02	3.2500000000E+02	0.000E+00	0.0
	25	2	5	5	0	0	8.8829737335E+00	1.0901648612E+02	-5.1892576948E-01	1.6623305115E+02	1.2517849872E+02	0.000E+00	0.0
	-5	1	9	9	0	501	5.9074062288E+01	3.0592950645E+01	-2.2718906890E+01	7.0422259227E+01	4.1800000000E+00	0.000E+00	0.0
	5	1	9	9	501	0	-5.0191088554E+01	7.8423535474E+01	2.2199981121E+01	9.5810791919E+01	4.1800000000E+00	0.000E+00	0.0
</event>
<event>
    11  -1  1.0000000E+00  1.0000000E+00  -1.0000000E+00  -1.0000000E+00
	2212	-1	0	0	0	0	0.0000000000E+00	0.0000000000E+00	6.5000000000E+03	6.5000000000E+03	9.3827000000E-01	0.000E+00	0.0
	2212	-1	0	0	0	0	0.0000000000E+00	0.0000000000E+00	-6.5000000000E+03	6.5000000000E+03	9.3827000000E-01	0.000E+00	0.0
	2212	1	0	0	0	0	0.0000000000E+00	0.0000000000E+00	5.8857521820E+03	5.8857521820E+03	9.3827000000E-01	0.000E+00	0.0
	2212	1	0	0	0	0	0.0000000000E+00	0.0000000000E+00	-6.0555953789E+03	6.0555953789E+03	9.3827000000E-01	0.000E+00	0.0
	51	2	1	2	0	0	1.4409431716E+01	-1.5346469034E+02	1.6955335129E+02	1.0697689737E+03	1.0449393644E+03	0.000E+00	0.0
	1000022	2	5	5	0	0	-1.4409431716E+01	1.5346469034E+02	1.3969539682E+02	8.5781451219E+02	8.3220904256E+02	0.000E+00	0.0
	14	1	6	6	0	0	3.8761601542E+00	1.4466252584E+02	-1.8239854528E+02	3.9979557316E+02	3.2500000000E+02	0.000E+00	0.0
	-14	1	6	6	0	0	-1.8285591870E+01	8.8021644965E+00	3.2209394210E+02	4.5801893903E+02	3.2500000000E+02	0.000E+00	0.0
	25	2	5	5	0	0	1.4409431716E+01	-1.5346469034E+02	3.0147800047E+01	2.0083792691E+02	1.2517164269E+02	0.000E+00	0.0
	-5	1	9	9	0	501	5.7654769710E+01	-1.0454071612E+02	5.4130500133E+01	1.3115036120E+02	4.1800000000E+00	0.000E+00	0.0
	5	1	9	9	501	0	-4.3245337995E+01	-4.8923974210E+01	-2.3982700086E+01	6.9687565708E+01	4.1800000000E+00	0.000E+00	0.0
</event>
<event>
    11  -1  1.0000000E+00  1.0000000E+00  -1.0000000E+00  -1.0000000E+00
	2212	-1	0	0	0	0	0.0000000000E+00	0.0000000000E+00	6.5000000000E+03	6.5000000000E+03	9.3827000000E-01	0.000E+00	0.0
	2212	-1	0	0	0	0	0.0000000000E+00	0.0000000000E+00	-6.5000000000E+03	6.5000000000E+03	9.3827000000E-01	0.000E+00	0.0
	2212	1	0	0	0	0	0.0000000000E+00	0.0000000000E+00	6.3027838086E+03	6.3027838086E+03	9.3827000000E-01	0.000E+00	0.0
	2212	1	0	0	0	0	0.0000000000E+00	0.0000000000E+00	-5.0883351778E+03	5.0883351778E+03	9.3827000000E-01	0.000E+00	0.0
	51	2	1	2	0	0	-9.3499938419E+01	-2.3987943853E+01	-1.4035667503E+03	1.7586727727E+03	1.0552784652E+03	0.000E+00	0.0
	1000022	2	5	5	0	0	9.3499938419E+01	2.3987943853E+01	-8.1206756438E+02	1.1765621080E+03	8.4588829336E+02	0.000E+00	0.0
	14	1	6	6	0	0	1.8218851437E+02	2.3080861169E+02	-5.4559006497E+02	6.9982768521E+02	3.2500000000E+02	0.000E+00	0.0
	-14	1	6	6	0	0	-8.8688575952E+01	-2.0682066783E+02	-2.6647749942E+02	4.7673442276E+02	3.2500000000E+02	0.000E+00	0.0
	25	2	5	5	0	0	-9.3499938419E+01	-2.3987943853E+01	-4.0238106642E+02	4.3231890564E+02	1.2518567657E+02	0.000E+00	0.0
	-5	1	9	9	0	501	-9.9891501145E+01	-1.1932085067E+01	-4.0541278387E+02	4.1772919982E+02	4.1800000000E+00	0.000E+00	0.0
	5	1	9	9	501	0	6.3915627255E+00	-1.2055858786E+01	3.0317174473E+00	1.4589705817E+01	4.1800000000E+00	0.000E+00	0.0
</event>
<event>
    11  -1  1.0000000E+00  1.0000000E+00  -1.0000000E+00  -1.0000000E+00
	2212	-1	0	0	0	0	0.0000000000E+00	0.0000000000E+00	6.5000000000E+03	6.5000000000E+03	9.3827000000E-01	0.000E+00	0.0
	2212	-1	0	0	0	0	0.0000000000E+00	0.0000000000E+00	-6.5000000000E+03	6.5000000000E+03	9.3827000000E-01	0.000E+00	0.0
	2212	1	0	0	0	0	0.0000000000E+00	0.0000000000E+00	6.2543236671E+03	6.2543236671E+03	9.3827000000E-01	0.000E+00	0.0
	2212	1	0	0	0	0	0.0000000000E+00	0.0000000000E+00	-5.3556572256E+03	5.3556572256E+03	9.3827000000E-01	0.000E+00	0.0
	51	2	1	2	0	0	9.5829811154E+01	-1.1918514479E+02	-8.5616776759E+02	1.3714822067E+03	1.0604488416E+03	0.000E+00	0.0
	1000022	2	5	5	0	0	-9.5829811154E+01	1.1918514479E+02	-7.8021172760E+02	1.1596001395E+03	8.4412895474E+02	0.000E+00	0.0
	14	1	6	6	0	0	-4.2724354179E+00	-1.3452417007E+02	-1.1211437554E+02	3.6920135325E+02	3.2500000000E+02	0.000E+00	0.0
	-14	1	6	6	0	0	-9.1557375736E+01	2.5370931486E+02	-6.6809735206E+02	7.9039878626E+02	3.2500000000E+02	0.000E+00	0.0
	25	2	5	5	0	0	9.5829811154E+01	-1.1918514479E+02	-1.1845471384E+02	2.3041896778E+02	1.2519157335E+02	0.000E+00	0.0
	-5	1	9	9	0	501	6.6376758023E+00	-9.2764911580E+01	-9.7827754987E+01	1.3504491700E+02	4.1800000000E+00	0.000E+00	0.0
	5	1	9	9	501	0	8.9192135352E+01	-2.6420233210E+01	-2.0626958857E+01	9.5374050785E+01	4.1800000000E+00	0.000E+00	0.0
</event>
<event>
    11  -1  1.0000000E+00  1.0000000E+00  -1.0000000E+00  -1.0000000E+00
	2212	-1	0	0	0	0	0.0000000000E+00	0.0000000000E+00	6.5000000000E+03	6.5000000000E+03	9.3827000000E-01	0.000E+00	0.0
	2212	-1	0	0	0	0	0.0000000000E+00	0.0000000000E+00	-6.5000000000E+03	6.5000000000E+03	9.3827000000E-01	0.000E+00	0.0
	2212	1	0	0	0	0	0.0000000000E+00	0.0000000000E+00	5.3903895334E+03	5.3903895334E+03	9.3827000000E-01	0.000E+00	0.0
	2212	1	0	0	0	0	0.0000000000E+00	0.0000000000E+00	-6.2581467346E+03	6.2581467346E+03	9.3827000000E-01	0.000E+00	0.0
	51	2	1	2	0	0	6.8560349820E+01	-2.2120078819E+01	1.0367153240E+03	1.4674536248E+03	1.0360751221E+03	0.000E+00	0.0
	1000022	2	5	5	0	0	-6.8560349820E+01	2.2120078819E+01	5.4798430932E+02	1.0005916735E+03	8.3409056720E+02	0.000E+00	0.0
	14	1	6	6	0	0	2.9201882323E+01	1.8620720989E+02	4.9268234905E+02	6.1958596822E+02	3.2500000000E+02	0.000E+00	0.0
	-14	1	6	6	0	0	-9.7762232144E+01	-1.6408713107E+02	5.5301960269E+01	3.8100570524E+02	3.2500000000E+02	0.000E+00	0.0
	25	2	5	5	0	0	6.8560349820E+01	-2.2120078819E+01	3.1977289187E+02	3.5087205849E+02	1.2516660736E+02	0.000E+00	0.0
	-5	1	9	9	0	501	5.8560563431E+01	3.8412013099E+01	9.6649802862E+01	1.1942980839E+02	4.1800000000E+00	0.000E+00	0.0
	5	1	9	9	501	0	9.9997863895E+00	-6.0532091918E+01	2.2312308901E+02	2.3144225010E+02	4.1800000000E+00	0.000E+00	0.0
</event>
<event>
    11  -1  1.0000000E+00  1.0000000E+00  -1.0000000E+00  -1.0000000E+00
	2212	-1	0	0	0	0	0.0000000000E+00	0.0000000000E+00	6.5000000000E+03	6.5000000000E+03	9.3827000000E-01	0.000E+00	0.0
	2212	-1	0	0	0	0	0.0000000000E+00	0.0000000000E+00	-6.5000000000E+03	6.5000000000E+03	9.3827000000E-01	0.000E+00	0.0
	2212	1	0	0	0	0	0.0000000000E+00	0.0000000000E+00	6.1751849948E+03	6.1751849948E+03	9.3827000000E-01	0.000E+00	0.0
	2212	1	0	0	0	0	0.0000000000E+00	0.0000000000E+00	-5.6470372973E+03	5.6470372973E+03	9.3827000000E-01	0.000E+00	0.0
	51	2	1	2	0	0	-4.1864094268E+01	-1.4825273584E+02	-5.3873864422E+02	1.1925565571E+03	1.0527204467E+03	0.000E+00	0.0
	1000022	2	5	5	0	0	4.1864094268E+01	1.4825273584E+02	-4.2357575747E+02	9.5341975943E+02	8.4015554469E+02	0.000E+00	0.0
	14	1	6	6	0	0	-1.1197665572E+02	2.0549710033E+02	-4.3218612104E+02	5.8921784842E+02	3.2500000000E+02	0.000E+00	0.0
	-14	1	6	6	0	0	1.5384074999E+02	-5.7244364497E+01	8.6103635655E+00	3.6420191101E+02	3.2500000000E+02	0.000E+00	0.0
	25	2	5	5	0	0	-4.1864094268E+01	-1.4825273584E+02	-1.0457193998E+02	2.2435794851E+02	1.2517876160E+02	0.000E+00	0.0
	-5	1	9	9	0	501	-3.6167744222E+01	8.6334833145E+00	-3.4599150098E+00	3.7577735005E+01	4.1800000000E+00	0.000E+00	0.0
	5	1	9	9	501	0	-5.6963500467E+00	-1.5688621915E+02	-1.0111202497E+02	1.8678021350E+02	4.1800000000E+00	0.000E+00	0.0
</event>
<event>
    11  -1  1.0000000E+00  1.0000000E+00  -1.0000000E+00  -1.0000000E+00
	2212	-1	0	0	0	0	0.0000000000E+00	0.0000000000E+00	6.5000000000E+03	6.5000000000E+03	9.3827000000E-01	0.000E+00	0.0
	2212	-1	0	0	0	0	0.0000000000E+00	0.0000000000E+00	-6.5000000000E+03	6.5000000000E+03	9.3827000000E-01	0.000E+00	0.0
	2212	1	0	0	0	0	0.0000000000E+00	0.0000000000E+00	6.2575324683E+03	6.2575324683E+03	9.3827000000E-01	0.000E+00	0.0
	2212	1	0	0	0	0	0.0000000000E+00	0.0000000000E+00	-5.3570356874E+03	5.3570356874E+03	9.3827000000E-01	0.000E+00	0.0
	51	2	1	2	0	0	2.5469440462E+01	6.7624557782E+01	-7.5105732491E+02	1.2953130205E+03	1.0528660611E+03	0.000E+00	0.0
	1000022	2	5	5	0	0	-2.5469440462E+01	-6.7624557782E+01	-8.9739186075E+02	1.2408581729E+03	8.5392920096E+02	0.000E+00	0.0
	14	1	6	6	0	0	1.9489027082E+02	-2.7676046290E+01	-1.7642492171E+02	4.1892592925E+02	3.2500000000E+02	0.000E+00	0.0
	-14	1	6	6	0	0	-2.2035971128E+02	-3.9948511492E+01	-7.2096693905E+02	8.2193224363E+02	3.2500000000E+02	0.000E+00	0.0
	25	2	5	5	0	0	2.5469440462E+01	6.7624557782E+01	-3.1049201221E+00	1.4457367135E+02	1.2518040065E+02	0.000E+00	0.0
	-5	1	9	9	0	501	-3.6135481179E+01	5.6320540096E+01	-3.3363038258E+01	7.4888857372E+01	4.1800000000E+00	0.000E+00	0.0
	5	1	9	9	501	0	6.1604921641E+01	1.1304017686E+01	3.0258118136E+01	6.9684813980E+01	4.1800000000E+00	0.000E+00	0.0
</event>
<event>
    11  -1  1.0000000E+00  1.0000000E+00  -1.0000000E+00  -1.0000000E+00
	2212	-1	0	0	0	0	0.0000000000E+00	0.0000000000E+00	6.5000000000E+03	6.5000000000E+03	9.3827000000E-01	0.000E+00	0.0
	2212	-1	0	0	0	0	0.0000000000E+00	0.0000000000E+00	-6.5000000000E+03	6.5000000000E+03	9.3827000000E-01	0.000E+00	0.0
	2212	1	0	0	0	0	0.0000000000E+00	0.0000000000E+00	5.2423139563E+03	5.2423139563E+03	9.3827000000E-01	0.000E+00	0.0
	2212	1	0	0	0	0	0.0000000000E+00	0.0000000000E+00	-6.2812384715E+03	6.2812384715E+03	9.3827000000E-01	0.000E+00	0.0
	51	2	1	2	0	0	-7.2164245661E+01	-7.5930348579E+01	9.3228579408E+02	1.4073603601E+03	1.0490630511E+03	0.000E+00	0.0
	1000022	2	5	5	0	0	7.2164245661E+01	7.5930348579E+01	9.7310023061E+02	1.3004423041E+03	8.5630195103E+02	0.000E+00	0.0
	14	1	6	6	0	0	-1.5366752512E+01	-2.0070666849E+02	6.6423580956E+02	7.6638992331E+02	3.2500000000E+02	0.000E+00	0.0
	-14	1	6	6	0	0	8.7530998173E+01	2.7663701707E+02	3.0886442106E+02	5.3405238081E+02	3.2500000000E+02	0.000E+00	0.0
	25	2	5	5	0	0	-7.2164245661E+01	-7.5930348579E+01	6.5824284633E+01	1.7600526810E+02	1.2518754636E+02	0.000E+00	0.0
	-5	1	9	9	0	501	2.0452780374E+01	1.9384180857E+01	2.2029545968E+01	3.6011609074E+01	4.1800000000E+00	0.000E+00	0.0
	5	1	9	9	501	0	-9.2617026035E+01	-9.5314529436E+01	4.3794738665E+01	1.3999365903E+02	4.1800000000E+00	0.000E+00	0.0
</event>
<event>
    11  -1  1.0000000E+00  1.0000000E+00  -1.0000000E+00  -1.0000000E+00
	2212	-1	0	0	0	0	0.0000000000E+00	0.0000000000E+00	6.5000000000E+03	6.5000000000E+03	9.3827000000E-01	0.000E+00	0.0
	2212	-1	0	0	0	0	0.0000000000E+00	0.0000000000E+00	-6.5000000000E+03	6.5000000000E+03	9.3827000000E-01	0.000E+00	0.0
	2212	1	0	0	0	0	0.0000000000E+00	0.0000000000E+00	5.7359017683E+03	5.7359017683E+03	9.3827000000E-01	0.000E+00	0.0
	2212	1	0	0	0	0	0.0000000000E+00	0.0000000000E+00	-6.1409786297E+03	6.1409786297E+03	9.3827000000E-01	0.000E+00	0.0
	51	2	1	2	0	0	-4.7766132057E+01	-4.9566061576E+01	5.2991296723E+02	1.1759492028E+03	1.0475258359E+03	0.000E+00	0.0
	1000022	2	5	5	0	0	4.7766132057E+01	4.9566061576E+01	2.1293978891E+02	8.8369076036E+02	8.5488455853E+02	0.000E+00	0.0
	14	1	6	6	0	0	-1.6416600573E+02	-1.4086274349E+02	2.2634421010E+02	4.5127540525E+02	3.2500000000E+02	0.000E+00	0.0
	-14	1	6	6	0	0	2.1193213778E+02	1.9042880507E+02	-1.3404421195E+01	4.3241535511E+02	3.2500000000E+02	0.000E+00	0.0
	25	2	5	5	0	0	-4.7766132057E+01	-4.9566061576E+01	1.9213707247E+02	2.3942884167E+02	1.2518433517E+02	0.000E+00	0.0
	-5	1	9	9	0	501	-4.0002482179E+01	-8.1040297483E+01	1.8505154868E+02	2.0598368009E+02	4.1800000000E+00	0.000E+00	0.0
	5	1	9	9	501	0	-7.7636498787E+00	3.1474235907E+01	7.0855237974E+00	3.3445161576E+01	4.1800000000E+00	0.000E+00	0.0
</event>
<event>
    11  -1  1.0000000E+00  1.0000000E+00  -1.0000000E+00  -1.0000000E+00
	2212	-1	0	0	0	0	0.0000000000E+00	0.0000000000E+00	6.5000000000E+03	6.5000000000E+03	9.3827000000E-01	0.000E+00	0.0
	2212	-1	0	0	0	0	0.0000000000E+00	0.0000000000E+00	-6.5000000000E+03	6.5000000000E+03	9.3827000000E-01	0.000E+00	0.0
	2212	1	0	0	0	0	0.0000000000E+00	0.0000000000E+00	5.7837939972E+03	5.7837939972E+03	9.3827000000E-01	0.000E+00	0.0
	2212	1	0	0	0	0	0.0000000000E+00	0.0000000000E+00	-6.1009528751E+03	6.1009528751E+03	9.3827000000E-01	0.000E+00	0.0
	51	2	1	2	0	0	-1.8527267207E+00	-2.1959892392E+01	2.0531822856E+02	1.0889632820E+03	1.0692052119E+03	0.000E+00	0.0
	1000022	2	5	5	0	0	1.8527267207E+00	2.1959892392E+01	3.8106669230E+02	9.7299261049E+02	8.9499560145E+02	0.000E+00	0.0
	14	1	6	6	0	0	-3.0105548364E+02	-3.7587090226E+01	1.5403075396E+02	4.7052913486E+02	3.2500000000E+02	0.000E+00	0.0
	-14	1	6	6	0	0	3.0290821036E+02	5.9546982618E+01	2.2703593834E+02	5.0246347563E+02	3.2500000000E+02	0.000E+00	0.0
	25	2	5	5	0	0	-1.8527267207E+00	-2.1959892392E+01	-6.3907814448E+01	1.4226051724E+02	1.2517258704E+02	0.000E+00	0.0
	-5	1	9	9	0	501	1.8136150652E+00	-5.1905860316E+01	1.7798840715E+01	5.5061589748E+01	4.1800000000E+00	0.000E+00	0.0
	5	1	9	9	501	0	-3.6663417859E+00	2.9945967924E+01	-8.1706655163E+01	8.7198927488E+01	4.1800000000E+00	0.000E+00	0.0
</event>
<event>
    11  -1  1.0000000E+00  1.0000000E+00  -1.0000000E+00  -1.0000000E+00
	2212	-1	0	0	0	0	0.0000000000E+00	0.0000000000E+00	6.5000000000E+03	6.5000000000E+03	9.3827000000E-01	0.000E+00	0.0
	2212	-1	0	0	0	0	0.0000000000E+00	0.0000000000E+00	-6.5000000000E+03	6.5000000000E+03	9.3827000000E-01	0.000E+00	0.0
	2212	1	0	0	0	0	0.0000000000E+00	0.0000000000E+00	6.1065522414E+03	6.1065522414E+03	9.3827000000E-01	0.000E+00	0.0
	2212	1	0	0	0	0	0.0000000000E+00	0.0000000000E+00	-5.7967038136E+03	5.7967038136E+03	9.3827000000E-01	0.000E+00	0.0
	51	2	1	2	0	0	8.1820885774E+01	-1.0830343265E+02	-3.3527140797E+02	1.1125072766E+03	1.0520652226E+03	0.000E+00	0.0
	1000022	2	5	5	0	0	-8.1820885774E+01	1.0830343265E+02	-2.3229766232E+02	8.9646835600E+02	8.5514268898E+02	0.000E+00	0.0
	14	1	6	6	0	0	4.8807435363E+01	1.6383377920E+02	-3.6504879525E+02	5.1779271516E+02	3.2500000000E+02	0.000E+00	0.0
	-14	1	6	6	0	0	-1.3062832114E+02	-5.5530346556E+01	1.3275113293E+02	3.7867564084E+02	3.2500000000E+02	0.000E+00	0.0
	25	2	5	5	0	0	8.1820885774E+01	-1.0830343265E+02	-7.7550765452E+01	2.0027558898E+02	1.2518745722E+02	0.000E+00	0.0
	-5	1	9	9	0	501	1.1114763318E+02	-6.8419458491E+01	-7.4860840817E+01	1.5052121628E+02	4.1800000000E+00	0.000E+00	0.0
	5	1	9	9	501	0	-2.9326747408E+01	-3.9883974156E+01	-2.6899246343E+00	4.9754372698E+01	4.1800000000E+00	0.000E+00	0.0
</event>
<event>
    11  -1  1.0000000E+00  1.0000000E+00  -1.0000000E+00  -1.0000000E+00
	2212	-1	0	0	0	0	0.0000000000E+00	0.0000000000E+00	6.5000000000E+03	6.5000000000E+03	9.3827000000E-01	0.000E+00	0.0
	2212	-1	0	0	0	0	0.0000000000E+00	0.0000000000E+00	-6.5000000000E+03	6.5000000000E+03	9.3827000000E-01	0.000E+00	0.0
	2212	1	0	0	0	0	0.0000000000E+00	0.0000000000E+00	6.2588869423E+03	6.2588869423E+03	9.3827000000E-01	0.000E+00	0.0
	2212	1	0	0	0	0	0.0000000000E+00	0.0000000000E+00	-5.3547915310E+03	5.3547915310E+03	9.3827000000E-01	0.000E+00	0.0
	51	2	1	2	0	0	1.0900861741E+02	-5.5112619791E+01	-1.0328519816E+03	1.4785811977E+03	1.0509514084E+03	0.000E+00	0.0
	1000022	2	5	5	0	0	-1.0900861741E+02	5.5112619791E+01	-6.1534021268E+02	1.0487232113E+03	8.4039069311E+02	0.000E+00	0.0
	14	1	6	6	0	0	1.9711082509E+02	-5.3927339719E+01	-3.4096038029E+02	5.1345868020E+02	3.2500000000E+02	0.000E+00	0.0
	-14	1	6	6	0	0	-3.0611944250E+02	1.0903995951E+02	-2.7437983239E+02	5.3526453111E+02	3.2500000000E+02	0.000E+00	0.0
	25	2	5	5	0	0	1.0900861741E+02	-5.5112619791E+01	-2.8875519862E+02	3.3759831545E+02	1.2519096748E+02	0.000E+00	0.0
	-5	1	9	9	0	501	7.9714265181E+01	-9.5703244210E+01	-2.0197859510E+02	2.3733162516E+02	4.1800000000E+00	0.000E+00	0.0
	5	1	9	9	501	0	2.9294352226E+01	4.0590624419E+01	-8.6776603521E+01	1.0026669029E+02	4.1800000000E+00	0.000E+00	0.0
</event>
<event>
    11  -1  1.0000000E+00  1.0000000E+00  -1.0000000E+00  -1.0000000E+00
	2212	-1	0	0	0	0	0.0000000000E+00	0.0000000000E+00	6.5000000000E+03	6.5000000000E+03	9.3827000000E-01	0.000E+00	0.0
	2212	-1	0	0	0	0	0.0000000000E+00	0.0000000000E+00	-6.5000000000E+03	6.5000000000E+03	9.3827000000E-01	0.000E+00	0.0
	2212	1	0	0	0	0	0.0000000000E+00	0.0000000000E+00	5.1776963206E+03	5.1776963206E+03	9.3827000000E-01	0.000E+00	0.0
	2212	1	0	0	0	0	0.0000000000E+00	0.0000000000E+00	-6.2952885957E+03	6.2952885957E+03	9.3827000000E-01	0.000E+00	0.0
	51	2	1	2	0	0	-1.0155079830E+02	-5.8198904299E+00	1.0457382603E+03	1.4787418696E+03	1.0405587789E+03	0.000E+00	0.0
	1000022	2	5	5	0	0	1.0155079830E+02	5.8198904299E+00	1.0136620241E+03	1.3351065860E+03	8.6293247780E+02	0.000E+00	0.0
	14	1	6	6	0	0	-3.2484205633E+01	-2.6701854632E+02	4.4784852511E+02	6.1526208166E+02	3.2500000000E+02	0.000E+00	0.0
	-14	1	6	6	0	0	1.3403500393E+02	2.7283843675E+02	5.6581349895E+02	7.1984450435E+02	3.2500000000E+02	0.000E+00	0.0
	25	2	5	5	0	0	-1.0155079830E+02	-5.8198904299E+00	1.0393025108E+02	1.9190849765E+02	1.2522355458E+02	0.000E+00	0.0
	-5	1	9	9	0	501	-1.0262056271E+02	-1.3325532727E+01	1.2897459201E+02	1.6540999817E+02	4.1800000000E+00	0.000E+00	0.0
	5	1	9	9	501	0	1.0697644093E+00	7.5056422966E+00	-2.5044340924E+01	2.6498499476E+01	4.1800000000E+00	0.000E+00	0.0
</event>
<event>
    11  -1  1.0000000E+00  1.0000000E+00  -1.0000000E+00  -1.0000000E+00
	2212	-1	0	0	0	0	0.0000000000E+00	0.0000000000E+00	6.5000000000E+03	6.5000000000E+03	9.3827000000E-01	0.000E+00	0.0
	2212	-1	0	0	0	0	0.0000000000E+00	0.0000000000E+00	-6.5000000000E+03	6.5000000000E+03	9.3827000000E-01	0.000E+00	0.0
	2212	1	0	0	0	0	0.0000000000E+00	0.0000000000E+00	6.1878701571E+03	6.1878701571E+03	9.3827000000E-01	0.000E+00	0.0
	2212	1	0	0	0	0	0.0000000000E+00	0.0000000000E+00	-5.6295029048E+03	5.6295029048E+03	9.3827000000E-01	0.000E+00	0.0
	51	2	1	2	0	0	-1.0266287464E+02	2.6620416252E+00	-4.7722962678E+02	1.1511417615E+03	1.0425125832E+03	0.000E+00	0.0
	1000022	2	5	5	0	0	1.0266287464E+02	-2.6620416252E+00	-5.4803673196E+02	1.0203817464E+03	8.5456883661E+02	0.000E+00	0.0
	14	1	6	6	0	0	1.7280001229E+02	-1.4761503837E+01	1.2448260241E+01	3.6858880263E+02	3.2500000000E+02	0.000E+00	0.0
	-14	1	6	6	0	0	-7.0137137643E+01	1.2099462212E+01	-5.6048499220E+02	6.5179294377E+02	3.2500000000E+02	0.000E+00	0.0
	25	2	5	5	0	0	-1.0266287464E+02	2.6620416252E+00	-1.0330520389E+01	1.6224519165E+02	1.2517999148E+02	0.000E+00	0.0
	-5	1	9	9	0	501	-1.0071585105E+02	4.8112916505E+01	1.0197956290E+01	1.1216062634E+02	4.1800000000E+00	0.000E+00	0.0
	5	1	9	9	501	0	-1.9470235919E+00	-4.5450874880E+01	-2.0528476679E+01	5.0084565317E+01	4.1800000000E+00	0.000E+00	0.0
</event>
<event>
    11  -1  1.0000000E+00  1.0000000E+00  -1.0000000E+00  -1.0000000E+00
	2212	-1	0	0	0	0	0.0000000000E+00	0.0000000000E+00	6.5000000000E+03	6.5000000000E+03	9.3827000000E-01	0.000E+00	0.0
	2212	-1	0	0	0	0	0.0000000000E+00	0.0000000000E+00	-6.5000000000E+03	6.5000000000E+03	9.3827000000E-01	0.000E+00	0.0
	2212	1	0	0	0	0	0.0000000000E+00	0.0000000000E+00	6.2958520425E+03	6.2958520425E+03	9.3827000000E-01	0.000E+00	0.0
	2212	1	0	0	0	0	0.0000000000E+00	0.0000000000E+00	-5.1632470858E+03	5.1632470858E+03	9.3827000000E-01	0.000E+00	0.0
	51	2	1	2	0	0	6.5826649483E+01	1.2085311340E+02	-1.1948667936E+03	1.5931813412E+03	1.0447877816E+03	0.000E+00	0.0
	1000022	2	5	5	0	0	-6.5826649483E+01	-1.2085311340E+02	-8.7552966438E+02	1.2235781019E+03	8.4359501864E+02	0.000E+00	0.0
	14	1	6	6	0	0	2.0302727655E+02	6.5421039414E+01	-3.3570242385E+02	5.1363518649E+02	3.2500000000E+02	0.000E+00	0.0
	-14	1	6	6	0	0	-2.6885392603E+02	-1.8627415281E+02	-5.3982724053E+02	7.0994291543E+02	3.2500000000E+02	0.000E+00	0.0
	25	2	5	5	0	0	6.5826649483E+01	1.2085311340E+02	-2.5707529225E+02	3.1732276980E+02	1.2516953124E+02	0.000E+00	0.0
	-5	1	9	9	0	501	1.1935113832E+00	-7.2216063844E+00	1.0633758037E+01	1.3569276995E+01	4.1800000000E+00	0.000E+00	0.0
	5	1	9	9	501	0	6.4633138100E+01	1.2807471978E+02	-2.6770905029E+02	3.0375349281E+02	4.1800000000E+00	0.000E+00	0.0
</event>
<event>
    11  -1  1.0000000E+00  1.0000000E+00  -1.0000000E+00  -1.0000000E+00
	2212	-1	0	0	0	0	0.0000000000E+00	0.0000000000E+00	6.5000000000E+03	6.5000000000E+03	9.3827000000E-01	0.000E+00	0.0
	2212	-1	0	0	0	0	0.0000000000E+00	0.0000000000E+00	-6.5000000000E+03	6.5000000000E+03	9.3827000000E-01	0.000E+00	0.0
	2212	1	0	0	0	0	0.0000000000E+00	0.0000000000E+00	5.5510237508E+03	5.5510237508E+03	9.3827000000E-01	0.000E+00	0.0
	2212	1	0	0	0	0	0.0000000000E+00	0.0000000000E+00	-6.2104230218E+03	6.2104230218E+03	9.3827000000E-01	0.000E+00	0.0
	51	2	1	2	0	0	7.2914466306E+01	1.0935563282E+02	7.2132454231E+02	1.2793713174E+03	1.0484305884E+03	0.000E+00	0.0
	1000022	2	5	5	0	0	-7.2914466306E+01	-1.0935563282E+02	4.8529831120E+02	9.8703493332E+02	8.4938114820E+02	0.000E+00	0.0
	14	1	6	6	0	0	2.0409687145E+02	-4.4169971196E+01	3.8112758317E+02	5.4266910170E+02	3.2500000000E+02	0.000E+00	0.0
	-14	1	6	6	0	0	-2.7701133776E+02	-6.5185661621E+01	1.0417072803E+02	4.4436583161E+02	3.2500000000E+02	0.000E+00	0.0
	25	2	5	5	0	0	7.2914466306E+01	1.0935563282E+02	1.7410095981E+02	2.5151829416E+02	1.2520037645E+02	0.000E+00	0.0
	-5	1	9	9	0	501	1.0292758551E+02	5.0595480027E+01	1.0012284339E+02	1.5230248398E+02	4.1800000000E+00	0.000E+00	0.0
	5	1	9	9	501	0	-3.0013119200E+01	5.8760152790E+01	7.3978116423E+01	9.9215810179E+01	4.1800000000E+00	0.000E+00	0.0
</event>
<event>
    11  -1  1.0000000E+00  1.0000000E+00  -1.0000000E+00  -1.0000000E+00
	2212	-1	0	0	0	0	0.0000000000E+00	0.0000000000E+00	6.5000000000E+03	6.5000000000E+03	9.3827000000E-01	0.000E+00	0.0
	2212	-1	0	0	0	0	0.0000000000E+00	0.0000000000E+00	-6.5000000000E+03	6.5000000000E+03	9.3827000000E-01	0.000E+00	0.0
	2212	1	0	0	0	0	0.0000000000E+00	0.0000000000E+00	5.7977625112E+03	5.7977625112E+03	9.3827000000E-01	0.000E+00	0.0
	2212	1	0	0	0	0	0.0000000000E+00	0.0000000000E+00	-6.1069178562E+03	6.1069178562E+03	9.3827000000E-01	0.000E+00	0.0
	51	2	1	2	0	0	-1.2879622496E+02	-5.9387596965E+00	2.6159686472E+02	1.0905066375E+03	1.0507845023E+03	0.000E+00	0.0
	1000022	2	5	5	0	0	1.2879622496E+02	5.9387596965E+00	3.0461681517E+02	9.1555591313E+02	8.5371393895E+02	0.000E+00	0.0
	14	1	6	6	0	0	-4.8266678552E+01	-1.4719296679E+02	3.6244797310E+02	5.1087080063E+02	3.2500000000E+02	0.000E+00	0.0
	-14	1	6	6	0	0	1.7706290351E+02	1.5313172648E+02	-5.7831157928E+01	4.0468511251E+02	3.2500000000E+02	0.000E+00	0.0
	25	2	5	5	0	0	-1.2879622496E+02	-5.9387596965E+00	4.5385297929E+00	1.7976371949E+02	1.2518250741E+02	0.000E+00	0.0
	-5	1	9	9	0	501	-3.2382876371E+01	2.9570861170E+01	-4.7274845497E+01	6.4617876236E+01	4.1800000000E+00	0.000E+00	0.0
	5	1	9	9	501	0	-9.6413348590E+01	-3.5509620867E+01	5.1813375290E+01	1.1514584326E+02	4.1800000000E+00	0.000E+00	0.0
</event>
<event>
    11  -1  1.0000000E+00  1.0000000E+00  -1.0000000E+00  -1.0000000E+00
	2212	-1	0	0	0	0	0.0000000000E+00	0.0000000000E+00	6.5000000000E+03	6.5000000000E+03	9.3827000000E-01	0.000E+00	0.0
	2212	-1	0	0	0	0	0.0000000000E+00	0.0000000000E+00	-6.5000000000E+03	6.5000000000E+03	9.3827000000E-01	0.000E+00	0.0
	2212	1	0	0	0	0	0.0000000000E+00	0.0000000000E+00	5.9005174185E+03	5.9005174185E+03	9.3827000000E-01	0.000E+00	0.0
	2212	1	0	0	0	0	0.0000000000E+00	0.0000000000E+00	-6.0520650889E+03	6.0520650889E+03	9.3827000000E-01	0.000E+00	0.0
	51	2	1	2	0	0	-8.5776091199E+01	6.6406544686E+01	7.9333203343E+01	1.0450731226E+03	1.0363960186E+03	0.000E+00	0.0
	1000022	2	5	5	0	0	8.5776091199E+01	-6.6406544686E+01	1.9851314854E+02	8.7525418111E+02	8.4551466244E+02	0.000E+00	0.0
	14	1	6	6	0	0	3.0330394361E+02	3.9250466883E+01	8.2131389371E+01	4.5376695172E+02	3.2500000000E+02	0.000E+00	0.0
	-14	1	6	6	0	0	-2.1752785241E+02	-1.0565701157E+02	1.1638175917E+02	4.2148722938E+02	3.2500000000E+02	0.000E+00	0.0
	25	2	5	5	0	0	-8.5776091199E+01	6.6406544686E+01	-4.6965478174E+01	1.7216331147E+02	1.2516821752E+02	0.000E+00	0.0
	-5	1	9	9	0	501	-1.1747364858E+02	5.4460920478E+01	-2.6082450523E+01	1.3215073437E+02	4.1800000000E+00	0.000E+00	0.0
	5	1	9	9	501	0	3.1697557382E+01	1.1945624208E+01	-2.0883027651E+01	4.0012577092E+01	4.1800000000E+00	0.000E+00	0.0
</event>
<event>
    11  -1  1.0000000E+00  1.0000000E+00  -1.0000000E+00  -1.0000000E+00
	2212	-1	0	0	0	0	0.0000000000E+00	0.0000000000E+00	6.5000000000E+03	6.5000000000E+03	9.3827000000E-01	0.000E+00	0.0
	2212	-1	0	0	0	0	0.0000000000E+00	0.0000000000E+00	-6.5000000000E+03	6.5000000000E+03	9.3827000000E-01	0.000E+00	0.0
	2212	1	0	0	0	0	0.0000000000E+00	0.0000000000E+00	6.2824234223E+03	6.2824234223E+03	9.3827000000E-01	0.000E+00	0.0
	2212	1	0	0	0	0	0.0000000000E+00	0.0000000000E+00	-5.2995002126E+03	5.2995002126E+03	9.3827000000E-01	0.000E+00	0.0
	51	2	1	2	0	0	8.7380583432E+01	-7.3042284317E+01	-1.0443909334E+03	1.4657849449E+03	1.0221558302E+03	0.000E+00	0.0
	1000022	2	5	5	0	0	-8.7380583432E+01	7.3042284317E+01	-7.6117010157E+02	1.1391219332E+03	8.3979063674E+02	0.000E+00	0.0
	14	1	6	6	0	0	-1.1422206100E+02	8.6036635927E+01	-7.2937672049E+02	8.1121167542E+02	3.2500000000E+02	0.000E+00	0.0
	-14	1	6	6	0	0	2.6841477567E+01	-1.2994351609E+01	-3.1793381081E+01	3.2791025780E+02	3.2500000000E+02	0.000E+00	0.0
	25	2	5	5	0	0	8.7380583432E+01	-7.3042284317E+01	-2.2175310809E+02	2.7895443190E+02	1.2518223703E+02	0.000E+00	0.0
	-5	1	9	9	0	501	6.6750208881E+01	-1.0768907363E+02	-1.4865384674E+02	1.9536623433E+02	4.1800000000E+00	0.000E+00	0.0
	5	1	9	9	501	0	2.0630374551E+01	3.4646789308E+01	-7.3099261352E+01	8.3588197574E+01	4.1800000000E+00	0.000E+00	0.0
</event>
<event>
    11  -1  1.0000000E+00  1.0000000E+00  -1.0000000E+00  -1.0000000E+00
	2212	-1	0	0	0	0	0.0000000000E+00	0.0000000000E+00	6.5000000000E+03	6.5000000000E+03	9.3827000000E-01	0.000E+00	0.0
	2212	-1	0	0	0	0	0.0000000000E+00	0.0000000000E+00	-6.5000000000E+03	6.5000000000E+03	9.3827000000E-01	0.000E+00	0.0
	2212	1	0	0	0	0	0.0000000000E+00	0.0000000000E+00	6.0706512482E+03	6.0706512482E+03	9.3827000000E-01	0.000E+00	0.0
	2212	1	0	0	0	0	0.0000000000E+00	0.0000000000E+00	-5.8789196165E+03	5.8789196165E+03	9.3827000000E-01	0.000E+00	0.0
	51	2	1	2	0	0	-5.4113967550E+01	-5.1714857834E+00	-3.1298438372E+02	1.0805344233E+03	1.0327828183E+03	0.000E+00	0.0
	1000022	2	5	5	0	0	5.4113967550E+01	5.1714857834E+00	-3.8527650634E+01	8.4527447389E+02	8.4264434407E+02	0.000E+00	0.0
	14	1	6	6	0	0	1.0651085241E+02	2.5375879235E+02	3.0790206653E+01	4.2697906647E+02	3.2500000000E+02	0.000E+00	0.0
	-14	1	6	6	0	0	-5.2396884857E+01	-2.4858730657E+02	-6.9317857288E+01	4.1829540742E+02	3.2500000000E+02	0.000E+00	0.0
	25	2	5	5	0	0	-5.4113967550E+01	-5.1714857834E+00	-1.5320398112E+02	2.0515466146E+02	1.2514755106E+02	0.000E+00	0.0
	-5	1	9	9	0	501	-3.6524990455E+01	4.4192158296E+01	-1.3942235674E+02	1.5080811563E+02	4.1800000000E+00	0.000E+00	0.0
	5	1	9	9	501	0	-1.7588977096E+01	-4.9363644079E+01	-1.3781624383E+01	5.4346545821E+01	4.1800000000E+00	0.000E+00	0.0
</event>
<event>
    11  -1  1.0000000E+00  1.0000000E+00  -1.0000000E+00  -1.0000000E+00
	2212	-1	0	0	0	0	0.0000000000E+00	0.0000000000E+00	6.5000000000E+03	6.5000000000E+03	9.3827000000E-01	0.000E+00	0.0
	2212	-1	0	0	0	0	0.0000000000E+00	0.0000000000E+00	-6.5000000000E+03	6.5000000000E+03	9.3827000000E-01	0.000E+00	0.0
	2212	1	0	0	0	0	0.0000000000E+00	0.0000000000E+00	6.1179052678E+03	6.1179052678E+03	9.3827000000E-01	0.000E+00	0.0
	2212	1	0	0	0	0	0.0000000000E+00	0.0000000000E+00	-5.7805670587E+03	5.7805670587E+03	9.3827000000E-01	0.000E+00	0.0
	51	2	1	2	0	0	9.3417852562E+01	7.1498246771E+01	-4.0969770101E+02	1.1319263442E+03	1.0486019970E+03	0.000E+00	0.0
	1000022	2	5	5	0	0	-9.3417852562E+01	-7.1498246771E+01	-2.0853633317E+02	8.8682480477E+02	8.5389222835E+02	0.000E+00	0.0
	14	1	6	6	0	0	1.0765047899E+01	1.0637111522E+02	1.3802272012E+02	3.6892542834E+02	3.2500000000E+02	0.000E+00	0.0
	-14	1	6	6	0	0	-1.0418290046E+02	-1.7786936200E+02	-3.4655905329E+02	5.1789937642E+02	3.2500000000E+02	0.000E+00	0.0
	25	2	5	5	0	0	9.3417852562E+01	7.1498246771E+01	-1.2880187598E+02	2.1470286869E+02	1.2517389544E+02	0.000E+00	0.0
	-5	1	9	9	0	501	1.2227701552E+02	7.2045973279E+01	-1.1345214256E+02	1.8174474364E+02	4.1800000000E+00	0.000E+00	0.0
	5	1	9	9	501	0	-2.8859162953E+01	-5.4772650855E-01	-1.5349733417E+01	3.2958125048E+01	4.1800000000E+00	0.000E+00	0.0
</event>
<event>
    11  -1  1.0000000E+00  1.0000000E+00  -1.0000000E+00  -1.0000000E+00
	2212	-1	0	0	0	0	0.0000000000E+00	0.0000000000E+00	6.5000000000E+03	6.5000000000E+03	9.3827000000E-01	0.000E+00	0.0
	2212	-1	0	0	0	0	0.0000000000E+00	0.0000000000E+00	-6.5000000000E+03	6.5000000000E+03	9.3827000000E-01	0.000E+00	0.0
	2212	1	0	0	0	0	0.0000000000E+00	0.0000000000E+00	5.7666003680E+03	5.7666003680E+03	9.3827000000E-01	0.000E+00	0.0
	2212	1	0	0	0	0	0.0000000000E+00	0.0000000000E+00	-6.1259024715E+03	6.1259024715E+03	9.3827000000E-01	0.000E+00	0.0
	51	2	1	2	0	0	1.2501089074E+02	-6.3000028831E+01	3.8345479616E+02	1.1243159103E+03	1.0475934130E+03	0.000E+00	0.0
	1000022	2	5	5	0	0	-1.2501089074E+02	6.3000028831E+01	2.7364553153E+02	9.0110153083E+02	8.4705688445E+02	0.000E+00	0.0
	14	1	6	6	0	0	7.4290815008E+01	2.6594748075E+02	1.2657686749E+02	4.4485266223E+02	3.2500000000E+02	0.000E+00	0.0
	-14	1	6	6	0	0	-1.9930170575E+02	-2.0294745192E+02	1.4706866405E+02	4.5624886860E+02	3.2500000000E+02	0.000E+00	0.0
	25	2	5	5	0	0	1.2501089074E+02	-6.3000028831E+01	8.5656571985E+01	2.0639562967E+02	1.2516142052E+02	0.000E+00	0.0
	-5	1	9	9	0	501	5.6092716086E+00	3.0935065046E+01	3.2438609593E+01	4.5367146369E+01	4.1800000000E+00	0.000E+00	0.0
	5	1	9	9	501	0	1.1940161913E+02	-9.3935093877E+01	5.3217962392E+01	1.6102848330E+02	4.1800000000E+00	0.000E+00	0.0
</event>
<event>
    11  -1  1.0000000E+00  1.0000000E+00  -1.0000000E+00  -1.0000000E+00
	2212	-1	0	0	0	0	0.0000000000E+00	0.0000000000E+00	6.5000000000E+03	6.5000000000E+03	9.3827000000E-01	0.000E+00	0.0
	2212	-1	0	0	0	0	0.0000000000E+00	0.0000000000E+00	-6.5000000000E+03	6.5000000000E+03	9.3827000000E-01	0.000E+00	0.0
	2212	1	0	0	0	0	0.0000000000E+00	0.0000000000E+00	6.1906406532E+03	6.1906406532E+03	9.3827000000E-01	0.000E+00	0.0
	2212	1	0	0	0	0	0.0000000000E+00	0.0000000000E+00	-5.6085236917E+03	5.6085236917E+03	9.3827000000E-01	0.000E+00	0.0
	51	2	1	2	0	0	7.1531231344E+01	-1.5141486521E+01	-4.4556348162E+02	1.1432492780E+03	1.0503076282E+03	0.000E+00	0.0
	1000022	2	5	5	0	0	-7.1531231344E+01	1.5141486521E+01	-6.1832015540E+02	1.0514117417E+03	8.4723128738E+02	0.000E+00	0.0
	14	1	6	6	0	0	1.7659525877E+02	-2.8483394504E+00	-5.0638957546E+02	6.2709600588E+02	3.2500000000E+02	0.000E+00	0.0
	-14	1	6	6	0	0	-2.4812649011E+02	1.7989825971E+01	-1.1193057995E+02	4.2431573582E+02	3.2500000000E+02	0.000E+00	0.0
	25	2	5	5	0	0	7.1531231344E+01	-1.5141486521E+01	3.6203193926E+01	1.4942391344E+02	1.2518327758E+02	0.000E+00	0.0
	-5	1	9	9	0	501	7.7920416044E+01	-3.0428922809E+01	7.1554583656E+01	1.1015916404E+02	4.1800000000E+00	0.000E+00	0.0
	5	1	9	9	501	0	-6.3891846998E+00	1.5287436288E+01	-3.5351389731E+01	3.9264749398E+01	4.1800000000E+00	0.000E+00	0.0
</event>
<event>
    11  -1  1.0000000E+00  1.0000000E+00  -1.0000000E+00  -1.0000000E+00
	2212	-1	0	0	0	0	0.0000000000E+00	0.0000000000E+00	6.5000000000E+03	6.5000000000E+03	9.3827000000E-01	0.000E+00	0.0
	2212	-1	0	0	0	0	0.0000000000E+00	0.0000000000E+00	-6.5000000000E+03	6.5000000000E+03	9.3827000000E-01	0.000E+00	0.0
	2212	1	0	0	0	0	0.0000000000E+00	0.0000000000E+00	5.5376490994E+03	5.5376490994E+03	9.3827000000E-01	0.000E+00	0.0
	2212	1	0	0	0	0	0.0000000000E+00	0.0000000000E+00	-6.2143675728E+03	6.2143675728E+03	9.3827000000E-01	0.000E+00	0.0
	51	2	1	2	0	0	-6.5030329321E+01	-8.8433877525E+01	7.5960618699E+02	1.2994481705E+03	1.0485773668E+03	0.000E+00	0.0
	1000022	2	5	5	0	0	6.5030329321E+01	8.8433877525E+01	4.8337962506E+02	9.9282791031E+02	8.6023363288E+02	0.000E+00	0.0
	14	1	6	6	0	0	2.7875614874E+02	7.2782740430E+01	4.0882500285E+02	5.9646056091E+02	3.2500000000E+02	0.000E+00	0.0
	-14	1	6	6	0	0	-2.1372581942E+02	1.5651137095E+01	7.4554622209E+01	3.9636734940E+02	3.2500000000E+02	0.000E+00	0.0
	25	2	5	5	0	0	-6.5030329321E+01	-8.8433877525E+01	1.9333884838E+02	2.5515541749E+02	1.2519937043E+02	0.000E+00	0.0
	-5	1	9	9	0	501	1.5156564358E+01	-3.3351903935E+00	-1.1149642617E+01	1.9560978211E+01	4.1800000000E+00	0.000E+00	0.0
	5	1	9	9	501	0	-8.0186893679E+01	-8.5098687132E+01	2.0448849100E+02	2.3559443928E+02	4.1800000000E+00	0.000E+00	0.0
</event>
<event>
    11  -1  1.0000000E+00  1.0000000E+00  -1.0000000E+00  -1.0000000E+00
	2212	-1	0	0	0	0	0.0000000000E+00	0.0000000000E+00	6.5000000000E+03	6.5000000000E+03	9.3827000000E-01	0.000E+00	0.0
	2212	-1	0	0	0	0	0.0000000000E+00	0.0000000000E+00	-6.5000000000E+03	6.5000000000E+03	9.3827000000E-01	0.000E+00	0.0
	2212	1	0	0	0	0	0.0000000000E+00	0.0000000000E+00	5.4543751159E+03	5.4543751159E+03	9.3827000000E-01	0.000E+00	0.0
	2212	1	0	0	0	0	0.0000000000E+00	0.0000000000E+00	-6.2360682764E+03	6.2360682764E+03	9.3827000000E-01	0.000E+00	0.0
	51	2	1	2	0	0	-3.5216589842E+01	1.1400701599E+02	8.6733746189E+02	1.3676280167E+03	1.0506637481E+03	0.000E+00	0.0
	1000022	2	5	5	0	0	3.5216589842E+01	-1.1400701599E+02	5.6546776805E+02	1.0327250260E+03	8.5587929916E+02	0.000E+00	0.0
	14	1	6	6	0	0	2.9530575933E+02	-4.0595863616E+01	3.0587576398E+02	5.3669218238E+02	3.2500000000E+02	0.000E+00	0.0
	-14	1	6	6	0	0	-2.6008916949E+02	-7.3411152370E+01	2.5959200407E+02	4.9603284363E+02	3.2500000000E+02	0.000E+00	0.0
	25	2	5	5	0	0	-3.5216589842E+01	1.1400701599E+02	2.1622539248E+02	2.7683158167E+02	1.2507796113E+02	0.000E+00	0.0
	-5	1	9	9	0	501	-5.2327531213E+01	2.0698420575E+01	1.5215508463E+02	1.6228135233E+02	4.1800000000E+00	0.000E+00	0.0
	5	1	9	9	501	0	1.7110941370E+01	9.3308595411E+01	6.4070307855E+01	1.1455022933E+02	4.1800000000E+00	0.000E+00	0.0
</event>
<event>
    11  -1  1.0000000E+00  1.0000000E+00  -1.0000000E+00  -1.0000000E+00
	2212	-1	0	0	0	0	0.0000000000E+00	0.0000000000E+00	6.5000000000E+03	6.5000000000E+03	9.3827000000E-01	0.000E+00	0.0
	2212	-1	0	0	0	0	0.0000000000E+00	0.0000000000E+00	-6.5000000000E+03	6.5000000000E+03	9.3827000000E-01	0.000E+00	0.0
	2212	1	0	0	0	0	0.0000000000E+00	0.0000000000E+00	5.9782048994E+03	5.9782048994E+03	9.3827000000E-01	0.000E+00	0.0
	2212	1	0	0	0	0	0.0000000000E+00	0.0000000000E+00	-5.9698478513E+03	5.9698478513E+03	9.3827000000E-01	0.000E+00	0.0
	51	2	1	2	0	0	4.0993829759E+01	1.1727413767E+02	-9.3167419019E+01	1.0633141871E+03	1.0519140531E+03	0.000E+00	0.0
	1000022	2	5	5	0	0	-4.0993829759E+01	-1.1727413767E+02	7.7922872342E+01	8.5560010874E+02	8.4293882020E+02	0.000E+00	0.0
	14	1	6	6	0	0	1.4513449780E+02	1.7744403145E+01	-1.6125350460E+02	3.9116055404E+02	3.2500000000E+02	0.000E+00	0.0
	-14	1	6	6	0	0	-1.8612832756E+02	-1.3501854081E+02	2.3917637694E+02	4.6443955470E+02	3.2500000000E+02	0.000E+00	0.0
	25	2	5	5	0	0	4.0993829759E+01	1.1727413767E+02	-8.6279920376E+01	1.9634714056E+02	1.2519687498E+02	0.000E+00	0.0
	-5	1	9	9	0	501	4.9743404688E+01	7.6475357864E+01	9.4714135647E+00	9.1815394926E+01	4.1800000000E+00	0.000E+00	0.0
	5	1	9	9	501	0	-8.7495749291E+00	4.0798779804E+01	-9.5751333941E+01	1.0453174564E+02	4.1800000000E+00	0.000E+00	0.0
</event>
<event>
    11  -1  1.0000000E+00  1.0000000E+00  -1.0000000E+00  -1.0000000E+00
	2212	-1	0	0	0	0	0.0000000000E+00	0.0000000000E+00	6.5000000000E+03	6.5000000000E+03	9.3827000000E-01	0.000E+00	0.0
	2212	-1	0	0	0	0	0.0000000000E+00	0.0000000000E+00	-6.5000000000E+03	6.5000000000E+03	9.3827000000E-01	0.000E+00	0.0
	2212	1	0	0	0	0	0.0000000000E+00	0.0000000000E+00	5.4239372421E+03	5.4239372421E+03	9.3827000000E-01	0.000E+00	0.0
	2212	1	0	0	0	0	0.0000000000E+00	0.0000000000E+00	-6.2351844121E+03	6.2351844121E+03	9.3827000000E-01	0.000E+00	0.0
	51	2	1	2	0	0	-5.5161718148E+01	-1.1658491637E+02	9.3212510876E+02	1.4231390810E+03	1.0676295086E+03	0.000E+00	0.0
	1000022	2	5	5	0	0	5.5161718148E+01	1.1658491637E+02	5.4657166351E+02	1.0209403012E+03	8.5260990933E+02	0.000E+00	0.0
	14	1	6	6	0	0	2.8495192401E+02	1.2480446922E+02	1.9698722290E+02	4.9112393601E+02	3.2500000000E+02	0.000E+00	0.0
	-14	1	6	6	0	0	-2.2979020586E+02	-8.2195528485E+00	3.4958444061E+02	5.2981636524E+02	3.2500000000E+02	0.000E+00	0.0
	25	2	5	5	0	0	-5.5161718148E+01	-1.1658491637E+02	2.6467550646E+02	3.1993804462E+02	1.2518933980E+02	0.000E+00	0.0
	-5	1	9	9	0	501	-1.5979000055E+01	-1.1056405384E+02	2.5571197822E+02	2.7908032293E+02	4.1800000000E+00	0.000E+00	0.0
	5	1	9	9	501	0	-3.9182718092E+01	-6.0208625252E+00	8.9635282466E+00	4.0857721685E+01	4.1800000000E+00	0.000E+00	0.0
</event>
<event>
    11  -1  1.0000000E+00  1.0000000E+00  -1.0000000E+00  -1.0000000E+00
	2212	-1	0	0	0	0	0.0000000000E+00	0.0000000000E+00	6.5000000000E+03	6.5000000000E+03	9.3827000000E-01	0.000E+00	0.0
	2212	-1	0	0	0	0	0.0000000000E+00	0.0000000000E+00	-6.5000000000E+03	6.5000000000E+03	9.3827000000E-01	0.000E+00	0.0
	2212	1	0	0	0	0	0.0000000000E+00	0.0000000000E+00	4.9000027852E+03	4.9000027852E+03	9.3827000000E-01	0.000E+00	0.0
	2212	1	0	0	0	0	0.0000000000E+00	0.0000000000E+00	-6.3270384745E+03	6.3270384745E+03	9.3827000000E-01	0.000E+00	0.0
	51	2	1	2	0	0	-8.3014916307E+00	8.1761562216E+01	1.6347481753E+03	1.9457922039E+03	1.0521177863E+03	0.000E+00	0.0
	1000022	2	5	5	0	0	8.3014916307E+00	-8.1761562216E+01	9.7564101813E+02	1.2973728905E+03	8.5120335578E+02	0.000E+00	0.0
	14	1	6	6	0	0	1.9676704523E+02	-9.8237635189E+01	7.8074403785E+02	8.7381585915E+02	3.2500000000E+02	0.000E+00	0.0
	-14	1	6	6	0	0	-1.8846555360E+02	1.6476072973E+01	1.9489698028E+02	4.2355703134E+02	3.2500000000E+02	0.000E+00	0.0
	25	2	5	5	0	0	-8.3014916307E+00	8.1761562216E+01	4.5139467122E+02	4.7558584983E+02	1.2518339958E+02	0.000E+00	0.0
	-5	1	9	9	0	501	2.1489635317E+01	1.0739005602E+02	3.5013749902E+02	3.6688985973E+02	4.1800000000E+00	0.000E+00	0.0
	5	1	9	9	501	0	-2.9791126948E+01	-2.5628493806E+01	1.0125717221E+02	1.0869599010E+02	4.1800000000E+00	0.000E+00	0.0
</event>
<event>
    11  -1  1.0000000E+00  1.0000000E+00  -1.0000000E+00  -1.0000000E+00
	2212	-1	0	0	0	0	0.0000000000E+00	0.0000000000E+00	6.5000000000E+03	6.5000000000E+03	9.3827000000E-01	0.000E+00	0.0
	2212	-1	0	0	0	0	0.0000000000E+00	0.0000000000E+00	-6.5000000000E+03	6.5000000000E+03	9.3827000000E-01	0.000E+00	0.0
	2212	1	0	0	0	0	0.0000000000E+00	0.0000000000E+00	4.9134215739E+03	4.9134215739E+03	9.3827000000E-01	0.000E+00	0.0
	2212	1	0	0	0	0	0.0000000000E+00	0.0000000000E+00	-6.3221590546E+03	6.3221590546E+03	9.3827000000E-01	0.000E+00	0.0
	51	2	1	2	0	0	-1.0289858846E+02	1.1435096328E+02	1.4469800584E+03	1.8016797664E+03	1.0623720766E+03	0.000E+00	0.0
	1000022	2	5	5	0	0	1.0289858846E+02	-1.1435096328E+02	1.1216491658E+03	1.4154839873E+03	8.4960803020E+02	0.000E+00	0.0
	14	1	6	6	0	0	5.0824934134E+01	1.6204720551E+02	2.5054815670E+02	4.4411918397E+02	3.2500000000E+02	0.000E+00	0.0
	-14	1	6	6	0	0	5.2073654322E+01	-2.7639816879E+02	8.7110100908E+02	9.7136480336E+02	3.2500000000E+02	0.000E+00	0.0
	25	2	5	5	0	0	-1.0289858846E+02	1.1435096328E+02	2.8708831486E+02	3.4893538414E+02	1.2518761707E+02	0.000E+00	0.0
	-5	1	9	9	0	501	-1.4056372926E+01	4.5074022164E+01	2.0255095389E+02	2.0802310068E+02	4.1800000000E+00	0.000E+00	0.0
	5	1	9	9	501	0	-8.8842215530E+01	6.9276941120E+01	8.4537360964E+01	1.4091228346E+02	4.1800000000E+00	0.000E+00	0.0
</event>
<event>
    11  -1  1.0000000E+00  1.0000000E+00  -1.0000000E+00  -1.0000000E+00
	2212	-1	0	0	0	0	0.0000000000E+00	0.0000000000E+00	6.5000000000E+03	6.5000000000E+03	9.3827000000E-01	0.000E+00	0.0
	2212	-1	0	0	0	0	0.0000000000E+00	0.0000000000E+00	-6.5000000000E+03	6.5000000000E+03	9.3827000000E-01	0.000E+00	0.0
	2212	1	0	0	0	0	0.0000000000E+00	0.0000000000E+00	5.9469329846E+03	5.9469329846E+03	9.3827000000E-01	0.000E+00	0.0
	2212	1	0	0	0	0	0.0000000000E+00	0.0000000000E+00	-5.9935038221E+03	5.9935038221E+03	9.3827000000E-01	0.000E+00	0.0
	51	2	1	2	0	0	-1.0622535879E+02	-1.1720126969E+02	6.5284179333E+01	1.0722813560E+03	1.0585392377E+03	0.000E+00	0.0
	1000022	2	5	5	0	0	1.0622535879E+02	1.1720126969E+02	1.9470484717E+01	8.5602672946E+02	8.4106045996E+02	0.000E+00	0.0
	14	1	6	6	0	0	-8.9515331210E+01	-6.5285726582E+00	-2.0851555887E+02	3.9643329209E+02	3.2500000000E+02	0.000E+00	0.0
	-14	1	6	6	0	0	1.9574069000E+02	1.2372984235E+02	2.2798604359E+02	4.5959343738E+02	3.2500000000E+02	0.000E+00	0.0
	25	2	5	5	0	0	-1.0622535879E+02	-1.1720126969E+02	2.7100352781E+01	2.0353646388E+02	1.2519064878E+02	0.000E+00	0.0
	-5	1	9	9	0	501	-5.6340047578E+01	-1.2093568751E+02	-1.9674202471E+01	1.3492289693E+02	4.1800000000E+00	0.000E+00	0.0
	5	1	9	9	501	0	-4.9885311210E+01	3.7344178130E+00	4.6774555252E+01	6.8613566952E+01	4.1800000000E+00	0.000E+00	0.0
</event>
<event>
    11  -1  1.0000000E+00  1.0000000E+00  -1.0000000E+00  -1.0000000E+00
	2212	-1	0	0	0	0	0.0000000000E+00	0.0000000000E+00	6.5000000000E+03	6.5000000000E+03	9.3827000000E-01	0.000E+00	0.0
	2212	-1	0	0	0	0	0.0000000000E+00	0.0000000000E+00	-6.5000000000E+03	6.5000000000E+03	9.3827000000E-01	0.000E+00	0.0
	2212	1	0	0	0	0	0.0000000000E+00	0.0000000000E+00	6.0191959018E+03	6.0191959018E+03	9.3827000000E-01	0.000E+00	0.0
	2212	1	0	0	0	0	0.0000000000E+00	0.0000000000E+00	-5.9358138913E+03	5.9358138913E+03	9.3827000000E-01	0.000E+00	0.0
	51	2	1	2	0	0	-1.0663762295E+02	5.0159169488E+01	-2.6121587157E+01	1.0486285496E+03	1.0416582803E+03	0.000E+00	0.0
	1000022	2	5	5	0	0	1.0663762295E+02	-5.0159169488E+01	-1.2678428512E+02	8.6767375859E+02	8.5023289249E+02	0.000E+00	0.0
	14	1	6	6	0	0	2.6410531454E+02	1.2637839135E+02	2.4624457482E+01	4.3812609928E+02	3.2500000000E+02	0.000E+00	0.0
	-14	1	6	6	0	0	-1.5746769158E+02	-1.7653756083E+02	-1.5140874260E+02	4.2954765930E+02	3.2500000000E+02	0.000E+00	0.0
	25	2	5	5	0	0	-1.0663762295E+02	5.0159169488E+01	4.3402274660E+01	1.7731644832E+02	1.2517923345E+02	0.000E+00	0.0
	-5	1	9	9	0	501	-1.0299736154E+02	3.3785847919E+01	-2.1123619417E+01	1.1051524647E+02	4.1800000000E+00	0.000E+00	0.0
	5	1	9	9	501	0	-3.6402614095E+00	1.6373321569E+01	6.4525894078E+01	6.6801201852E+01	4.1800000000E+00	0.000E+00	0.0
</event>
<event>
    11  -1  1.0000000E+00  1.0000000E+00  -1.0000000E+00  -1.0000000E+00
	2212	-1	0	0	0	0	0.0000000000E+00	0.0000000000E+00	6.5000000000E+03	6.5000000000E+03	9.3827000000E-01	0.000E+00	0.0
	2212	-1	0	0	0	0	0.0000000000E+00	0.0000000000E+00	-6.5000000000E+03	6.5000000000E+03	9.3827000000E-01	0.000E+00	0.0
	2212	1	0	0	0	0	0.0000000000E+00	0.0000000000E+00	6.0167071143E+03	6.0167071143E+03	9.3827000000E-01	0.000E+00	0.0
	2212	1	0	0	0	0	0.0000000000E+00	0.0000000000E+00	-5.9275410095E+03	5.9275410095E+03	9.3827000000E-01	0.000E+00	0.0
	51	2	1	2	0	0	-3.9671600060E+01	1.3376069303E+02	-1.0882778325E+02	1.0667570835E+03	1.0519797668E+03	0.000E+00	0.0
	1000022	2	5	5	0	0	3.9671600060E+01	-1.3376069303E+02	-5.4330816010E+01	8.6508683510E+02	8.5203147585E+02	0.000E+00	0.0
	14	1	6	6	0	0	1.7034689441E+02	-3.0153609783E+02	-2.5427244851E+01	4.7561920431E+02	3.2500000000E+02	0.000E+00	0.0
	-14	1	6	6	0	0	-1.3067529435E+02	1.6777540480E+02	-2.8903571159E+01	3.8946763079E+02	3.2500000000E+02	0.000E+00	0.0
	25	2	5	5	0	0	-3.9671600060E+01	1.3376069303E+02	-3.4835288783E+01	1.9066504110E+02	1.2519545399E+02	0.000E+00	0.0
	-5	1	9	9	0	501	-1.9620717182E+01	-1.2948456806E+01	2.1550793298E+01	3.2164330681E+01	4.1800000000E+00	0.000E+00	0.0
	5	1	9	9	501	0	-2.0050882877E+01	1.4670914984E+02	-5.6386082081E+01	1.5850071042E+02	4.1800000000E+00	0.000E+00	0.0
</event>
<event>
    11  -1  1.0000000E+00  1.0000000E+00  -1.0000000E+00  -1.0000000E+00
	2212	-1	0	0	0	0	0.0000000000E+00	0.0000000000E+00	6.5000000000E+03	6.5000000000E+03	9.3827000000E-01	0.000E+00	0.0
	2212	-1	0	0	0	0	0.0000000000E+00	0.0000000000E+00	-6.5000000000E+03	6.5000000000E+03	9.3827000000E-01	0.000E+00	0.0
	2212	1	0	0	0	0	0.0000000000E+00	0.0000000000E+00	6.2321725289E+03	6.2321725289E+03	9.3827000000E-01	0.000E+00	0.0
	2212	1	0	0	0	0	0.0000000000E+00	0.0000000000E+00	-5.4621541302E+03	5.4621541302E+03	9.3827000000E-01	0.000E+00	0.0
	51	2	1	2	0	0	-9.1256023003E+00	-1.4505864581E+00	-5.9661889717E+02	1.2115667658E+03	1.0544451331E+03	0.000E+00	0.0
	1000022	2	5	5	0	0	9.1256023003E+00	1.4505864581E+00	-8.1019416455E+02	1.1738805343E+03	8.4940893784E+02	0.000E+00	0.0
	14	1	6	6	0	0	-1.0315537800E+02	-1.7831236546E+02	-6.4737905354E+02	7.5310090337E+02	3.2500000000E+02	0.000E+00	0.0
	-14	1	6	6	0	0	1.1228098030E+02	1.7976295192E+02	-1.6281511101E+02	4.2077963092E+02	3.2500000000E+02	0.000E+00	0.0
	25	2	5	5	0	0	-9.1256023003E+00	-1.4505864581E+00	4.0175765790E+01	1.3179280665E+02	1.2517935496E+02	0.000E+00	0.0
	-5	1	9	9	0	501	1.6341691126E+01	-1.9674495157E+01	7.8184610509E+01	8.2367726380E+01	4.1800000000E+00	0.000E+00	0.0
	5	1	9	9	501	0	-2.5467293427E+01	1.8223908699E+01	-3.8008844718E+01	4.9425080269E+01	4.1800000000E+00	0.000E+00	0.0
</event>
<event>
    11  -1  1.0000000E+00  1.0000000E+00  -1.0000000E+00  -1.0000000E+00
	2212	-1	0	0	0	0	0.0000000000E+00	0.0000000000E+00	6.5000000000E+03	6.5000000000E+03	9.3827000000E-01	0.000E+00	0.0
	2212	-1	0	0	0	0	0.0000000000E+00	0.0000000000E+00	-6.5000000000E+03	6.5000000000E+03	9.3827000000E-01	0.000E+00	0.0
	2212	1	0	0	0	0	0.0000000000E+00	0.0000000000E+00	5.4519807891E+03	5.4519807891E+03	9.3827000000E-01	0.000E+00	0.0
	2212	1	0	0	0	0	0.0000000000E+00	0.0000000000E+00	-6.2487538651E+03	6.2487538651E+03	9.3827000000E-01	0.000E+00	0.0
	51	2	1	2	0	0	7.4825664144E+01	-4.0635901140E+01	8.6381176311E+02	1.3441220267E+03	1.0262763293E+03	0.000E+00	0.0
	1000022	2	5	5	0	0	-7.4825664144E+01	4.0635901140E+01	6.0962503795E+02	1.0585512468E+03	8.6118400975E+02	0.000E+00	0.0
	14	1	6	6	0	0	-2.3538472314E+02	9.3985719015E+00	5.6343047477E+02	6.9178985316E+02	3.2500000000E+02	0.000E+00	0.0
	-14	1	6	6	0	0	1.6055905900E+02	3.1237329238E+01	4.6194563179E+01	3.6676139359E+02	3.2500000000E+02	0.000E+00	0.0
	25	2	5	5	0	0	7.4825664144E+01	-4.0635901140E+01	1.8714803811E+02	2.4071409905E+02	1.2517480911E+02	0.000E+00	0.0
	-5	1	9	9	0	501	6.8758379861E+01	-7.3533531596E+01	1.7995454931E+02	2.0624259329E+02	4.1800000000E+00	0.000E+00	0.0
	5	1	9	9	501	0	6.0672842830E+00	3.2897630456E+01	7.1934888015E+00	3.4471505760E+01	4.1800000000E+00	0.000E+00	0.0
</event>
<event>
    11  -1  1.0000000E+00  1.0000000E+00  -1.0000000E+00  -1.0000000E+00
	2212	-1	0	0	0	0	0.0000000000E+00	0.0000000000E+00	6.5000000000E+03	6.5000000000E+03	9.3827000000E-01	0.000E+00	0.0
	2212	-1	0	0	0	0	0.0000000000E+00	0.0000000000E+00	-6.5000000000E+03	6.5000000000E+03	9.3827000000E-01	0.000E+00	0.0
	2212	1	0	0	0	0	0.0000000000E+00	0.0000000000E+00	5.2728236711E+03	5.2728236711E+03	9.3827000000E-01	0.000E+00	0.0
	2212	1	0	0	0	0	0.0000000000E+00	0.0000000000E+00	-6.2735143697E+03	6.2735143697E+03	9.3827000000E-01	0.000E+00	0.0
	51	2	1	2	0	0	1.3499904403E+02	4.2670551458E+01	1.0694544732E+03	1.5084858651E+03	1.0543961387E+03	0.000E+00	0.0
	1000022	2	5	5	0	0	-1.3499904403E+02	-4.2670551458E+01	7.5783138376E+02	1.1459366676E+03	8.4783071550E+02	0.000E+00	0.0
	14	1	6	6	0	0	-1.0695923647E+02	-5.8070715124E+01	7.4180829805E+02	8.1897316029E+02	3.2500000000E+02	0.000E+00	0.0
	-14	1	6	6	0	0	-2.8039807566E+01	1.5400163666E+01	1.6023085706E+01	3.2696350733E+02	3.2500000000E+02	0.000E+00	0.0
	25	2	5	5	0	0	1.3499904403E+02	4.2670551458E+01	2.4285931487E+02	3.0772529154E+02	1.2517463955E+02	0.000E+00	0.0
	-5	1	9	9	0	501	1.4844824675E+02	5.6705894281E+00	1.7981128780E+02	2.3327796546E+02	4.1800000000E+00	0.000E+00	0.0
	5	1	9	9	501	0	-1.3449202719E+01	3.6999962030E+01	6.3048027072E+01	7.4447326088E+01	4.1800000000E+00	0.000E+00	0.0
</event>
<event>
    11  -1  1.0000000E+00  1.0000000E+00  -1.0000000E+00  -1.0000000E+00
	2212	-1	0	0	0	0	0.0000000000E+00	0.0000000000E+00	6.5000000000E+03	6.5000000000E+03	9.3827000000E-01	0.000E+00	0.0
	2212	-1	0	0	0	0	0.0000000000E+00	0.0000000000E+00	-6.5000000000E+03	6.5000000000E+03	9.3827000000E-01	0.000E+00	0.0
	2212	1	0	0	0	0	0.0000000000E+00	0.0000000000E+00	6.2219643892E+03	6.2219643892E+03	9.3827000000E-01	0.000E+00	0.0
	2212	1	0	0	0	0	0.0000000000E+00	0.0000000000E+00	-5.5230434836E+03	5.5230434836E+03	9.3827000000E-01	0.000E+00	0.0
	51	2	1	2	0	0	8.0984604555E+01	-3.8833267389E+01	-8.1881509191E+02	1.3285478880E+03	1.0423602099E+03	0.000E+00	0.0
	1000022	2	5	5	0	0	-8.0984604555E+01	3.8833267389E+01	-4.6313007977E+02	9.7333074394E+02	8.5136169604E+02	0.000E+00	0.0
	14	1	6	6	0	0	-1.0485487702E+02	-2.0072518884E+02	-5.7068671599E+01	4.0020867050E+02	3.2500000000E+02	0.000E+00	0.0
	-14	1	6	6	0	0	2.3870272465E+01	2.3955845622E+02	-4.0606140817E+02	5.7312207344E+02	3.2500000000E+02	0.000E+00	0.0
	25	2	5	5	0	0	8.0984604555E+01	-3.8833267389E+01	-2.3579082582E+02	2.8166138329E+02	1.2517704448E+02	0.000E+00	0.0
	-5	1	9	9	0	501	3.6958519561E+01	2.9101680308E+01	-1.7241584895E+02	1.7876671204E+02	4.1800000000E+00	0.000E+00	0.0
	5	1	9	9	501	0	4.4026084994E+01	-6.7934947697E+01	-6.3374976875E+01	1.0289467125E+02	4.1800000000E+00	0.000E+00	0.0
</event>
<event>
    11  -1  1.0000000E+00  1.0000000E+00  -1.0000000E+00  -1.0000000E+00
	2212	-1	0	0	0	0	0.0000000000E+00	0.0000000000E+00	6.5000000000E+03	6.5000000000E+03	9.3827000000E-01	0.000E+00	0.0
	2212	-1	0	0	0	0	0.0000000000E+00	0.0000000000E+00	-6.5000000000E+03	6.5000000000E+03	9.3827000000E-01	0.000E+00	0.0
	2212	1	0	0	0	0	0.0000000000E+00	0.0000000000E+00	6.1227578722E+03	6.1227578722E+03	9.3827000000E-01	0.000E+00	0.0
	2212	1	0	0	0	0	0.0000000000E+00	0.0000000000E+00	-5.4621896945E+03	5.4621896945E+03	9.3827000000E-01	0.000E+00	0.0
	51	2	1	2	0	0	1.2694513872E+02	9.3120718078E+01	-3.6683039914E+02	1.3135349823E+03	1.2514084352E+03	0.000E+00	0.0
	1000022	2	5	5	0	0	-1.2694513872E+02	-9.3120718078E+01	-7.9418840321E+02	1.1735701142E+03	8.4955579974E+02	0.000E+00	0.0
	14	1	6	6	0	0	1.1374897544E+02	-2.3641138772E+02	-2.7519309717E+02	5.0018538002E+02	3.2500000000E+02	0.000E+00	0.0
	-14	1	6	6	0	0	-2.4069411416E+02	1.4329066964E+02	-5.1899530603E+02	6.7338473422E+02	3.2500000000E+02	0.000E+00	0.0
	25	2	5	5	0	0	1.2694513872E+02	9.3120718078E+01	1.3362022551E+02	2.4148231907E+02	1.2519109145E+02	0.000E+00	0.0
	-5	1	9	9	0	501	9.9421756252E+01	6.6315874372E+01	1.9711148374E+01	1.2119605018E+02	4.1800000000E+00	0.000E+00	0.0
	5	1	9	9	501	0	2.7523382466E+01	2.6804843706E+01	1.1390907713E+02	1.2028626888E+02	4.1800000000E+00	0.000E+00	0.0
</event>
<event>
    11  -1  1.0000000E+00  1.0000000E+00  -1.0000000E+00  -1.0000000E+00
	2212	-1	0	0	0	0	0.0000000000E+00	0.0000000000E+00	6.5000000000E+03	6.5000000000E+03	9.3827000000E-01	0.000E+00	0.0
	2212	-1	0	0	0	0	0.0000000000E+00	0.0000000000E+00	-6.5000000000E+03	6.5000000000E+03	9.3827000000E-01	0.000E+00	0.0
	2212	1	0	0	0	0	0.0000000000E+00	0.0000000000E+00	6.2373062443E+03	6.2373062443E+03	9.3827000000E-01	0.000E+00	0.0
	2212	1	0	0	0	0	0.0000000000E+00	0.0000000000E+00	-5.4496330093E+03	5.4496330093E+03	9.3827000000E-01	0.000E+00	0.0
	51	2	1	2	0	0	8.5256074165E+01	-2.2726934352E+01	-9.2584035359E+02	1.4030911841E+03	1.0505709870E+03	0.000E+00	0.0
	1000022	2	5	5	0	0	-8.5256074165E+01	2.2726934352E+01	-5.1690478609E+02	1.0019822981E+03	8.5381078474E+02	0.000E+00	0.0
	14	1	6	6	0	0	-2.9839656444E+02	1.1124324112E+02	-2.2292497585E+02	5.0669133920E+02	3.2500000000E+02	0.000E+00	0.0
	-14	1	6	6	0	0	2.1314049028E+02	-8.8516306767E+01	-2.9397981024E+02	4.9529095892E+02	3.2500000000E+02	0.000E+00	0.0
	25	2	5	5	0	0	8.5256074165E+01	-2.2726934352E+01	-2.7076844885E+02	3.1107844828E+02	1.2517642095E+02	0.000E+00	0.0
	-5	1	9	9	0	501	-2.2353415710E+01	2.0165007508E+01	-2.5035643780E+01	3.9377132719E+01	4.1800000000E+00	0.000E+00	0.0
	5	1	9	9	501	0	1.0760948987E+02	-4.2891941860E+01	-2.4573280507E+02	2.7170131556E+02	4.1800000000E+00	0.000E+00	0.0
</event>
<event>
    11  -1  1.0000000E+00  1.0000000E+00  -1.0000000E+00  -1.0000000E+00
	2212	-1	0	0	0	0	0.0000000000E+00	0.0000000000E+00	6.5000000000E+03	6.5000000000E+03	9.3827000000E-01	0.000E+00	0.0
	2212	-1	0	0	0	0	0.0000000000E+00	0.0000000000E+00	-6.5000000000E+03	6.5000000000E+03	9.3827000000E-01	0.000E+00	0.0
	2212	1	0	0	0	0	0.0000000000E+00	0.0000000000E+00	6.0627504629E+03	6.0627504629E+03	9.3827000000E-01	0.000E+00	0.0
	2212	1	0	0	0	0	0.0000000000E+00	0.0000000000E+00	-5.8655650062E+03	5.8655650062E+03	9.3827000000E-01	0.000E+00	0.0
	51	2	1	2	0	0	-1.0620389347E+02	8.1351421599E+01	-1.2921982232E+02	1.0696825289E+03	1.0533876919E+03	0.000E+00	0.0
	1000022	2	5	5	0	0	1.0620389347E+02	-8.1351421599E+01	-2.3051786709E+02	8.8545819629E+02	8.4439351581E+02	0.000E+00	0.0
	14	1	6	6	0	0	-1.8927982645E+02	-1.1204726818E+02	-2.0899175701E+02	4.4461668604E+02	3.2500000000E+02	0.000E+00	0.0
	-14	1	6	6	0	0	2.9548371993E+02	3.0695846586E+01	-2.1526110079E+01	4.4084151025E+02	3.2500000000E+02	0.000E+00	0.0
	25	2	5	5	0	0	-1.0620389347E+02	8.1351421599E+01	3.3332410335E+01	1.8622633461E+02	1.2518736892E+02	0.000E+00	0.0
	-5	1	9	9	0	501	1.5458903138E+01	-1.9338266139E+01	2.1670050300E+00	2.5201478811E+01	4.1800000000E+00	0.000E+00	0.0
	5	1	9	9	501	0	-1.2166279661E+02	1.0068968774E+02	3.1165405305E+01	1.6102485580E+02	4.1800000000E+00	0.000E+00	0.0
</event>
<event>
    11  -1  1.0000000E+00  1.0000000E+00  -1.0000000E+00  -1.0000000E+00
	2212	-1	0	0	0	0	0.0000000000E+00	0.0000000000E+00	6.5000000000E+03	6.5000000000E+03	9.3827000000E-01	0.000E+00	0.0
	2212	-1	0	0	0	0	0.0000000000E+00	0.0000000000E+00	-6.5000000000E+03	6.5000000000E+03	9.3827000000E-01	0.000E+00	0.0
	2212	1	0	0	0	0	0.0000000000E+00	0.0000000000E+00	6.0820100432E+03	6.0820100432E+03	9.3827000000E-01	0.000E+00	0.0
	2212	1	0	0	0	0	0.0000000000E+00	0.0000000000E+00	-5.8382936245E+03	5.8382936245E+03	9.3827000000E-01	0.000E+00	0.0
	51	2	1	2	0	0	-1.3045662847E+02	2.1892830211E+01	-2.0369241769E+02	1.0795069737E+03	1.0518300610E+03	0.000E+00	0.0
	1000022	2	5	5	0	0	1.3045662847E+02	-2.1892830211E+01	-2.4258624999E+02	8.9756721432E+02	8.5397926649E+02	0.000E+00	0.0
	14	1	6	6	0	0	-1.7325669340E+02	-7.5533276580E+01	2.3097648218E+01	3.7667181874E+02	3.2500000000E+02	0.000E+00	0.0
	-14	1	6	6	0	0	3.0371332187E+02	5.3640446370E+01	-2.6568389821E+02	5.2089539558E+02	3.2500000000E+02	0.000E+00	0.0
	25	2	5	5	0	0	-1.3045662847E+02	2.1892830211E+01	-1.1301687532E+00	1.8212911800E+02	1.2518590343E+02	0.000E+00	0.0
	-5	1	9	9	0	501	-5.4924717435E+00	-1.7075266099E+01	-4.1234397656E+01	4.5160601283E+01	4.1800000000E+00	0.000E+00	0.0
	5	1	9	9	501	0	-1.2496415673E+02	3.8968096310E+01	4.0104228902E+01	1.3696851672E+02	4.1800000000E+00	0.000E+00	0.0
</event>
<event>
    11  -1  1.0000000E+00  1.0000000E+00  -1.0000000E+00  -1.0000000E+00
	2212	-1	0	0	0	0	0.0000000000E+00	0.0000000000E+00	6.5000000000E+03	6.5000000000E+03	9.3827000000E-01	0.000E+00	0.0
	2212	-1	0	0	0	0	0.0000000000E+00	0.0000000000E+00	-6.5000000000E+03	6.5000000000E+03	9.3827000000E-01	0.000E+00	0.0
	2212	1	0	0	0	0	0.0000000000E+00	0.0000000000E+00	5.3739600800E+03	5.3739600800E+03	9.3827000000E-01	0.000E+00	0.0
	2212	1	0	0	0	0	0.0000000000E+00	0.0000000000E+00	-6.2606297157E+03	6.2606297157E+03	9.3827000000E-01	0.000E+00	0.0
	51	2	1	2	0	0	-1.4608358928E+01	-7.7248828484E+01	7.5365485620E+02	1.2854331608E+03	1.0383457916E+03	0.000E+00	0.0
	1000022	2	5	5	0	0	1.4608358928E+01	7.7248828484E+01	8.7124183907E+02	1.2167958985E+03	8.4578314648E+02	0.000E+00	0.0
	14	1	6	6	0	0	-2.0410032594E+01	-3.9304847350E+01	7.9706804717E+02	8.6191873879E+02	3.2500000000E+02	0.000E+00	0.0
	-14	1	6	6	0	0	3.5018391521E+01	1.1655367583E+02	7.4173791899E+01	3.5487715973E+02	3.2500000000E+02	0.000E+00	0.0
	25	2	5	5	0	0	-1.4608358928E+01	-7.7248828484E+01	1.5427796700E+01	1.4861430579E+02	1.2516952233E+02	0.000E+00	0.0
	-5	1	9	9	0	501	-3.5203933102E+01	-1.0020411624E+02	-1.2212888137E+01	1.0698976051E+02	4.1800000000E+00	0.000E+00	0.0
	5	1	9	9	501	0	2.0595574174E+01	2.2955287753E+01	2.7640684838E+01	4.1624545279E+01	4.1800000000E+00	0.000E+00	0.0
</event>
<event>
    11  -1  1.0000000E+00  1.0000000E+00  -1.0000000E+00  -1.0000000E+00
	2212	-1	0	0	0	0	0.0000000000E+00	0.0000000000E+00	6.5000000000E+03	6.5000000000E+03	9.3827000000E-01	0.000E+00	0.0
	2212	-1	0	0	0	0	0.0000000000E+00	0.0000000000E+00	-6.5000000000E+03	6.5000000000E+03	9.3827000000E-01	0.000E+00	0.0
	2212	1	0	0	0	0	0.0000000000E+00	0.0000000000E+00	5.3128301328E+03	5.3128301328E+03	9.3827000000E-01	0.000E+00	0.0
	2212	1	0	0	0	0	0.0000000000E+00	0.0000000000E+00	-6.2695043510E+03	6.2695043510E+03	9.3827000000E-01	0.000E+00	0.0
	51	2	1	2	0	0	-4.6152524274E+01	4.2138791899E+01	1.1332783932E+03	1.5436241791E+03	1.0462074155E+03	0.000E+00	0.0
	1000022	2	5	5	0	0	4.6152524274E+01	-4.2138791899E+01	6.1744783882E+02	1.0507221099E+03	8.4786165451E+02	0.000E+00	0.0
	14	1	6	6	0	0	-5.5069751912E+01	-7.9952832653E+00	6.2707482423E+02	7.0848037186E+02	3.2500000000E+02	0.000E+00	0.0
	-14	1	6	6	0	0	1.0122227619E+02	-3.4143508633E+01	-9.6269854033E+00	3.4224173800E+02	3.2500000000E+02	0.000E+00	0.0
	25	2	5	5	0	0	-4.6152524274E+01	4.2138791899E+01	3.3922637935E+02	3.6694340642E+02	1.2516866136E+02	0.000E+00	0.0
	-5	1	9	9	0	501	-5.3668474934E+01	8.1572409074E+01	2.1144609612E+02	2.3294052264E+02	4.1800000000E+00	0.000E+00	0.0
	5	1	9	9	501	0	7.5159506601E+00	-3.9433617176E+01	1.2778028324E+02	1.3400288378E+02	4.1800000000E+00	0.000E+00	0.0
</event>
<event>
    11  -1  1.0000000E+00  1.0000000E+00  -1.0000000E+00  -1.0000000E+00
	2212	-1	0	0	0	0	0.0000000000E+00	0.0000000000E+00	6.5000000000E+03	6.5000000000E+03	9.3827000000E-01	0.000E+00	0.0
	2212	-1	0	0	0	0	0.0000000000E+00	0.0000000000E+00	-6.5000000000E+03	6.5000000000E+03	9.3827000000E-01	0.000E+00	0.0
	2212	1	0	0	0	0	0.0000000000E+00	0.0000000000E+00	5.8961368745E+03	5.8961368745E+03	9.3827000000E-01	0.000E+00	0.0
	2212	1	0	0	0	0	0.0000000000E+00	0.0000000000E+00	-6.0412742441E+03	6.0412742441E+03	9.3827000000E-01	0.000E+00	0.0
	51	2	1	2	0	0	-8.1635213769E+01	-1.1348482794E+02	1.4199911084E+02	1.0713249445E+03	1.0526301701E+03	0.000E+00	0.0
	1000022	2	5	5	0	0	8.1635213769E+01	1.1348482794E+02	1.2366948252E+02	8.7370474818E+02	8.5353543090E+02	0.000E+00	0.0
	14	1	6	6	0	0	6.6403068137E+01	-2.0095966866E+02	1.6049427801E+02	4.1973511785E+02	3.2500000000E+02	0.000E+00	0.0
	-14	1	6	6	0	0	1.5232145632E+01	3.1444449660E+02	-3.6824795489E+01	4.5396963033E+02	3.2500000000E+02	0.000E+00	0.0
	25	2	5	5	0	0	-8.1635213769E+01	-1.1348482794E+02	2.1467887115E+01	1.8888413327E+02	1.2519277665E+02	0.000E+00	0.0
	-5	1	9	9	0	501	-2.5280957912E+00	-1.0531324103E+02	-3.3170223756E+00	1.0547864732E+02	4.1800000000E+00	0.000E+00	0.0
	5	1	9	9	501	0	-7.9107117978E+01	-8.1715869098E+00	2.4784909490E+01	8.3405485945E+01	4.1800000000E+00	0.000E+00	0.0
</event>
<event>
    11  -1  1.0000000E+00  1.0000000E+00  -1.0000000E+00  -1.0000000E+00
	2212	-1	0	0	0	0	0.0000000000E+00	0.0000000000E+00	6.5000000000E+03	6.5000000000E+03	9.3827000000E-01	0.000E+00	0.0
	2212	-1	0	0	0	0	0.0000000000E+00	0.0000000000E+00	-6.5000000000E+03	6.5000000000E+03	9.3827000000E-01	0.000E+00	0.0
	2212	1	0	0	0	0	0.0000000000E+00	0.0000000000E+00	5.5010178512E+03	5.5010178512E+03	9.3827000000E-01	0.000E+00	0.0
	2212	1	0	0	0	0	0.0000000000E+00	0.0000000000E+00	-6.2217551297E+03	6.2217551297E+03	9.3827000000E-01	0.000E+00	0.0
	51	2	1	2	0	0	-1.3538090200E+02	-3.9734968387E+01	7.5894266968E+02	1.3068081213E+03	1.0544413847E+03	0.000E+00	0.0
	1000022	2	5	5	0	0	1.3538090200E+02	3.9734968387E+01	5.5901529320E+02	1.0287607060E+03	8.5202326012E+02	0.000E+00	0.0
	14	1	6	6	0	0	1.0776406351E+02	-2.5196619651E+02	2.9930888349E+02	5.1991428649E+02	3.2500000000E+02	0.000E+00	0.0
	-14	1	6	6	0	0	2.7616838493E+01	2.9170116490E+02	2.5970640972E+02	5.0884641948E+02	3.2500000000E+02	0.000E+00	0.0
	25	2	5	5	0	0	-1.3538090200E+02	-3.9734968387E+01	1.6172198526E+02	2.4846631315E+02	1.2519845013E+02	0.000E+00	0.0
	-5	1	9	9	0	501	-8.8401344310E+01	-7.9079234007E+01	6.9112884236E+01	1.3734040226E+02	4.1800000000E+00	0.000E+00	0.0
	5	1	9	9	501	0	-4.6979557694E+01	3.9344265619E+01	9.2609101023E+01	1.1112591089E+02	4.1800000000E+00	0.000E+00	0.0
</event>
<event>
    11  -1  1.0000000E+00  1.0000000E+00  -1.0000000E+00  -1.0000000E+00
	2212	-1	0	0	0	0	0.0000000000E+00	0.0000000000E+00	6.5000000000E+03	6.5000000000E+03	9.3827000000E-01	0.000E+00	0.0
	2212	-1	0	0	0	0	0.0000000000E+00	0.0000000000E+00	-6.5000000000E+03	6.5000000000E+03	9.3827000000E-01	0.000E+00	0.0
	2212	1	0	0	0	0	0.0000000000E+00	0.0000000000E+00	6.3249732251E+03	6.3249732251E+03	9.3827000000E-01	0.000E+00	0.0
	2212	1	0	0	0	0	0.0000000000E+00	0.0000000000E+00	-4.9402374024E+03	4.9402374024E+03	9.3827000000E-01	0.000E+00	0.0
	51	2	1	2	0	0	1.3032391533E+01	-5.9672893955E+01	-1.5949032566E+03	1.9077337246E+03	1.0449884537E+03	0.000E+00	0.0
	1000022	2	5	5	0	0	-1.3032391533E+01	5.9672893955E+01	-9.4259441573E+02	1.2712293113E+03	8.5076967030E+02	0.000E+00	0.0
	14	1	6	6	0	0	-3.4709863307E+01	2.7277922034E+02	-6.7798101449E+02	8.0056013744E+02	3.2500000000E+02	0.000E+00	0.0
	-14	1	6	6	0	0	2.1677471774E+01	-2.1310632638E+02	-2.6461340125E+02	4.7066917389E+02	3.2500000000E+02	0.000E+00	0.0
	25	2	5	5	0	0	1.3032391533E+01	-5.9672893955E+01	-4.4214140694E+02	4.6356006120E+02	1.2517271710E+02	0.000E+00	0.0
	-5	1	9	9	0	501	-5.1641671350E+01	-1.1844320069E+01	-1.1561209271E+02	1.2724299006E+02	4.1800000000E+00	0.000E+00	0.0
	5	1	9	9	501	0	6.4674062883E+01	-4.7828573886E+01	-3.2652931423E+02	3.3631707115E+02	4.1800000000E+00	0.000E+00	0.0
</event>
<event>
    11  -1  1.0000000E+00  1.0000000E+00  -1.0000000E+00  -1.0000000E+00
	2212	-1	0	0	0	0	0.0000000000E+00	0.0000000000E+00	6.5000000000E+03	6.5000000000E+03	9.3827000000E-01	0.000E+00	0.0
	2212	-1	0	0	0	0	0.0000000000E+00	0.0000000000E+00	-6.5000000000E+03	6.5000000000E+03	9.3827000000E-01	0.000E+00	0.0
	2212	1	0	0	0	0	0.0000000000E+00	0.0000000000E+00	6.1357544309E+03	6.1357544309E+03	9.3827000000E-01	0.000E+00	0.0
	2212	1	0	0	0	0	0.0000000000E+00	0.0000000000E+00	-5.7698254830E+03	5.7698254830E+03	9.3827000000E-01	0.000E+00	0.0
	51	2	1	2	0	0	-5.7086259579E+01	-7.9403679637E+01	-2.9011622353E+02	1.0759100977E+03	1.0314316893E+03	0.000E+00	0.0
	1000022	2	5	5	0	0	5.7086259579E+01	7.9403679637E+01	-3.8216216833E+02	9.3473972826E+02	8.4742353715E+02	0.000E+00	0.0
	14	1	6	6	0	0	1.1025074204E+02	-1.0818311515E+02	4.6189471238E+01	3.6279095879E+02	3.2500000000E+02	0.000E+00	0.0
	-14	1	6	6	0	0	-5.3164482466E+01	1.8758679479E+02	-4.2835163957E+02	5.7194876947E+02	3.2500000000E+02	0.000E+00	0.0
	25	2	5	5	0	0	-5.7086259579E+01	-7.9403679637E+01	1.6233220404E+01	1.5968035777E+02	1.2518192298E+02	0.000E+00	0.0
	-5	1	9	9	0	501	-1.4744138868E+01	1.5900441407E+01	4.6103461834E+01	5.1119617184E+01	4.1800000000E+00	0.000E+00	0.0
	5	1	9	9	501	0	-4.2342120710E+01	-9.5304121043E+01	-2.9870241430E+01	1.0856074059E+02	4.1800000000E+00	0.000E+00	0.0
</event>
<event>
    11  -1  1.0000000E+00  1.0000000E+00  -1.0000000E+00  -1.0000000E+00
	2212	-1	0	0	0	0	0.0000000000E+00	0.0000000000E+00	6.5000000000E+03	6.5000000000E+03	9.3827000000E-01	0.000E+00	0.0
	2212	-1	0	0	0	0	0.0000000000E+00	0.0000000000E+00	-6.5000000000E+03	6.5000000000E+03	9.3827000000E-01	0.000E+00	0.0
	2212	1	0	0	0	0	0.0000000000E+00	0.0000000000E+00	4.9206408376E+03	4.9206408376E+03	9.3827000000E-01	0.000E+00	0.0
	2212	1	0	0	0	0	0.0000000000E+00	0.0000000000E+00	-6.3439334148E+03	6.3439334148E+03	9.3827000000E-01	0.000E+00	0.0
	51	2	1	2	0	0	2.2098925336E+01	3.9455541722E+01	1.3497409820E+03	1.6762418041E+03	9.9294549952E+02	0.000E+00	0.0
	1000022	2	5	5	0	0	-2.2098925336E+01	-3.9455541722E+01	1.2988707685E+03	1.5532200090E+03	8.5051867765E+02	0.000E+00	0.0
	14	1	6	6	0	0	2.6124162308E+02	2.6829782210E+00	5.9089004803E+02	7.2320842975E+02	3.2500000000E+02	0.000E+00	0.0
	-14	1	6	6	0	0	-2.8334054842E+02	-4.2138519943E+01	7.0798072043E+02	8.3001157928E+02	3.2500000000E+02	0.000E+00	0.0
	25	2	5	5	0	0	2.2098925336E+01	3.9455541722E+01	1.2442180880E+02	1.8220573859E+02	1.2519202209E+02	0.000E+00	0.0
	-5	1	9	9	0	501	1.7623522282E+01	3.1477545523E+01	-1.7230492893E+01	4.0196849318E+01	4.1800000000E+00	0.000E+00	0.0
	5	1	9	9	501	0	4.4754030537E+00	7.9779961983E+00	1.4165230170E+02	1.4200888927E+02	4.1800000000E+00	0.000E+00	0.0
</event>
<event>
    11  -1  1.0000000E+00  1.0000000E+00  -1.0000000E+00  -1.0000000E+00
	2212	-1	0	0	0	0	0.0000000000E+00	0.0000000000E+00	6.5000000000E+03	6.5000000000E+03	9.3827000000E-01	0.000E+00	0.0
	2212	-1	0	0	0	0	0.0000000000E+00	0.0000000000E+00	-6.5000000000E+03	6.5000000000E+03	9.3827000000E-01	0.000E+00	0.0
	2212	1	0	0	0	0	0.0000000000E+00	0.0000000000E+00	5.2444157775E+03	5.2444157775E+03	9.3827000000E-01	0.000E+00	0.0
	2212	1	0	0	0	0	0.0000000000E+00	0.0000000000E+00	-6.2809515174E+03	6.2809515174E+03	9.3827000000E-01	0.000E+00	0.0
	51	2	1	2	0	0	-1.5295763426E+02	1.0112207880E+01	1.0619744041E+03	1.5004743265E+03	1.0488733359E+03	0.000E+00	0.0
	1000022	2	5	5	0	0	1.5295763426E+02	-1.0112207880E+01	8.2631513256E+02	1.1859101370E+03	8.3671253129E+02	0.000E+00	0.0
	14	1	6	6	0	0	-1.6951506295E+02	4.3992361645E+01	4.9805573722E+02	6.1996387139E+02	3.2500000000E+02	0.000E+00	0.0
	-14	1	6	6	0	0	3.2247269721E+02	-5.4104569524E+01	3.2825939534E+02	5.6594626558E+02	3.2500000000E+02	0.000E+00	0.0
	25	2	5	5	0	0	-1.5295763426E+02	1.0112207880E+01	2.1022060733E+02	2.8872256811E+02	1.2517876403E+02	0.000E+00	0.0
	-5	1	9	9	0	501	-1.6542247234E+02	-5.4488553836E+00	1.4395524656E+02	2.1939660388E+02	4.1800000000E+00	0.000E+00	0.0
	5	1	9	9	501	0	1.2464838083E+01	1.5561063263E+01	6.6265360778E+01	6.9325964237E+01	4.1800000000E+00	0.000E+00	0.0
</event>
<event>
    11  -1  1.0000000E+00  1.0000000E+00  -1.0000000E+00  -1.0000000E+00
	2212	-1	0	0	0	0	0.0000000000E+00	0.0000000000E+00	6.5000000000E+03	6.5000000000E+03	9.3827000000E-01	0.000E+00	0.0
	2212	-1	0	0	0	0	0.0000000000E+00	0.0000000000E+00	-6.5000000000E+03	6.5000000000E+03	9.3827000000E-01	0.000E+00	0.0
	2212	1	0	0	0	0	0.0000000000E+00	0.0000000000E+00	5.1676831550E+03	5.1676831550E+03	9.3827000000E-01	0.000E+00	0.0
	2212	1	0	0	0	0	0.0000000000E+00	0.0000000000E+00	-6.3175277418E+03	6.3175277418E+03	9.3827000000E-01	0.000E+00	0.0
	51	2	1	2	0	0	3.8842755768E+01	-3.3068000078E+01	1.1859306444E+03	1.5432035506E+03	9.8612547536E+02	0.000E+00	0.0
	1000022	2	5	5	0	0	-3.8842755768E+01	3.3068000078E+01	9.5584671321E+02	1.2783438478E+03	8.4730030203E+02	0.000E+00	0.0
	14	1	6	6	0	0	-1.6244181534E+01	-3.9778316421E+01	7.4912354220E+01	3.3627823109E+02	3.2500000000E+02	0.000E+00	0.0
	-14	1	6	6	0	0	-2.2598574234E+01	7.2846316499E+01	8.8093435899E+02	9.4206561673E+02	3.2500000000E+02	0.000E+00	0.0
	25	2	5	5	0	0	3.8842755768E+01	-3.3068000078E+01	1.9399787364E+02	2.3644525534E+02	1.2517560262E+02	0.000E+00	0.0
	-5	1	9	9	0	501	5.1354702990E+01	-2.6965870663E+01	1.9490515460E+01	6.1333647313E+01	4.1800000000E+00	0.000E+00	0.0
	5	1	9	9	501	0	-1.2511947222E+01	-6.1021294149E+00	1.7450735818E+02	1.7511160803E+02	4.1800000000E+00	0.000E+00	0.0
</event>
<event>
    11  -1  1.0000000E+00  1.0000000E+00  -1.0000000E+00  -1.0000000E+00
	2212	-1	0	0	0	0	0.0000000000E+00	0.0000000000E+00	6.5000000000E+03	6.5000000000E+03	9.3827000000E-01	0.000E+00	0.0
	2212	-1	0	0	0	0	0.0000000000E+00	0.0000000000E+00	-6.5000000000E+03	6.5000000000E+03	9.3827000000E-01	0.000E+00	0.0
	2212	1	0	0	0	0	0.0000000000E+00	0.0000000000E+00	6.2797130572E+03	6.2797130572E+03	9.3827000000E-01	0.000E+00	0.0
	2212	1	0	0	0	0	0.0000000000E+00	0.0000000000E+00	-5.2462756263E+03	5.2462756263E+03	9.3827000000E-01	0.000E+00	0.0
	51	2	1	2	0	0	8.1914601248E+01	-1.7176447369E+00	-1.2159771140E+03	1.6093569311E+03	1.0510549166E+03	0.000E+00	0.0
	1000022	2	5	5	0	0	-8.1914601248E+01	1.7176447369E+00	-6.7067445190E+02	1.0816098129E+03	8.4460796507E+02	0.000E+00	0.0
	14	1	6	6	0	0	1.3003289230E+02	1.2566022078E+02	-5.3641067362E+02	6.5273306561E+02	3.2500000000E+02	0.000E+00	0.0
	-14	1	6	6	0	0	-2.1194749355E+02	-1.2394257604E+02	-1.3426377828E+02	4.2887674725E+02	3.2500000000E+02	0.000E+00	0.0
	25	2	5	5	0	0	8.1914601248E+01	-1.7176447369E+00	-3.6276297896E+02	3.9240150364E+02	1.2517591203E+02	0.000E+00	0.0
	-5	1	9	9	0	501	-3.3457522186E+01	-5.0809290365E+00	-8.4690521405E+01	9.1297198459E+01	4.1800000000E+00	0.000E+00	0.0
	5	1	9	9	501	0	1.1537212343E+02	3.3632842997E+00	-2.7807245756E+02	3.0110430518E+02	4.1800000000E+00	0.000E+00	0.0
</event>
<event>
    11  -1  1.0000000E+00  1.0000000E+00  -1.0000000E+00  -1.0000000E+00
	2212	-1	0	0	0	0	0.0000000000E+00	0.0000000000E+00	6.5000000000E+03	6.5000000000E+03	9.3827000000E-01	0.000E+00	0.0
	2212	-1	0	0	0	0	0.0000000000E+00	0.0000000000E+00	-6.5000000000E+03	6.5000000000E+03	9.3827000000E-01	0.000E+00	0.0
	2212	1	0	0	0	0	0.0000000000E+00	0.0000000000E+00	4.9329520096E+03	4.9329520096E+03	9.3827000000E-01	0.000E+00	0.0
	2212	1	0	0	0	0	0.0000000000E+00	0.0000000000E+00	-6.3242842783E+03	6.3242842783E+03	9.3827000000E-01	0.000E+00	0.0
	51	2	1	2	0	0	9.0164376968E+01	9.5997002424E+01	1.5459770891E+03	1.8731818048E+03	1.0494855285E+03	0.000E+00	0.0
	1000022	2	5	5	0	0	-9.0164376968E+01	-9.5997002424E+01	9.8668106691E+02	1.2991910560E+03	8.3487294412E+02	0.000E+00	0.0
	14	1	6	6	0	0	2.1070829891E+02	4.8337719920E+00	3.9462461807E+02	5.5296920508E+02	3.2500000000E+02	0.000E+00	0.0
	-14	1	6	6	0	0	-3.0087267588E+02	-1.0083077442E+02	5.9205644884E+02	7.4622185091E+02	3.2500000000E+02	0.000E+00	0.0
	25	2	5	5	0	0	9.0164376968E+01	9.5997002424E+01	4.0465120180E+02	4.4357265618E+02	1.2517614326E+02	0.000E+00	0.0
	-5	1	9	9	0	501	5.7873175134E+01	1.8107862856E+01	4.9103076684E+01	7.8139513929E+01	4.1800000000E+00	0.000E+00	0.0
	5	1	9	9	501	0	3.2291201835E+01	7.7889139568E+01	3.5554812512E+02	3.6543314225E+02	4.1800000000E+00	0.000E+00	0.0
</event>
<event>
    11  -1  1.0000000E+00  1.0000000E+00  -1.0000000E+00  -1.0000000E+00
	2212	-1	0	0	0	0	0.0000000000E+00	0.0000000000E+00	6.5000000000E+03	6.5000000000E+03	9.3827000000E-01	0.000E+00	0.0
	2212	-1	0	0	0	0	0.0000000000E+00	0.0000000000E+00	-6.5000000000E+03	6.5000000000E+03	9.3827000000E-01	0.000E+00	0.0
	2212	1	0	0	0	0	0.0000000000E+00	0.0000000000E+00	6.2175391487E+03	6.2175391487E+03	9.3827000000E-01	0.000E+00	0.0
	2212	1	0	0	0	0	0.0000000000E+00	0.0000000000E+00	-5.5172669462E+03	5.5172669462E+03	9.3827000000E-01	0.000E+00	0.0
	51	2	1	2	0	0	-1.0064135013E+01	-3.1434548937E+01	-8.0751355059E+02	1.3279691307E+03	1.0537240911E+03	0.000E+00	0.0
	1000022	2	5	5	0	0	1.0064135013E+01	3.1434548937E+01	-4.9208604015E+02	1.0200399371E+03	8.9288486638E+02	0.000E+00	0.0
	14	1	6	6	0	0	-2.7121175636E+02	1.1604867960E+02	-1.4867253185E+02	4.6341302803E+02	3.2500000000E+02	0.000E+00	0.0
	-14	1	6	6	0	0	2.8127589137E+02	-8.4614130664E+01	-3.4341350830E+02	5.5662690903E+02	3.2500000000E+02	0.000E+00	0.0
	25	2	5	5	0	0	-1.0064135013E+01	-3.1434548937E+01	-2.0818616234E+02	2.4515396811E+02	1.2517816188E+02	0.000E+00	0.0
	-5	1	9	9	0	501	-6.5166940936E+01	-1.1317028368E+01	-7.8354566396E+01	1.0262414822E+02	4.1800000000E+00	0.000E+00	0.0
	5	1	9	9	501	0	5.5102805923E+01	-2.0117520568E+01	-1.2983159594E+02	1.4252981989E+02	4.1800000000E+00	0.000E+00	0.0
</event>
<event>
    11  -1  1.0000000E+00  1.0000000E+00  -1.0000000E+00  -1.0000000E+00
	2212	-1	0	0	0	0	0.0000000000E+00	0.0000000000E+00	6.5000000000E+03	6.5000000000E+03	9.3827000000E-01	0.000E+00	0.0
	2212	-1	0	0	0	0	0.0000000000E+00	0.0000000000E+00	-6.5000000000E+03	6.5000000000E+03	9.3827000000E-01	0.000E+00	0.0
	2212	1	0	0	0	0	0.0000000000E+00	0.0000000000E+00	6.3358414172E+03	6.3358414172E+03	9.3827000000E-01	0.000E+00	0.0
	2212	1	0	0	0	0	0.0000000000E+00	0.0000000000E+00	-4.8649176358E+03	4.8649176358E+03	9.3827000000E-01	0.000E+00	0.0
	51	2	1	2	0	0	4.4405415642E+01	1.0623587487E+02	-1.3880435386E+03	1.7359648561E+03	1.0361714213E+03	0.000E+00	0.0
	1000022	2	5	5	0	0	-4.4405415642E+01	-1.0623587487E+02	-1.3114167257E+03	1.5660277445E+03	8.4815751248E+02	0.000E+00	0.0
	14	1	6	6	0	0	-1.0535338450E+02	-3.6313890167E+01	-1.1327968407E+03	1.1837532329E+03	3.2500000000E+02	0.000E+00	0.0
	-14	1	6	6	0	0	6.0947968857E+01	-6.9921984700E+01	-1.7861988504E+02	3.8227451155E+02	3.2500000000E+02	0.000E+00	0.0
	25	2	5	5	0	0	4.4405415642E+01	1.0623587487E+02	-1.5950705569E+02	2.3321320243E+02	1.2525172625E+02	0.000E+00	0.0
	-5	1	9	9	0	501	3.6552170873E+01	1.7501459865E+01	-1.3458599367E+02	1.4061729761E+02	4.1800000000E+00	0.000E+00	0.0
	5	1	9	9	501	0	7.8532447687E+00	8.8734415001E+01	-2.4921062016E+01	9.2595904829E+01	4.1800000000E+00	0.000E+00	0.0
</event>
<event>
    11  -1  1.0000000E+00  1.0000000E+00  -1.0000000E+00  -1.0000000E+00
	2212	-1	0	0	0	0	0.0000000000E+00	0.0000000000E+00	6.5000000000E+03	6.5000000000E+03	9.3827000000E-01	0.000E+00	0.0
	2212	-1	0	0	0	0	0.0000000000E+00	0.0000000000E+00	-6.5000000000E+03	6.5000000000E+03	9.3827000000E-01	0.000E+00	0.0
	2212	1	0	0	0	0	0.0000000000E+00	0.0000000000E+00	5.4249871151E+03	5.4249871151E+03	9.3827000000E-01	0.000E+00	0.0
	2212	1	0	0	0	0	0.0000000000E+00	0.0000000000E+00	-6.2260417120E+03	6.2260417120E+03	9.3827000000E-01	0.000E+00	0.0
	51	2	1	2	0	0	-4.0568838424E+01	-2.7269586378E+01	1.0266012804E+03	1.4947690150E+03	1.0853730964E+03	0.000E+00	0.0
	1000022	2	5	5	0	0	4.0568838424E+01	2.7269586378E+01	4.2487579302E+02	9.4950973686E+02	8.4773807270E+02	0.000E+00	0.0
	14	1	6	6	0	0	-4.4565265513E+01	1.4810268545E+02	-4.1335986370E+01	3.6229012145E+02	3.2500000000E+02	0.000E+00	0.0
	-14	1	6	6	0	0	8.5134103937E+01	-1.2083309908E+02	4.6621177939E+02	5.8721961542E+02	3.2500000000E+02	0.000E+00	0.0
	25	2	5	5	0	0	-4.0568838424E+01	-2.7269586378E+01	3.7617880388E+02	3.9946143613E+02	1.2517781542E+02	0.000E+00	0.0
	-5	1	9	9	0	501	-7.2237821115E+01	-5.4874275227E+01	2.8176902395E+02	2.9604179458E+02	4.1800000000E+00	0.000E+00	0.0
	5	1	9	9	501	0	3.1668982691E+01	2.7604688849E+01	9.4409779931E+01	1.0341964155E+02	4.1800000000E+00	0.000E+00	0.0
</event>
<event>
    11  -1  1.0000000E+00  1.0000000E+00  -1.0000000E+00  -1.0000000E+00
	2212	-1	0	0	0	0	0.0000000000E+00	0.0000000000E+00	6.5000000000E+03	6.5000000000E+03	9.3827000000E-01	0.000E+00	0.0
	2212	-1	0	0	0	0	0.0000000000E+00	0.0000000000E+00	-6.5000000000E+03	6.5000000000E+03	9.3827000000E-01	0.000E+00	0.0
	2212	1	0	0	0	0	0.0000000000E+00	0.0000000000E+00	6.2890098580E+03	6.2890098580E+03	9.3827000000E-01	0.000E+00	0.0
	2212	1	0	0	0	0	0.0000000000E+00	0.0000000000E+00	-5.1789356360E+03	5.1789356360E+03	9.3827000000E-01	0.000E+00	0.0
	51	2	1	2	0	0	-1.0501614130E+02	5.7806716748E+01	-9.9369664352E+02	1.4548983664E+03	1.0559006728E+03	0.000E+00	0.0
	1000022	2	5	5	0	0	1.0501614130E+02	-5.7806716748E+01	-1.0331511582E+03	1.3424292769E+03	8.4873143070E+02	0.000E+00	0.0
	14	1	6	6	0	0	2.1521769786E+02	1.2277449474E+02	-7.7627364021E+02	8.7727874619E+02	3.2500000000E+02	0.000E+00	0.0
	-14	1	6	6	0	0	-1.1020155656E+02	-1.8058121148E+02	-2.5687751800E+02	4.6515053076E+02	3.2500000000E+02	0.000E+00	0.0
	25	2	5	5	0	0	-1.0501614130E+02	5.7806716748E+01	-7.6923063877E+01	1.8962522906E+02	1.2518212055E+02	0.000E+00	0.0
	-5	1	9	9	0	501	-5.7083736656E+01	2.2285550255E+01	2.9046696532E+01	6.7943960145E+01	4.1800000000E+00	0.000E+00	0.0
	5	1	9	9	501	0	-4.7932404643E+01	3.5521166494E+01	-1.0596976041E+02	1.2168126892E+02	4.1800000000E+00	0.000E+00	0.0
</event>
<event>
    11  -1  1.0000000E+00  1.0000000E+00  -1.0000000E+00  -1.0000000E+00
	2212	-1	0	0	0	0	0.0000000000E+00	0.0000000000E+00	6.5000000000E+03	6.5000000000E+03	9.3827000000E-01	0.000E+00	0.0
	2212	-1	0	0	0	0	0.0000000000E+00	0.0000000000E+00	-6.5000000000E+03	6.5000000000E+03	9.3827000000E-01	0.000E+00	0.0
	2212	1	0	0	0	0	0.0000000000E+00	0.0000000000E+00	6.3098539038E+03	6.3098539038E+03	9.3827000000E-01	0.000E+00	0.0
	2212	1	0	0	0	0	0.0000000000E+00	0.0000000000E+00	-5.0504945441E+03	5.0504945441E+03	9.3827000000E-01	0.000E+00	0.0
	51	2	1	2	0	0	-1.1769192819E+02	4.6562356193E+01	-1.3552922079E+03	1.7191008194E+03	1.0499862930E+03	0.000E+00	0.0
	1000022	2	5	5	0	0	1.1769192819E+02	-4.6562356193E+01	-9.5093225168E+02	1.2835405518E+03	8.5275128718E+02	0.000E+00	0.0
	14	1	6	6	0	0	2.7392165025E+02	1.4505399504E+02	-4.3144455964E+02	6.2277053558E+02	3.2500000000E+02	0.000E+00	0.0
	-14	1	6	6	0	0	-1.5622972205E+02	-1.9161635123E+02	-5.1948769205E+02	6.6077001619E+02	3.2500000000E+02	0.000E+00	0.0
	25	2	5	5	0	0	-1.1769192819E+02	4.6562356193E+01	-3.0842710806E+02	3.5611100038E+02	1.2517316257E+02	0.000E+00	0.0
	-5	1	9	9	0	501	-7.4200381498E+01	7.7702603993E+01	-1.2442443314E+02	1.6444544155E+02	4.1800000000E+00	0.000E+00	0.0
	5	1	9	9	501	0	-4.3491546697E+01	-3.1140247800E+01	-1.8400267491E+02	1.9166555883E+02	4.1800000000E+00	0.000E+00	0.0
</event>
<event>
    11  -1  1.0000000E+00  1.0000000E+00  -1.0000000E+00  -1.0000000E+00
	2212	-1	0	0	0	0	0.0000000000E+00	0.0000000000E+00	6.5000000000E+03	6.5000000000E+03	9.3827000000E-01	0.000E+00	0.0
	2212	-1	0	0	0	0	0.0000000000E+00	0.0000000000E+00	-6.5000000000E+03	6.5000000000E+03	9.3827000000E-01	0.000E+00	0.0
	2212	1	0	0	0	0	0.0000000000E+00	0.0000000000E+00	4.8925850796E+03	4.8925850796E+03	9.3827000000E-01	0.000E+00	0.0
	2212	1	0	0	0	0	0.0000000000E+00	0.0000000000E+00	-6.3293954538E+03	6.3293954538E+03	9.3827000000E-01	0.000E+00	0.0
	51	2	1	2	0	0	-1.6006534033E+01	-1.0632299763E+02	1.5931455805E+03	1.9096080231E+03	1.0473438653E+03	0.000E+00	0.0
	1000022	2	5	5	0	0	1.6006534033E+01	1.0632299763E+02	1.0381425697E+03	1.3465499482E+03	8.5082076789E+02	0.000E+00	0.0
	14	1	6	6	0	0	7.7193947090E+01	3.2050842854E+02	5.3480746027E+02	7.0733908261E+02	3.2500000000E+02	0.000E+00	0.0
	-14	1	6	6	0	0	-6.1187413057E+01	-2.1418543091E+02	5.0333510942E+02	6.3921086560E+02	3.2500000000E+02	0.000E+00	0.0
	25	2	5	5	0	0	-1.6006534033E+01	-1.0632299763E+02	3.9866780457E+02	4.3146951842E+02	1.2517642736E+02	0.000E+00	0.0
	-5	1	9	9	0	501	1.5949423770E+01	-1.0974850061E+02	3.7569438080E+02	3.9174335690E+02	4.1800000000E+00	0.000E+00	0.0
	5	1	9	9	501	0	-3.1955957803E+01	3.4255029755E+00	2.2973423765E+01	3.9726161522E+01	4.1800000000E+00	0.000E+00	0.0
</event>
<event>
    11  -1  1.0000000E+00  1.0000000E+00  -1.0000000E+00  -1.0000000E+00
	2212	-1	0	0	0	0	0.0000000000E+00	0.0000000000E+00	6.5000000000E+03	6.5000000000E+03	9.3827000000E-01	0.000E+00	0.0
	2212	-1	0	0	0	0	0.0000000000E+00	0.0000000000E+00	-6.5000000000E+03	6.5000000000E+03	9.3827000000E-01	0.000E+00	0.0
	2212	1	0	0	0	0	0.0000000000E+00	0.0000000000E+00	6.2239419230E+03	6.2239419230E+03	9.3827000000E-01	0.000E+00	0.0
	2212	1	0	0	0	0	0.0000000000E+00	0.0000000000E+00	-5.4959113606E+03	5.4959113606E+03	9.3827000000E-01	0.000E+00	0.0
	51	2	1	2	0	0	5.5875524231E+01	-1.0501147904E+02	-8.4494466045E+02	1.3552963071E+03	1.0529706149E+03	0.000E+00	0.0
	1000022	2	5	5	0	0	-5.5875524231E+01	1.0501147904E+02	-4.8369788920E+02	9.8094819297E+02	8.4507172734E+02	0.000E+00	0.0
	14	1	6	6	0	0	-2.7207089497E+02	-2.6782990948E+01	-1.4877902237E+02	4.5000010888E+02	3.2500000000E+02	0.000E+00	0.0
	-14	1	6	6	0	0	2.1619537074E+02	1.3179446999E+02	-3.3491886683E+02	5.3094808410E+02	3.2500000000E+02	0.000E+00	0.0
	25	2	5	5	0	0	5.5875524231E+01	-1.0501147904E+02	-2.4433267320E+02	2.9919852351E+02	1.2518712529E+02	0.000E+00	0.0
	-5	1	9	9	0	501	2.9207490662E+01	-1.2843632137E+02	-1.5789352503E+02	2.0566186765E+02	4.1800000000E+00	0.000E+00	0.0
	5	1	9	9	501	0	2.6668033569E+01	2.3424842335E+01	-8.6439148170E+01	9.3536655859E+01	4.1800000000E+00	0.000E+00	0.0
</event>
<event>
    11  -1  1.0000000E+00  1.0000000E+00  -1.0000000E+00  -1.0000000E+00
	2212	-1	0	0	0	0	0.0000000000E+00	0.0000000000E+00	6.5000000000E+03	6.5000000000E+03	9.3827000000E-01	0.000E+00	0.0
	2212	-1	0	0	0	0	0.0000000000E+00	0.0000000000E+00	-6.5000000000E+03	6.5000000000E+03	9.3827000000E-01	0.000E+00	0.0
	2212	1	0	0	0	0	0.0000000000E+00	0.0000000000E+00	5.0245759969E+03	5.0245759969E+03	9.3827000000E-01	0.000E+00	0.0
	2212	1	0	0	0	0	0.0000000000E+00	0.0000000000E+00	-6.3153881913E+03	6.3153881913E+03	9.3827000000E-01	0.000E+00	0.0
	51	2	1	2	0	0	-4.5137331787E+01	-1.1892000945E+02	1.2367156474E+03	1.6233199670E+03	1.0438020767E+03	0.000E+00	0.0
	1000022	2	5	5	0	0	4.5137331787E+01	1.1892000945E+02	1.1290696257E+03	1.4191739709E+03	8.5033945740E+02	0.000E+00	0.0
	14	1	6	6	0	0	-5.7358111826E+01	1.5135279120E+02	1.7011332151E+02	4.0095032429E+02	3.2500000000E+02	0.000E+00	0.0
	-14	1	6	6	0	0	1.0249544361E+02	-3.2432781748E+01	9.5895630417E+02	1.0182236467E+03	3.2500000000E+02	0.000E+00	0.0
	25	2	5	5	0	0	-4.5137331787E+01	-1.1892000945E+02	1.6174256867E+02	2.4086184082E+02	1.2519752584E+02	0.000E+00	0.0
	-5	1	9	9	0	501	3.7363994636E+01	-3.8294897628E+01	9.0501006241E+01	1.0521630962E+02	4.1800000000E+00	0.000E+00	0.0
	5	1	9	9	501	0	-8.2501326423E+01	-8.0625111821E+01	7.1241562425E+01	1.3564553120E+02	4.1800000000E+00	0.000E+00	0.0
</event>
<event>
    11  -1  1.0000000E+00  1.0000000E+00  -1.0000000E+00  -1.0000000E+00
	2212	-1	0	0	0	0	0.0000000000E+00	0.0000000000E+00	6.5000000000E+03	6.5000000000E+03	9.3827000000E-01	0.000E+00	0.0
	2212	-1	0	0	0	0	0.0000000000E+00	0.0000000000E+00	-6.5000000000E+03	6.5000000000E+03	9.3827000000E-01	0.000E+00	0.0
	2212	1	0	0	0	0	0.0000000000E+00	0.0000000000E+00	5.1255274297E+03	5.1255274297E+03	9.3827000000E-01	0.000E+00	0.0
	2212	1	0	0	0	0	0.0000000000E+00	0.0000000000E+00	-6.2997516871E+03	6.2997516871E+03	9.3827000000E-01	0.000E+00	0.0
	51	2	1	2	0	0	-1.0960910172E+01	1.2336204028E+02	1.2299575738E+03	1.6214429441E+03	1.0492584301E+03	0.000E+00	0.0
	1000022	2	5	5	0	0	1.0960910172E+01	-1.2336204028E+02	9.2699562153E+02	1.2711895485E+03	8.6096669582E+02	0.000E+00	0.0
	14	1	6	6	0	0	-2.0970822650E+02	-2.3007509861E+02	3.7791062732E+02	5.8766787687E+02	3.2500000000E+02	0.000E+00	0.0
	-14	1	6	6	0	0	2.2066913667E+02	1.0671305833E+02	5.4908499421E+02	6.8352167162E+02	3.2500000000E+02	0.000E+00	0.0
	25	2	5	5	0	0	-1.0960910172E+01	1.2336204028E+02	2.4722863594E+02	3.0353133471E+02	1.2518361789E+02	0.000E+00	0.0
	-5	1	9	9	0	501	1.4860167192E+01	-2.1314940496E+01	2.0740091028E+01	3.3507835400E+01	4.1800000000E+00	0.000E+00	0.0
	5	1	9	9	501	0	-2.5821077363E+01	1.4467698078E+02	2.2648854491E+02	2.7002349931E+02	4.1800000000E+00	0.000E+00	0.0
</event>
<event>
    11  -1  1.0000000E+00  1.0000000E+00  -1.0000000E+00  -1.0000000E+00
	2212	-1	0	0	0	0	0.0000000000E+00	0.0000000000E+00	6.5000000000E+03	6.5000000000E+03	9.3827000000E-01	0.000E+00	0.0
	2212	-1	0	0	0	0	0.0000000000E+00	0.0000000000E+00	-6.5000000000E+03	6.5000000000E+03	9.3827000000E-01	0.000E+00	0.0
	2212	1	0	0	0	0	0.0000000000E+00	0.0000000000E+00	6.2001302584E+03	6.2001302584E+03	9.3827000000E-01	0.000E+00	0.0
	2212	1	0	0	0	0	0.0000000000E+00	0.0000000000E+00	-5.5738941772E+03	5.5738941772E+03	9.3827000000E-01	0.000E+00	0.0
	51	2	1	2	0	0	-8.9933509070E+01	1.0551565417E+02	-7.0143519720E+02	1.2736080168E+03	1.0539660598E+03	0.000E+00	0.0
	1000022	2	5	5	0	0	8.9933509070E+01	-1.0551565417E+02	-4.4098886570E+02	9.6290314492E+02	8.4468319357E+02	0.000E+00	0.0
	14	1	6	6	0	0	4.5287856844E+01	9.3938643186E+01	-4.6660945523E+02	5.7812182312E+02	3.2500000000E+02	0.000E+00	0.0
	-14	1	6	6	0	0	4.4645652227E+01	-1.9945429735E+02	2.5620589530E+01	3.8478132180E+02	3.2500000000E+02	0.000E+00	0.0
	25	2	5	5	0	0	-8.9933509070E+01	1.0551565417E+02	-1.8524721543E+02	2.6307241948E+02	1.2517578735E+02	0.000E+00	0.0
	-5	1	9	9	0	501	-2.1425400973E+01	-1.9762440610E+01	-8.1127313669E+01	8.6305940056E+01	4.1800000000E+00	0.000E+00	0.0
	5	1	9	9	501	0	-6.8508108097E+01	1.2527809478E+02	-1.0411990176E+02	1.7676647942E+02	4.1800000000E+00	0.000E+00	0.0
</event>
<event>
    11  -1  1.0000000E+00  1.0000000E+00  -1.0000000E+00  -1.0000000E+00
	2212	-1	0	0	0	0	0.0000000000E+00	0.0000000000E+00	6.5000000000E+03	6.5000000000E+03	9.3827000000E-01	0.000E+00	0.0
	2212	-1	0	0	0	0	0.0000000000E+00	0.0000000000E+00	-6.5000000000E+03	6.5000000000E+03	9.3827000000E-01	0.000E+00	0.0
	2212	1	0	0	0	0	0.0000000000E+00	0.0000000000E+00	6.1742230157E+03	6.1742230157E+03	9.3827000000E-01	0.000E+00	0.0
	2212	1	0	0	0	0	0.0000000000E+00	0.0000000000E+00	-5.6741744975E+03	5.6741744975E+03	9.3827000000E-01	0.000E+00	0.0
	51	2	1	2	0	0	1.0438588686E+02	4.2895126698E+01	-4.3961988214E+02	1.1323170108E+03	1.0373715665E+03	0.000E+00	0.0
	1000022	2	5	5	0	0	-1.0438588686E+02	-4.2895126698E+01	-4.7830992116E+02	9.8165834496E+02	8.4978604383E+02	0.000E+00	0.0
	14	1	6	6	0	0	-7.9691643877E+00	2.1538767016E+02	-7.9532779824E+01	3.9800228530E+02	3.2500000000E+02	0.000E+00	0.0
	-14	1	6	6	0	0	-9.6416722469E+01	-2.5828279686E+02	-3.9877714133E+02	5.8365605966E+02	3.2500000000E+02	0.000E+00	0.0
	25	2	5	5	0	0	1.0438588686E+02	4.2895126698E+01	-2.1738597023E+01	1.6994414177E+02	1.2518801641E+02	0.000E+00	0.0
	-5	1	9	9	0	501	-1.5256505817E+01	4.4688309865E+01	-1.6164565283E+01	5.0085642445E+01	4.1800000000E+00	0.000E+00	0.0
	5	1	9	9	501	0	1.1964239267E+02	-1.7931831676E+00	-5.5740317401E+00	1.1985849932E+02	4.1800000000E+00	0.000E+00	0.0
</event>
<event>
    11  -1  1.0000000E+00  1.0000000E+00  -1.0000000E+00  -1.0000000E+00
	2212	-1	0	0	0	0	0.0000000000E+00	0.0000000000E+00	6.5000000000E+03	6.5000000000E+03	9.3827000000E-01	0.000E+00	0.0
	2212	-1	0	0	0	0	0.0000000000E+00	0.0000000000E+00	-6.5000000000E+03	6.5000000000E+03	9.3827000000E-01	0.000E+00	0.0
	2212	1	0	0	0	0	0.0000000000E+00	0.0000000000E+00	6.2314989791E+03	6.2314989791E+03	9.3827000000E-01	0.000E+00	0.0
	2212	1	0	0	0	0	0.0000000000E+00	0.0000000000E+00	-5.4731049166E+03	5.4731049166E+03	9.3827000000E-01	0.000E+00	0.0
	51	2	1	2	0	0	6.3416557018E+01	1.2704252231E+02	-8.0605814422E+02	1.3314581131E+03	1.0501854660E+03	0.000E+00	0.0
	1000022	2	5	5	0	0	-6.3416557018E+01	-1.2704252231E+02	-5.7925289190E+02	1.0347609913E+03	8.4559738303E+02	0.000E+00	0.0
	14	1	6	6	0	0	-2.2708396349E+02	-3.3278936319E+01	-5.1936588497E+02	6.5424806958E+02	3.2500000000E+02	0.000E+00	0.0
	-14	1	6	6	0	0	1.6366740647E+02	-9.3763585993E+01	-5.9887006922E+01	3.8051292172E+02	3.2500000000E+02	0.000E+00	0.0
	25	2	5	5	0	0	6.3416557018E+01	1.2704252231E+02	-1.7914117062E+02	2.6063511298E+02	1.2521038665E+02	0.000E+00	0.0
	-5	1	9	9	0	501	2.7476980641E+01	1.2541255060E+02	-1.8367201747E+02	2.2413427832E+02	4.1800000000E+00	0.000E+00	0.0
	5	1	9	9	501	0	3.5939576377E+01	1.6299717104E+00	4.5308468500E+00	3.6500834663E+01	4.1800000000E+00	0.000E+00	0.0
</event>
<event>
    11  -1  1.0000000E+00  1.0000000E+00  -1.0000000E+00  -1.0000000E+00
	2212	-1	0	0	0	0	0.0000000000E+00	0.0000000000E+00	6.5000000000E+03	6.5000000000E+03	9.3827000000E-01	0.000E+00	0.0
	2212	-1	0	0	0	0	0.0000000000E+00	0.0000000000E+00	-6.5000000000E+03	6.5000000000E+03	9.3827000000E-01	0.000E+00	0.0
	2212	1	0	0	0	0	0.0000000000E+00	0.0000000000E+00	6.3270392622E+03	6.3270392622E+03	9.3827000000E-01	0.000E+00	0.0
	2212	1	0	0	0	0	0.0000000000E+00	0.0000000000E+00	-4.9741383995E+03	4.9741383995E+03	9.3827000000E-01	0.000E+00	0.0
	51	2	1	2	0	0	1.6113694454E+02	5.7747839919E+01	-1.2114410609E+03	1.5976689160E+03	1.0274515040E+03	0.000E+00	0.0
	1000022	2	5	5	0	0	-1.6113694454E+02	-5.7747839919E+01	-1.2102864729E+03	1.4432670057E+03	7.6741538654E+02	0.000E+00	0.0
	14	1	6	6	0	0	9.3843307985E+01	-1.3290218262E+02	-6.2426847837E+02	7.2236119060E+02	3.2500000000E+02	0.000E+00	0.0
	-14	1	6	6	0	0	-2.5498025253E+02	7.5154342697E+01	-5.8601799450E+02	7.2090581513E+02	3.2500000000E+02	0.000E+00	0.0
	25	2	5	5	0	0	1.6113694454E+02	5.7747839919E+01	-1.4261438983E+02	2.5555533264E+02	1.2517881587E+02	0.000E+00	0.0
	-5	1	9	9	0	501	9.5934394372E+01	9.5822846097E+01	-1.0193613290E+02	1.6968757600E+02	4.1800000000E+00	0.000E+00	0.0
	5	1	9	9	501	0	6.5202550171E+01	-3.8075006178E+01	-4.0678256929E+01	8.5867756644E+01	4.1800000000E+00	0.000E+00	0.0
</event>
<event>
    11  -1  1.0000000E+00  1.0000000E+00  -1.0000000E+00  -1.0000000E+00
	2212	-1	0	0	0	0	0.0000000000E+00	0.0000000000E+00	6.5000000000E+03	6.5000000000E+03	9.3827000000E-01	0.000E+00	0.0
	2212	-1	0	0	0	0	0.0000000000E+00	0.0000000000E+00	-6.5000000000E+03	6.5000000000E+03	9.3827000000E-01	0.000E+00	0.0
	2212	1	0	0	0	0	0.0000000000E+00	0.0000000000E+00	5.2745403038E+03	5.2745403038E+03	9.3827000000E-01	0.000E+00	0.0
	2212	1	0	0	0	0	0.0000000000E+00	0.0000000000E+00	-6.2742301809E+03	6.2742301809E+03	9.3827000000E-01	0.000E+00	0.0
	51	2	1	2	0	0	-6.1892687667E+01	-9.9904824351E+01	1.1237502696E+03	1.5437984334E+03	1.0519920417E+03	0.000E+00	0.0
	1000022	2	5	5	0	0	6.1892687667E+01	9.9904824351E+01	7.0341787401E+02	1.1086644957E+03	8.4883954889E+02	0.000E+00	0.0
	14	1	6	6	0	0	-5.3283217410E+01	3.5515273752E+01	6.8087355222E+02	7.5717516470E+02	3.2500000000E+02	0.000E+00	0.0
	-14	1	6	6	0	0	1.1517590508E+02	6.4389550599E+01	2.2544321789E+01	3.5148933096E+02	3.2500000000E+02	0.000E+00	0.0
	25	2	5	5	0	0	-6.1892687667E+01	-9.9904824351E+01	2.9627200302E+02	3.4256501961E+02	1.2554686045E+02	0.000E+00	0.0
	-5	1	9	9	0	501	-6.7116049506E+01	-6.5368205932E+01	2.9252154148E+02	3.0718706203E+02	4.1800000000E+00	0.000E+00	0.0
	5	1	9	9	501	0	5.2233618392E+00	-3.4536618419E+01	3.7504615418E+00	3.5377957580E+01	4.1800000000E+00	0.000E+00	0.0
</event>
<event>
    11  -1  1.0000000E+00  1.0000000E+00  -1.0000000E+00  -1.0000000E+00
	2212	-1	0	0	0	0	0.0000000000E+00	0.0000000000E+00	6.5000000000E+03	6.5000000000E+03	9.3827000000E-01	0.000E+00	0.0
	2212	-1	0	0	0	0	0.0000000000E+00	0.0000000000E+00	-6.5000000000E+03	6.5000000000E+03	9.3827000000E-01	0.000E+00	0.0
	2212	1	0	0	0	0	0.0000000000E+00	0.0000000000E+00	6.3163231761E+03	6.3163231761E+03	9.3827000000E-01	0.000E+00	0.0
	2212	1	0	0	0	0	0.0000000000E+00	0.0000000000E+00	-4.9916318209E+03	4.9916318209E+03	9.3827000000E-01	0.000E+00	0.0
	51	2	1	2	0	0	1.0160819154E+02	9.6632815466E+01	-1.2714553907E+03	1.6566442109E+03	1.0527151112E+03	0.000E+00	0.0
	1000022	2	5	5	0	0	-1.0160819154E+02	-9.6632815466E+01	-1.1485229788E+03	1.4344247322E+03	8.4782495476E+02	0.000E+00	0.0
	14	1	6	6	0	0	8.8497085037E+01	-2.3028494593E+02	-8.2477914769E+02	9.2018940052E+02	3.2500000000E+02	0.000E+00	0.0
	-14	1	6	6	0	0	-1.9010527658E+02	1.3365213046E+02	-3.2374383111E+02	5.1423533167E+02	3.2500000000E+02	0.000E+00	0.0
	25	2	5	5	0	0	1.0160819154E+02	9.6632815466E+01	-1.7616837644E+02	2.5762027077E+02	1.2518299182E+02	0.000E+00	0.0
	-5	1	9	9	0	501	2.9962425429E+00	7.0161731479E+01	-1.2476342405E+02	1.4323068950E+02	4.1800000000E+00	0.000E+00	0.0
	5	1	9	9	501	0	9.8611948996E+01	2.6471083987E+01	-5.1404952382E+01	1.1438958126E+02	4.1800000000E+00	0.000E+00	0.0
</event>
<event>
    11  -1  1.0000000E+00  1.0000000E+00  -1.0000000E+00  -1.0000000E+00
	2212	-1	0	0	0	0	0.0000000000E+00	0.0000000000E+00	6.5000000000E+03	6.5000000000E+03	9.3827000000E-01	0.000E+00	0.0
	2212	-1	0	0	0	0	0.0000000000E+00	0.0000000000E+00	-6.5000000000E+03	6.5000000000E+03	9.3827000000E-01	0.000E+00	0.0
	2212	1	0	0	0	0	0.0000000000E+00	0.0000000000E+00	6.3220712565E+03	6.3220712565E+03	9.3827000000E-01	0.000E+00	0.0
	2212	1	0	0	0	0	0.0000000000E+00	0.0000000000E+00	-5.0347884916E+03	5.0347884916E+03	9.3827000000E-01	0.000E+00	0.0
	51	2	1	2	0	0	5.4505641794E+01	9.6779578741E+01	-1.2837144115E+03	1.6441024337E+03	1.0211821436E+03	0.000E+00	0.0
	1000022	2	5	5	0	0	-5.4505641794E+01	-9.6779578741E+01	-1.0873621055E+03	1.3824363902E+03	8.4642594032E+02	0.000E+00	0.0
	14	1	6	6	0	0	1.3209684019E+01	1.4813464929E+02	-8.0992249698E+02	8.8527838627E+02	3.2500000000E+02	0.000E+00	0.0
	-14	1	6	6	0	0	-6.7715325813E+01	-2.4491422803E+02	-2.7743960854E+02	4.9715800388E+02	3.2500000000E+02	0.000E+00	0.0
	25	2	5	5	0	0	5.4505641794E+01	9.6779578741E+01	-1.9992065939E+02	2.6070386169E+02	1.2514424318E+02	0.000E+00	0.0
	-5	1	9	9	0	501	-1.2192628093E+01	9.1001568424E+01	-1.5424154585E+02	1.7954908103E+02	4.1800000000E+00	0.000E+00	0.0
	5	1	9	9	501	0	6.6698269888E+01	5.7780103169E+00	-4.5679113547E+01	8.1154780658E+01	4.1800000000E+00	0.000E+00	0.0
</event>
<event>
    11  -1  1.0000000E+00  1.0000000E+00  -1.0000000E+00  -1.0000000E+00
	2212	-1	0	0	0	0	0.0000000000E+00	0.0000000000E+00	6.5000000000E+03	6.5000000000E+03	9.3827000000E-01	0.000E+00	0.0
	2212	-1	0	0	0	0	0.0000000000E+00	0.0000000000E+00	-6.5000000000E+03	6.5000000000E+03	9.3827000000E-01	0.000E+00	0.0
	2212	1	0	0	0	0	0.0000000000E+00	0.0000000000E+00	5.0746806573E+03	5.0746806573E+03	9.3827000000E-01	0.000E+00	0.0
	2212	1	0	0	0	0	0.0000000000E+00	0.0000000000E+00	-6.2961509537E+03	6.2961509537E+03	9.3827000000E-01	0.000E+00	0.0
	51	2	1	2	0	0	1.1981646761E+02	-9.6418273572E+01	1.0500242859E+03	1.5127469800E+03	1.0780537811E+03	0.000E+00	0.0
	1000022	2	5	5	0	0	-1.1981646761E+02	9.6418273572E+01	1.1467386112E+03	1.4172437704E+03	8.1848518191E+02	0.000E+00	0.0
	14	1	6	6	0	0	1.6803382372E+02	-5.2351019547E+01	4.4080631119E+02	5.7524881499E+02	3.2500000000E+02	0.000E+00	0.0
	-14	1	6	6	0	0	-2.8785029132E+02	1.4876929312E+02	7.0593230002E+02	8.4199495545E+02	3.2500000000E+02	0.000E+00	0.0
	25	2	5	5	0	0	1.1981646761E+02	-9.6418273572E+01	7.4731685175E+01	2.1192461863E+02	1.2519884115E+02	0.000E+00	0.0
	-5	1	9	9	0	501	6.9925089116E+01	-1.1494504559E+02	8.2649358129E+01	1.5795654590E+02	4.1800000000E+00	0.000E+00	0.0
	5	1	9	9	501	0	4.9891378493E+01	1.8526772021E+01	-7.9176729543E+00	5.3968072732E+01	4.1800000000E+00	0.000E+00	0.0
</event>
<event>
    11  -1  1.0000000E+00  1.0000000E+00  -1.0000000E+00  -1.0000000E+00
	2212	-1	0	0	0	0	0.0000000000E+00	0.0000000000E+00	6.5000000000E+03	6.5000000000E+03	9.3827000000E-01	0.000E+00	0.0
	2212	-1	0	0	0	0	0.0000000000E+00	0.0000000000E+00	-6.5000000000E+03	6.5000000000E+03	9.3827000000E-01	0.000E+00	0.0
	2212	1	0	0	0	0	0.0000000000E+00	0.0000000000E+00	5.8393870530E+03	5.8393870530E+03	9.3827000000E-01	0.000E+00	0.0
	2212	1	0	0	0	0	0.0000000000E+00	0.0000000000E+00	-6.0782327590E+03	6.0782327590E+03	9.3827000000E-01	0.000E+00	0.0
	51	2	1	2	0	0	-4.9602407861E+01	-9.1623859008E+01	3.5189227344E+02	1.1176686014E+03	1.0556986313E+03	0.000E+00	0.0
	1000022	2	5	5	0	0	4.9602407861E+01	9.1623859008E+01	8.3997185154E+01	8.5765731951E+02	8.4715123808E+02	0.000E+00	0.0
	14	1	6	6	0	0	2.1851360581E+02	2.3794493633E+02	2.5855068608E+01	4.5897654975E+02	3.2500000000E+02	0.000E+00	0.0
	-14	1	6	6	0	0	-1.6891119795E+02	-1.4632107732E+02	5.8142116546E+01	3.9868076976E+02	3.2500000000E+02	0.000E+00	0.0
	25	2	5	5	0	0	-4.9602407861E+01	-9.1623859008E+01	1.5484852083E+02	2.2472286849E+02	1.2516777866E+02	0.000E+00	0.0
	-5	1	9	9	0	501	-4.1773645755E+01	9.7732564202E-01	-2.3525407590E+00	4.2059475664E+01	4.1800000000E+00	0.000E+00	0.0
	5	1	9	9	501	0	-7.8287621054E+00	-9.2601184650E+01	1.5720106159E+02	1.8266339283E+02	4.1800000000E+00	0.000E+00	0.0
</event>
<event>
    11  -1  1.0000000E+00  1.0000000E+00  -1.0000000E+00  -1.0000000E+00
	2212	-1	0	0	0	0	0.0000000000E+00	0.0000000000E+00	6.5000000000E+03	6.5000000000E+03	9.3827000000E-01	0.000E+00	0.0
	2212	-1	0	0	0	0	0.0000000000E+00	0.0000000000E+00	-6.5000000000E+03	6.5000000000E+03	9.3827000000E-01	0.000E+00	0.0
	2212	1	0	0	0	0	0.0000000000E+00	0.0000000000E+00	6.2961454057E+03	6.2961454057E+03	9.3827000000E-01	0.000E+00	0.0
	2212	1	0	0	0	0	0.0000000000E+00	0.0000000000E+00	-5.1337700748E+03	5.1337700748E+03	9.3827000000E-01	0.000E+00	0.0
	51	2	1	2	0	0	1.1408445522E+02	-9.2281116014E+01	-1.2037110056E+03	1.6076380938E+03	1.0554851910E+03	0.000E+00	0.0
	1000022	2	5	5	0	0	-1.1408445522E+02	9.2281116014E+01	-9.1886620848E+02	1.2594441098E+03	8.4873628968E+02	0.000E+00	0.0
	14	1	6	6	0	0	-2.4658299321E+01	2.5491079973E+02	-2.2479660302E+02	4.7089920394E+02	3.2500000000E+02	0.000E+00	0.0
	-14	1	6	6	0	0	-8.9426155903E+01	-1.6262968372E+02	-6.9406960546E+02	7.8854490589E+02	3.2500000000E+02	0.000E+00	0.0
	25	2	5	5	0	0	1.1408445522E+02	-9.2281116014E+01	-2.4350912245E+02	3.1064040966E+02	1.2517868869E+02	0.000E+00	0.0
	-5	1	9	9	0	501	-3.3887049154E+00	1.4922897107E+01	4.0470426245E+00	1.6371534231E+01	4.1800000000E+00	0.000E+00	0.0
	5	1	9	9	501	0	1.1747316014E+02	-1.0720401312E+02	-2.4755616507E+02	2.9426887543E+02	4.1800000000E+00	0.000E+00	0.0
</event>
<event>
    11  -1  1.0000000E+00  1.0000000E+00  -1.0000000E+00  -1.0000000E+00
	2212	-1	0	0	0	0	0.0000000000E+00	0.0000000000E+00	6.5000000000E+03	6.5000000000E+03	9.3827000000E-01	0.000E+00	0.0
	2212	-1	0	0	0	0	0.0000000000E+00	0.0000000000E+00	-6.5000000000E+03	6.5000000000E+03	9.3827000000E-01	0.000E+00	0.0
	2212	1	0	0	0	0	0.0000000000E+00	0.0000000000E+00	5.6275135046E+03	5.6275135046E+03	9.3827000000E-01	0.000E+00	0.0
	2212	1	0	0	0	0	0.0000000000E+00	0.0000000000E+00	-6.1827202206E+03	6.1827202206E+03	9.3827000000E-01	0.000E+00	0.0
	51	2	1	2	0	0	8.0829217658E+01	-5.6164592375E+01	4.2370516112E+02	1.1386409348E+03	1.0522781434E+03	0.000E+00	0.0
	1000022	2	5	5	0	0	-8.0829217658E+01	5.6164592375E+01	5.8706960263E+02	1.0273734352E+03	8.3735155883E+02	0.000E+00	0.0
	14	1	6	6	0	0	1.3831538682E+02	-8.3994732295E+01	8.0814928758E+01	3.7194396620E+02	3.2500000000E+02	0.000E+00	0.0
	-14	1	6	6	0	0	-2.1914460448E+02	1.4015932467E+02	5.0625467387E+02	6.5542946896E+02	3.2500000000E+02	0.000E+00	0.0
	25	2	5	5	0	0	8.0829217658E+01	-5.6164592375E+01	-3.1862886566E+01	1.6239283962E+02	1.2517334762E+02	0.000E+00	0.0
	-5	1	9	9	0	501	9.3667387196E+01	-4.2929283715E+01	-6.6660302756E+01	1.2279076182E+02	4.1800000000E+00	0.000E+00	0.0
	5	1	9	9	501	0	-1.2838169538E+01	-1.3235308660E+01	3.4797416190E+01	3.9602077798E+01	4.1800000000E+00	0.000E+00	0.0
</event>
<event>
    11  -1  1.0000000E+00  1.0000000E+00  -1.0000000E+00  -1.0000000E+00
	2212	-1	0	0	0	0	0.0000000000E+00	0.0000000000E+00	6.5000000000E+03	6.5000000000E+03	9.3827000000E-01	0.000E+00	0.0
	2212	-1	0	0	0	0	0.0000000000E+00	0.0000000000E+00	-6.5000000000E+03	6.5000000000E+03	9.3827000000E-01	0.000E+00	0.0
	2212	1	0	0	0	0	0.0000000000E+00	0.0000000000E+00	5.5419687977E+03	5.5419687977E+03	9.3827000000E-01	0.000E+00	0.0
	2212	1	0	0	0	0	0.0000000000E+00	0.0000000000E+00	-6.2146589508E+03	6.2146589508E+03	9.3827000000E-01	0.000E+00	0.0
	51	2	1	2	0	0	5.0440499995E+01	1.5006658306E+02	6.4485510636E+02	1.2386948152E+03	1.0456875794E+03	0.000E+00	0.0
	1000022	2	5	5	0	0	-5.0440499995E+01	-1.5006658306E+02	5.7721365285E+02	1.0201257987E+03	8.2608523813E+02	0.000E+00	0.0
	14	1	6	6	0	0	-5.8026483210E+01	5.1144328486E+01	7.6762729074E+00	3.3416573770E+02	3.2500000000E+02	0.000E+00	0.0
	-14	1	6	6	0	0	7.5859832142E+00	-2.0121091155E+02	5.6953737995E+02	6.8596006095E+02	3.2500000000E+02	0.000E+00	0.0
	25	2	5	5	0	0	5.0440499995E+01	1.5006658306E+02	9.5476500268E+01	2.2324645284E+02	1.2513589896E+02	0.000E+00	0.0
	-5	1	9	9	0	501	4.2272426822E+01	1.5479571385E+02	3.8138834372E+01	1.6498701216E+02	4.1800000000E+00	0.000E+00	0.0
	5	1	9	9	501	0	8.1680731737E+00	-4.7291307842E+00	5.7337665896E+01	5.8259440674E+01	4.1800000000E+00	0.000E+00	0.0
</event>
<event>
    11  -1  1.0000000E+00  1.0000000E+00  -1.0000000E+00  -1.0000000E+00
	2212	-1	0	0	0	0	0.0000000000E+00	0.0000000000E+00	6.5000000000E+03	6.5000000000E+03	9.3827000000E-01	0.000E+00	0.0
	2212	-1	0	0	0	0	0.0000000000E+00	0.0000000000E+00	-6.5000000000E+03	6.5000000000E+03	9.3827000000E-01	0.000E+00	0.0
	2212	1	0	0	0	0	0.0000000000E+00	0.0000000000E+00	6.3212046706E+03	6.3212046706E+03	9.3827000000E-01	0.000E+00	0.0
	2212	1	0	0	0	0	0.0000000000E+00	0.0000000000E+00	-4.9324056589E+03	4.9324056589E+03	9.3827000000E-01	0.000E+00	0.0
	51	2	1	2	0	0	-8.1609408281E+01	1.4189839128E+02	-1.3538864953E+03	1.7265335436E+03	1.0588267970E+03	0.000E+00	0.0
	1000022	2	5	5	0	0	8.1609408281E+01	-1.4189839128E+02	-1.1673803836E+03	1.4439140133E+03	8.3385578418E+02	0.000E+00	0.0
	14	1	6	6	0	0	1.7642964603E+02	-1.3549895772E+02	-9.8165411504E+02	1.0577131885E+03	3.2500000000E+02	0.000E+00	0.0
	-14	1	6	6	0	0	-9.4820237748E+01	-6.3994335618E+00	-1.8572626852E+02	3.8620082477E+02	3.2500000000E+02	0.000E+00	0.0
	25	2	5	5	0	0	-8.1609408281E+01	1.4189839128E+02	-2.2141862815E+02	3.0247565717E+02	1.2518013151E+02	0.000E+00	0.0
	-5	1	9	9	0	501	-4.6058704404E+01	1.5519211521E+02	-2.0412404114E+02	2.6055727479E+02	4.1800000000E+00	0.000E+00	0.0
	5	1	9	9	501	0	-3.5550703877E+01	-1.3293723930E+01	-1.7294587007E+01	4.1918382385E+01	4.1800000000E+00	0.000E+00	0.0
</event>
<event>
    11  -1  1.0000000E+00  1.0000000E+00  -1.0000000E+00  -1.0000000E+00
	2212	-1	0	0	0	0	0.0000000000E+00	0.0000000000E+00	6.5000000000E+03	6.5000000000E+03	9.3827000000E-01	0.000E+00	0.0
	2212	-1	0	0	0	0	0.0000000000E+00	0.0000000000E+00	-6.5000000000E+03	6.5000000000E+03	9.3827000000E-01	0.000E+00	0.0
	2212	1	0	0	0	0	0.0000000000E+00	0.0000000000E+00	4.8807990394E+03	4.8807990394E+03	9.3827000000E-01	0.000E+00	0.0
	2212	1	0	0	0	0	0.0000000000E+00	0.0000000000E+00	-6.3313242636E+03	6.3313242636E+03	9.3827000000E-01	0.000E+00	0.0
	51	2	1	2	0	0	-1.3319596597E+02	1.5293007747E+01	1.4425658652E+03	1.7864632586E+03	1.0452175168E+03	0.000E+00	0.0
	1000022	2	5	5	0	0	1.3319596597E+02	-1.5293007747E+01	1.2154028243E+03	1.4896743789E+03	8.5085291819E+02	0.000E+00	0.0
	14	1	6	6	0	0	3.7640189746E+01	-1.8287636086E+02	2.4373854348E+02	4.4709509595E+02	3.2500000000E+02	0.000E+00	0.0
	-14	1	6	6	0	0	9.5555776220E+01	1.6758335311E+02	9.7166428083E+02	1.0425792830E+03	3.2500000000E+02	0.000E+00	0.0
	25	2	5	5	0	0	-1.3319596597E+02	1.5293007747E+01	2.3512239990E+02	2.9820231805E+02	1.2516803952E+02	0.000E+00	0.0
	-5	1	9	9	0	501	-3.0193761719E+01	-5.0435410225E+01	5.5719320758E+01	8.1101843118E+01	4.1800000000E+00	0.000E+00	0.0
	5	1	9	9	501	0	-1.0300220425E+02	6.5728417972E+01	1.7940307914E+02	2.1710047493E+02	4.1800000000E+00	0.000E+00	0.0
</event>
<event>
    11  -1  1.0000000E+00  1.0000000E+00  -1.0000000E+00  -1.0000000E+00
	2212	-1	0	0	0	0	0.0000000000E+00	0.0000000000E+00	6.5000000000E+03	6.5000000000E+03	9.3827000000E-01	0.000E+00	0.0
	2212	-1	0	0	0	0	0.0000000000E+00	0.0000000000E+00	-6.5000000000E+03	6.5000000000E+03	9.3827000000E-01	0.000E+00	0.0
	2212	1	0	0	0	0	0.0000000000E+00	0.0000000000E+00	5.5813140889E+03	5.5813140889E+03	9.3827000000E-01	0.000E+00	0.0
	2212	1	0	0	0	0	0.0000000000E+00	0.0000000000E+00	-6.1996271034E+03	6.1996271034E+03	9.3827000000E-01	0.000E+00	0.0
	51	2	1	2	0	0	-3.7455130015E+01	-8.4886103192E+01	7.7252577784E+02	1.3073629975E+03	1.0506157207E+03	0.000E+00	0.0
	1000022	2	5	5	0	0	3.7455130015E+01	8.4886103192E+01	3.5269930687E+02	9.1111780093E+02	8.3494329677E+02	0.000E+00	0.0
	14	1	6	6	0	0	3.2285558791E+01	2.2769440859E+02	3.8599474593E+02	5.5453047247E+02	3.2500000000E+02	0.000E+00	0.0
	-14	1	6	6	0	0	5.1695712236E+00	-1.4280830540E+02	-3.3295439060E+01	3.5658732846E+02	3.2500000000E+02	0.000E+00	0.0
	25	2	5	5	0	0	-3.7455130015E+01	-8.4886103192E+01	2.6561370763E+02	3.0794100674E+02	1.2517381783E+02	0.000E+00	0.0
	-5	1	9	9	0	501	-7.4494575673E+01	-1.8573309085E+01	1.6281135267E+02	1.8005393240E+02	4.1800000000E+00	0.000E+00	0.0
	5	1	9	9	501	0	3.7039445658E+01	-6.6312794107E+01	1.0280235497E+02	1.2788707434E+02	4.1800000000E+00	0.000E+00	0.0
</event>
<event>
    11  -1  1.0000000E+00  1.0000000E+00  -1.0000000E+00  -1.0000000E+00
	2212	-1	0	0	0	0	0.0000000000E+00	0.0000000000E+00	6.5000000000E+03	6.5000000000E+03	9.3827000000E-01	0.000E+00	0.0
	2212	-1	0	0	0	0	0.0000000000E+00	0.0000000000E+00	-6.5000000000E+03	6.5000000000E+03	9.3827000000E-01	0.000E+00	0.0
	2212	1	0	0	0	0	0.0000000000E+00	0.0000000000E+00	6.1673245409E+03	6.1673245409E+03	9.3827000000E-01	0.000E+00	0.0
	2212	1	0	0	0	0	0.0000000000E+00	0.0000000000E+00	-5.7042386511E+03	5.7042386511E+03	9.3827000000E-01	0.000E+00	0.0
	51	2	1	2	0	0	-9.9829508261E+01	-6.0973224456E+00	-4.4670770643E+02	1.1262646098E+03	1.0290389149E+03	0.000E+00	0.0
	1000022	2	5	5	0	0	9.9829508261E+01	6.0973224456E+00	-4.0920247557E+02	9.5939719708E+02	8.6197053760E+02	0.000E+00	0.0
	14	1	6	6	0	0	-1.5190069711E+02	1.2712608453E+02	-2.1015637074E+01	3.8118436504E+02	3.2500000000E+02	0.000E+00	0.0
	-14	1	6	6	0	0	2.5173020537E+02	-1.2102876209E+02	-3.8818683850E+02	5.7821283203E+02	3.2500000000E+02	0.000E+00	0.0
	25	2	5	5	0	0	-9.9829508261E+01	-6.0973224456E+00	-5.3883414245E+01	1.6903961092E+02	1.2517132126E+02	0.000E+00	0.0
	-5	1	9	9	0	501	1.3628954903E+01	-3.6893693131E+01	-2.8348437792E+01	4.8662093357E+01	4.1800000000E+00	0.000E+00	0.0
	5	1	9	9	501	0	-1.1345846316E+02	3.0796370685E+01	-2.5534976452E+01	1.2037751756E+02	4.1800000000E+00	0.000E+00	0.0
</event>
<event>
    11  -1  1.0000000E+00  1.0000000E+00  -1.0000000E+00  -1.0000000E+00
	2212	-1	0	0	0	0	0.0000000000E+00	0.0000000000E+00	6.5000000000E+03	6.5000000000E+03	9.3827000000E-01	0.000E+00	0.0
	2212	-1	0	0	0	0	0.0000000000E+00	0.0000000000E+00	-6.5000000000E+03	6.5000000000E+03	9.3827000000E-01	0.000E+00	0.0
	2212	1	0	0	0	0	0.0000000000E+00	0.0000000000E+00	6.0004880538E+03	6.0004880538E+03	9.3827000000E-01	0.000E+00	0.0
	2212	1	0	0	0	0	0.0000000000E+00	0.0000000000E+00	-5.9381075611E+03	5.9381075611E+03	9.3827000000E-01	0.000E+00	0.0
	51	2	1	2	0	0	-6.1476249670E+01	-6.0567592104E+01	-1.8714714707E+02	1.0794256621E+03	1.0595696970E+03	0.000E+00	0.0
	1000022	2	5	5	0	0	6.1476249670E+01	6.0567592104E+01	7.3303080117E+01	8.5763168828E+02	8.5012411370E+02	0.000E+00	0.0
	14	1	6	6	0	0	-8.3587568226E+01	-1.8161001915E+02	-9.8584372496E+01	3.9409765175E+02	3.2500000000E+02	0.000E+00	0.0
	-14	1	6	6	0	0	1.4506381790E+02	2.4217761125E+02	1.7188745261E+02	4.6353403653E+02	3.2500000000E+02	0.000E+00	0.0
	25	2	5	5	0	0	-6.1476249670E+01	-6.0567592104E+01	-1.3568357280E+02	2.0377269682E+02	1.2516196528E+02	0.000E+00	0.0
	-5	1	9	9	0	501	1.0220460946E+01	2.9531898913E+01	-9.5684762125E+00	3.2948733092E+01	4.1800000000E+00	0.000E+00	0.0
	5	1	9	9	501	0	-7.1696710616E+01	-9.0099491017E+01	-1.2611509659E+02	1.7082396373E+02	4.1800000000E+00	0.000E+00	0.0
</event>
<event>
    11  -1  1.0000000E+00  1.0000000E+00  -1.0000000E+00  -1.0000000E+00
	2212	-1	0	0	0	0	0.0000000000E+00	0.0000000000E+00	6.5000000000E+03	6.5000000000E+03	9.3827000000E-01	0.000E+00	0.0
	2212	-1	0	0	0	0	0.0000000000E+00	0.0000000000E+00	-6.5000000000E+03	6.5000000000E+03	9.3827000000E-01	0.000E+00	0.0
	2212	1	0	0	0	0	0.0000000000E+00	0.0000000000E+00	5.2851988224E+03	5.2851988224E+03	9.3827000000E-01	0.000E+00	0.0
	2212	1	0	0	0	0	0.0000000000E+00	0.0000000000E+00	-6.2719479351E+03	6.2719479351E+03	9.3827000000E-01	0.000E+00	0.0
	51	2	1	2	0	0	5.5423918257E+01	6.5876304826E+01	8.2688702334E+02	1.3413818680E+03	1.0526878303E+03	0.000E+00	0.0
	1000022	2	5	5	0	0	-5.5423918257E+01	-6.5876304826E+01	9.7291275448E+02	1.2903376969E+03	8.4320854237E+02	0.000E+00	0.0
	14	1	6	6	0	0	1.4244582781E+02	-1.0628787522E+02	7.7628969803E+02	8.6013872227E+02	3.2500000000E+02	0.000E+00	0.0
	-14	1	6	6	0	0	-1.9786974607E+02	4.0411570393E+01	1.9662305645E+02	4.3019897461E+02	3.2500000000E+02	0.000E+00	0.0
	25	2	5	5	0	0	5.5423918257E+01	6.5876304826E+01	1.3836358131E+01	1.5251554562E+02	1.2513212456E+02	0.000E+00	0.0
	-5	1	9	9	0	501	2.8129998261E+01	7.0422400219E+01	6.1176763054E+01	9.7522715265E+01	4.1800000000E+00	0.000E+00	0.0
	5	1	9	9	501	0	2.7293919996E+01	-4.5460953926E+00	-4.7340404924E+01	5.4992830354E+01	4.1800000000E+00	0.000E+00	0.0
</event>
<event>
    11  -1  1.0000000E+00  1.0000000E+00  -1.0000000E+00  -1.0000000E+00
	2212	-1	0	0	0	0	0.0000000000E+00	0.0000000000E+00	6.5000000000E+03	6.5000000000E+03	9.3827000000E-01	0.000E+00	0.0
	2212	-1	0	0	0	0	0.0000000000E+00	0.0000000000E+00	-6.5000000000E+03	6.5000000000E+03	9.3827000000E-01	0.000E+00	0.0
	2212	1	0	0	0	0	0.0000000000E+00	0.0000000000E+00	6.2982036691E+03	6.2982036691E+03	9.3827000000E-01	0.000E+00	0.0
	2212	1	0	0	0	0	0.0000000000E+00	0.0000000000E+00	-5.1483097296E+03	5.1483097296E+03	9.3827000000E-01	0.000E+00	0.0
	51	2	1	2	0	0	-9.0390853697E+00	7.4885510355E+01	-1.0303215697E+03	1.4691210400E+03	1.0445403527E+03	0.000E+00	0.0
	1000022	2	5	5	0	0	9.0390853697E+00	-7.4885510355E+01	-1.0901498133E+03	1.3955987127E+03	8.6808963057E+02	0.000E+00	0.0
	14	1	6	6	0	0	-2.5227404704E+02	2.3905883583E+01	-3.5164706000E+02	5.4175117986E+02	3.2500000000E+02	0.000E+00	0.0
	-14	1	6	6	0	0	2.6131313241E+02	-9.8791393938E+01	-7.3850275326E+02	8.5384753279E+02	3.2500000000E+02	0.000E+00	0.0
	25	2	5	5	0	0	-9.0390853697E+00	7.4885510355E+01	-5.9744126239E+01	1.5788788865E+02	1.2517859256E+02	0.000E+00	0.0
	-5	1	9	9	0	501	5.5223949178E+01	3.1155604609E+01	-7.1544318508E+00	6.3945402935E+01	4.1800000000E+00	0.000E+00	0.0
	5	1	9	9	501	0	-6.4263034548E+01	4.3729905746E+01	-5.2589694388E+01	9.3942485712E+01	4.1800000000E+00	0.000E+00	0.0
</event>
<event>
    11  -1  1.0000000E+00  1.0000000E+00  -1.0000000E+00  -1.0000000E+00
	2212	-1	0	0	0	0	0.0000000000E+00	0.0000000000E+00	6.5000000000E+03	6.5000000000E+03	9.3827000000E-01	0.000E+00	0.0
	2212	-1	0	0	0	0	0.0000000000E+00	0.0000000000E+00	-6.5000000000E+03	6.5000000000E+03	9.3827000000E-01	0.000E+00	0.0
	2212	1	0	0	0	0	0.0000000000E+00	0.0000000000E+00	6.2938772873E+03	6.2938772873E+03	9.3827000000E-01	0.000E+00	0.0
	2212	1	0	0	0	0	0.0000000000E+00	0.0000000000E+00	-5.1668557958E+03	5.1668557958E+03	9.3827000000E-01	0.000E+00	0.0
	51	2	1	2	0	0	4.4639256817E+01	-7.6751787485E+00	-9.3427053684E+02	1.4050189347E+03	1.0484107969E+03	0.000E+00	0.0
	1000022	2	5	5	0	0	-4.4639256817E+01	7.6751787485E+00	-1.1239870573E+03	1.4061145219E+03	8.4365844523E+02	0.000E+00	0.0
	14	1	6	6	0	0	-1.6933370390E+02	2.2175812512E+02	-6.7067424163E+02	7.9578860743E+02	3.2500000000E+02	0.000E+00	0.0
	-14	1	6	6	0	0	1.2469444708E+02	-2.1408294637E+02	-4.5331281566E+02	6.1032591450E+02	3.2500000000E+02	0.000E+00	0.0
	25	2	5	5	0	0	4.4639256817E+01	-7.6751787485E+00	-3.0344342366E+00	1.3315239499E+02	1.2517500103E+02	0.000E+00	0.0
	-5	1	9	9	0	501	2.6561533335E+01	-2.2500418719E+01	5.7936413740E+01	6.7719157797E+01	4.1800000000E+00	0.000E+00	0.0
	5	1	9	9	501	0	1.8077723482E+01	1.4825239970E+01	-6.0970847977E+01	6.5433237193E+01	4.1800000000E+00	0.000E+00	0.0
</event>
<event>
    11  -1  1.0000000E+00  1.0000000E+00  -1.0000000E+00  -1.0000000E+00
	2212	-1	0	0	0	0	0.0000000000E+00	0.0000000000E+00	6.5000000000E+03	6.5000000000E+03	9.3827000000E-01	0.000E+00	0.0
	2212	-1	0	0	0	0	0.0000000000E+00	0.0000000000E+00	-6.5000000000E+03	6.5000000000E+03	9.3827000000E-01	0.000E+00	0.0
	2212	1	0	0	0	0	0.0000000000E+00	0.0000000000E+00	6.2653337813E+03	6.2653337813E+03	9.3827000000E-01	0.000E+00	0.0
	2212	1	0	0	0	0	0.0000000000E+00	0.0000000000E+00	-5.1144086218E+03	5.1144086218E+03	9.3827000000E-01	0.000E+00	0.0
	51	2	1	2	0	0	1.9451782657E+02	1.1705091561E+02	-1.1447964897E+03	1.6317791095E+03	1.1404411242E+03	0.000E+00	0.0
	1000022	2	5	5	0	0	-1.9451782657E+02	-1.1705091561E+02	-9.1743400716E+02	1.2714023891E+03	8.5043563879E+02	0.000E+00	0.0
	14	1	6	6	0	0	-1.1876590759E+02	-1.9194617995E+02	-1.3602117339E+02	4.1842016731E+02	3.2500000000E+02	0.000E+00	0.0
	-14	1	6	6	0	0	-7.5751918977E+01	7.4895264342E+01	-7.8141283377E+02	8.5298222175E+02	3.2500000000E+02	0.000E+00	0.0
	25	2	5	5	0	0	1.9451782657E+02	1.1705091561E+02	-2.3349115229E+02	3.4885520786E+02	1.2507492215E+02	0.000E+00	0.0
	-5	1	9	9	0	501	2.5621856165E+01	-2.6744428364E+01	-3.6382372069E+01	5.2085442873E+01	4.1800000000E+00	0.000E+00	0.0
	5	1	9	9	501	0	1.6889597040E+02	1.4379534397E+02	-1.9710878022E+02	2.9676976498E+02	4.1800000000E+00	0.000E+00	0.0
</event>
<event>
    11  -1  1.0000000E+00  1.0000000E+00  -1.0000000E+00  -1.0000000E+00
	2212	-1	0	0	0	0	0.0000000000E+00	0.0000000000E+00	6.5000000000E+03	6.5000000000E+03	9.3827000000E-01	0.000E+00	0.0
	2212	-1	0	0	0	0	0.0000000000E+00	0.0000000000E+00	-6.5000000000E+03	6.5000000000E+03	9.3827000000E-01	0.000E+00	0.0
	2212	1	0	0	0	0	0.0000000000E+00	0.0000000000E+00	6.3219365978E+03	6.3219365978E+03	9.3827000000E-01	0.000E+00	0.0
	2212	1	0	0	0	0	0.0000000000E+00	0.0000000000E+00	-5.0257324481E+03	5.0257324481E+03	9.3827000000E-01	0.000E+00	0.0
	51	2	1	2	0	0	6.6876491196E+01	5.6503177802E+01	-1.4280123013E+03	1.7598115215E+03	1.0247206372E+03	0.000E+00	0.0
	1000022	2	5	5	0	0	-6.6876491196E+01	-5.6503177802E+01	-9.5657412820E+02	1.2799303056E+03	8.4588560111E+02	0.000E+00	0.0
	14	1	6	6	0	0	-1.1238372313E+02	-4.1793661016E+01	-8.7554515104E+02	9.4158436841E+02	3.2500000000E+02	0.000E+00	0.0
	-14	1	6	6	0	0	4.5507231936E+01	-1.4709516786E+01	-8.1028977159E+01	3.3834593714E+02	3.2500000000E+02	0.000E+00	0.0
	25	2	5	5	0	0	6.6876491196E+01	5.6503177802E+01	-3.3963002153E+02	3.7240064858E+02	1.2517434788E+02	0.000E+00	0.0
	-5	1	9	9	0	501	-3.0558281278E+01	4.3823043929E+01	-1.0190686652E+02	1.1513795889E+02	4.1800000000E+00	0.000E+00	0.0
	5	1	9	9	501	0	9.7434772474E+01	1.2680133873E+01	-2.3772315500E+02	2.5726268969E+02	4.1800000000E+00	0.000E+00	0.0
</event>
<event>
    11  -1  1.0000000E+00  1.0000000E+00  -1.0000000E+00  -1.0000000E+00
	2212	-1	0	0	0	0	0.0000000000E+00	0.0000000000E+00	6.5000000000E+03	6.5000000000E+03	9.3827000000E-01	0.000E+00	0.0
	2212	-1	0	0	0	0	0.0000000000E+00	0.0000000000E+00	-6.5000000000E+03	6.5000000000E+03	9.3827000000E-01	0.000E+00	0.0
	2212	1	0	0	0	0	0.0000000000E+00	0.0000000000E+00	6.1483237266E+03	6.1483237266E+03	9.3827000000E-01	0.000E+00	0.0
	2212	1	0	0	0	0	0.0000000000E+00	0.0000000000E+00	-5.7105991959E+03	5.7105991959E+03	9.3827000000E-01	0.000E+00	0.0
	51	2	1	2	0	0	-1.5643999010E+01	9.9232492189E+01	-5.6168310860E+02	1.1983463059E+03	1.0537808748E+03	0.000E+00	0.0
	1000022	2	5	5	0	0	1.5643999010E+01	-9.9232492189E+01	-2.3688390284E+02	8.8338877572E+02	8.4508574916E+02	0.000E+00	0.0
	14	1	6	6	0	0	1.3466712837E+02	-2.8686971903E+02	-8.7424018962E+01	4.6227419380E+02	3.2500000000E+02	0.000E+00	0.0
	-14	1	6	6	0	0	-1.1902312936E+02	1.8763722684E+02	-1.4945988388E+02	4.2111458192E+02	3.2500000000E+02	0.000E+00	0.0
	25	2	5	5	0	0	-1.5643999010E+01	9.9232492189E+01	-2.0084062786E+02	2.5768830181E+02	1.2639019298E+02	0.000E+00	0.0
	-5	1	9	9	0	501	1.9456085202E+00	-9.9333819929E+00	1.2949696886E+01	1.6959496448E+01	4.1800000000E+00	0.000E+00	0.0
	5	1	9	9	501	0	-1.7589607530E+01	1.0916587418E+02	-2.1379032474E+02	2.4072880536E+02	4.1800000000E+00	0.000E+00	0.0
</event>
<event>
    11  -1  1.0000000E+00  1.0000000E+00  -1.0000000E+00  -1.0000000E+00
	2212	-1	0	0	0	0	0.0000000000E+00	0.0000000000E+00	6.5000000000E+03	6.5000000000E+03	9.3827000000E-01	0.000E+00	0.0
	2212	-1	0	0	0	0	0.0000000000E+00	0.0000000000E+00	-6.5000000000E+03	6.5000000000E+03	9.3827000000E-01	0.000E+00	0.0
	2212	1	0	0	0	0	0.0000000000E+00	0.0000000000E+00	6.0284425167E+03	6.0284425167E+03	9.3827000000E-01	0.000E+00	0.0
	2212	1	0	0	0	0	0.0000000000E+00	0.0000000000E+00	-5.9352556017E+03	5.9352556017E+03	9.3827000000E-01	0.000E+00	0.0
	51	2	1	2	0	0	-8.8417589265E+01	-8.7349417945E+01	-1.3175484280E+02	1.0478762896E+03	1.0321035746E+03	0.000E+00	0.0
	1000022	2	5	5	0	0	8.8417589265E+01	8.7349417945E+01	-3.9067172101E+01	8.5178071280E+02	8.4175801027E+02	0.000E+00	0.0
	14	1	6	6	0	0	2.7178673732E+02	1.3388353390E+02	9.1625227841E+01	4.5366619183E+02	3.2500000000E+02	0.000E+00	0.0
	-14	1	6	6	0	0	-1.8336914806E+02	-4.6534115950E+01	-1.3069239994E+02	3.9811452097E+02	3.2500000000E+02	0.000E+00	0.0
	25	2	5	5	0	0	-8.8417589265E+01	-8.7349417945E+01	-5.4119742820E+01	1.8452116881E+02	1.2518595875E+02	0.000E+00	0.0
	-5	1	9	9	0	501	-7.5511078218E+01	7.5815161394E+00	-3.5018606053E+00	7.6086383462E+01	4.1800000000E+00	0.000E+00	0.0
	5	1	9	9	501	0	-1.2906511047E+01	-9.4930934085E+01	-5.0617882215E+01	1.0843478535E+02	4.1800000000E+00	0.000E+00	0.0
</event>
<event>
    11  -1  1.0000000E+00  1.0000000E+00  -1.0000000E+00  -1.0000000E+00
	2212	-1	0	0	0	0	0.0000000000E+00	0.0000000000E+00	6.5000000000E+03	6.5000000000E+03	9.3827000000E-01	0.000E+00	0.0
	2212	-1	0	0	0	0	0.0000000000E+00	0.0000000000E+00	-6.5000000000E+03	6.5000000000E+03	9.3827000000E-01	0.000E+00	0.0
	2212	1	0	0	0	0	0.0000000000E+00	0.0000000000E+00	6.0860529209E+03	6.0860529209E+03	9.3827000000E-01	0.000E+00	0.0
	2212	1	0	0	0	0	0.0000000000E+00	0.0000000000E+00	-5.8338106538E+03	5.8338106538E+03	9.3827000000E-01	0.000E+00	0.0
	51	2	1	2	0	0	-1.3760421827E+01	-1.8452769504E+02	-3.0694795466E+02	1.1097411420E+03	1.0502706965E+03	0.000E+00	0.0
	1000022	2	5	5	0	0	1.3760421827E+01	1.8452769504E+02	-1.4675632931E+02	8.3308362326E+02	7.9890617954E+02	0.000E+00	0.0
	14	1	6	6	0	0	6.3083715189E+01	2.4812371080E+02	8.9509208178E+01	4.2329874714E+02	3.2500000000E+02	0.000E+00	0.0
	-14	1	6	6	0	0	-4.9323293362E+01	-6.3596015761E+01	-2.3626553749E+02	4.0978487612E+02	3.2500000000E+02	0.000E+00	0.0
	25	2	5	5	0	0	-1.3760421827E+01	-1.8452769504E+02	-1.0548593782E+02	2.4705280201E+02	1.2517181975E+02	0.000E+00	0.0
	-5	1	9	9	0	501	-5.4264780763E+01	-1.3274156457E+02	-2.9467060996E+01	1.4646081210E+02	4.1800000000E+00	0.000E+00	0.0
	5	1	9	9	501	0	4.0504358935E+01	-5.1786130466E+01	-7.6018876826E+01	1.0059198992E+02	4.1800000000E+00	0.000E+00	0.0
</event>
<event>
    11  -1  1.0000000E+00  1.0000000E+00  -1.0000000E+00  -1.0000000E+00
	2212	-1	0	0	0	0	0.0000000000E+00	0.0000000000E+00	6.5000000000E+03	6.5000000000E+03	9.3827000000E-01	0.000E+00	0.0
	2212	-1	0	0	0	0	0.0000000000E+00	0.0000000000E+00	-6.5000000000E+03	6.5000000000E+03	9.3827000000E-01	0.000E+00	0.0
	2212	1	0	0	0	0	0.0000000000E+00	0.0000000000E+00	5.6910447667E+03	5.6910447667E+03	9.3827000000E-01	0.000E+00	0.0
	2212	1	0	0	0	0	0.0000000000E+00	0.0000000000E+00	-6.1602784584E+03	6.1602784584E+03	9.3827000000E-01	0.000E+00	0.0
	51	2	1	2	0	0	7.0292929465E+01	1.0009021323E+02	4.0860899254E+02	1.1319004070E+03	1.0484646279E+03	0.000E+00	0.0
	1000022	2	5	5	0	0	-7.0292929465E+01	-1.0009021323E+02	4.5113275177E+02	9.7273400361E+02	8.5307182309E+02	0.000E+00	0.0
	14	1	6	6	0	0	-1.8747934257E+02	-1.9538384684E+02	3.6366834991E+01	4.2458320525E+02	3.2500000000E+02	0.000E+00	0.0
	-14	1	6	6	0	0	1.1718641310E+02	9.5293633605E+01	4.1476591678E+02	5.4815079836E+02	3.2500000000E+02	0.000E+00	0.0
	25	2	5	5	0	0	7.0292929465E+01	1.0009021323E+02	1.8100939920E+01	1.7594277137E+02	1.2517614810E+02	0.000E+00	0.0
	-5	1	9	9	0	501	4.6252189230E+01	9.8158880034E+01	6.2464370226E+01	1.2527450134E+02	4.1800000000E+00	0.000E+00	0.0
	5	1	9	9	501	0	2.4040740234E+01	1.9313331986E+00	-4.4363430306E+01	5.0668270026E+01	4.1800000000E+00	0.000E+00	0.0
</event>
<event>
    11  -1  1.0000000E+00  1.0000000E+00  -1.0000000E+00  -1.0000000E+00
	2212	-1	0	0	0	0	0.0000000000E+00	0.0000000000E+00	6.5000000000E+03	6.5000000000E+03	9.3827000000E-01	0.000E+00	0.0
	2212	-1	0	0	0	0	0.0000000000E+00	0.0000000000E+00	-6.5000000000E+03	6.5000000000E+03	9.3827000000E-01	0.000E+00	0.0
	2212	1	0	0	0	0	0.0000000000E+00	0.0000000000E+00	6.1469813300E+03	6.1469813300E+03	9.3827000000E-01	0.000E+00	0.0
	2212	1	0	0	0	0	0.0000000000E+00	0.0000000000E+00	-5.7307609631E+03	5.7307609631E+03	9.3827000000E-01	0.000E+00	0.0
	51	2	1	2	0	0	1.6528773986E+02	1.1513552504E+02	-2.2940844126E+02	1.0860144686E+03	1.0422202104E+03	0.000E+00	0.0
	1000022	2	5	5	0	0	-1.6528773986E+02	-1.1513552504E+02	-4.9670521903E+02	8.7181055893E+02	6.8757643210E+02	0.000E+00	0.0
	14	1	6	6	0	0	-1.2898576755E+02	-7.4301861066E-01	-3.5261934406E+02	4.9659166536E+02	3.2500000000E+02	0.000E+00	0.0
	-14	1	6	6	0	0	-3.6301972309E+01	-1.1439250642E+02	-1.4408587497E+02	3.7521889356E+02	3.2500000000E+02	0.000E+00	0.0
	25	2	5	5	0	0	1.6528773986E+02	1.1513552504E+02	8.0484852071E+01	2.5044714801E+02	1.2517881794E+02	0.000E+00	0.0
	-5	1	9	9	0	501	7.9356668589E+01	9.3288174610E+01	1.0162400933E+02	1.5920136948E+02	4.1800000000E+00	0.000E+00	0.0
	5	1	9	9	501	0	8.5931071269E+01	2.1847350425E+01	-2.1139157261E+01	9.1245778531E+01	4.1800000000E+00	0.000E+00	0.0
</event>
<event>
    11  -1  1.0000000E+00  1.0000000E+00  -1.0000000E+00  -1.0000000E+00
	2212	-1	0	0	0	0	0.0000000000E+00	0.0000000000E+00	6.5000000000E+03	6.5000000000E+03	9.3827000000E-01	0.000E+00	0.0
	2212	-1	0	0	0	0	0.0000000000E+00	0.0000000000E+00	-6.5000000000E+03	6.5000000000E+03	9.3827000000E-01	0.000E+00	0.0
	2212	1	0	0	0	0	0.0000000000E+00	0.0000000000E+00	6.2194982468E+03	6.2194982468E+03	9.3827000000E-01	0.000E+00	0.0
	2212	1	0	0	0	0	0.0000000000E+00	0.0000000000E+00	-5.5155195891E+03	5.5155195891E+03	9.3827000000E-01	0.000E+00	0.0
	51	2	1	2	0	0	-1.2739716150E+02	3.2382076102E+01	-6.4540733288E+02	1.2403318854E+03	1.0509966342E+03	0.000E+00	0.0
	1000022	2	5	5	0	0	1.2739716150E+02	-3.2382076102E+01	-6.4210979201E+02	1.0732129659E+03	8.4982495230E+02	0.000E+00	0.0
	14	1	6	6	0	0	-1.9001419764E+02	-1.2211341940E+02	-3.2287164955E+02	5.1077214547E+02	3.2500000000E+02	0.000E+00	0.0
	-14	1	6	6	0	0	3.1741135914E+02	8.9731343298E+01	-3.1923814246E+02	5.6244082042E+02	3.2500000000E+02	0.000E+00	0.0
	25	2	5	5	0	0	-1.2739716150E+02	3.2382076102E+01	-6.1868865712E+01	1.9176919825E+02	1.2517600905E+02	0.000E+00	0.0
	-5	1	9	9	0	501	2.0393457982E+01	-2.5550815902E+00	1.0541332507E+01	2.3473680185E+01	4.1800000000E+00	0.000E+00	0.0
	5	1	9	9	501	0	-1.4779061948E+02	3.4937157692E+01	-7.2410198218E+01	1.6829551806E+02	4.1800000000E+00	0.000E+00	0.0
</event>
<event>
    11  -1  1.0000000E+00  1.0000000E+00  -1.0000000E+00  -1.0000000E+00
	2212	-1	0	0	0	0	0.0000000000E+00	0.0000000000E+00	6.5000000000E+03	6.5000000000E+03	9.3827000000E-01	0.000E+00	0.0
	2212	-1	0	0	0	0	0.0000000000E+00	0.0000000000E+00	-6.5000000000E+03	6.5000000000E+03	9.3827000000E-01	0.000E+00	0.0
	2212	1	0	0	0	0	0.0000000000E+00	0.0000000000E+00	5.5072408495E+03	5.5072408495E+03	9.3827000000E-01	0.000E+00	0.0
	2212	1	0	0	0	0	0.0000000000E+00	0.0000000000E+00	-6.2195348916E+03	6.2195348916E+03	9.3827000000E-01	0.000E+00	0.0
	51	2	1	2	0	0	2.3041959103E+01	-1.4951330197E+02	6.6576299382E+02	1.2569259064E+03	1.0553374867E+03	0.000E+00	0.0
	1000022	2	5	5	0	0	-2.3041959103E+01	1.4951330197E+02	6.3076448328E+02	1.0606145172E+03	8.3913894050E+02	0.000E+00	0.0
	14	1	6	6	0	0	-2.6591182514E+01	1.3489787385E+01	-1.3126089516E+01	3.2662877947E+02	3.2500000000E+02	0.000E+00	0.0
	-14	1	6	6	0	0	3.5492234112E+00	1.3602351459E+02	6.4389057280E+02	7.3398573777E+02	3.2500000000E+02	0.000E+00	0.0
	25	2	5	5	0	0	2.3041959103E+01	-1.4951330197E+02	8.1529558827E+01	2.1260974160E+02	1.2518256235E+02	0.000E+00	0.0
	-5	1	9	9	0	501	-8.1863401070E-01	-6.5039270170E+01	-2.9053516209E+01	7.1360745722E+01	4.1800000000E+00	0.000E+00	0.0
	5	1	9	9	501	0	2.3860593114E+01	-8.4474031801E+01	1.1058307504E+02	1.4124899588E+02	4.1800000000E+00	0.000E+00	0.0
</event>
<event>
    11  -1  1.0000000E+00  1.0000000E+00  -1.0000000E+00  -1.0000000E+00
	2212	-1	0	0	0	0	0.0000000000E+00	0.0000000000E+00	6.5000000000E+03	6.5000000000E+03	9.3827000000E-01	0.000E+00	0.0
	2212	-1	0	0	0	0	0.0000000000E+00	0.0000000000E+00	-6.5000000000E+03	6.5000000000E+03	9.3827000000E-01	0.000E+00	0.0
	2212	1	0	0	0	0	0.0000000000E+00	0.0000000000E+00	5.6401788628E+03	5.6401788628E+03	9.3827000000E-01	0.000E+00	0.0
	2212	1	0	0	0	0	0.0000000000E+00	0.0000000000E+00	-6.1801812088E+03	6.1801812088E+03	9.3827000000E-01	0.000E+00	0.0
	51	2	1	2	0	0	1.3386666465E+02	-2.3132076207E+01	5.4742420235E+02	1.1908301563E+03	1.0487839754E+03	0.000E+00	0.0
	1000022	2	5	5	0	0	-1.3386666465E+02	2.3132076207E+01	4.4196701718E+02	9.7050376370E+02	8.5328033742E+02	0.000E+00	0.0
	14	1	6	6	0	0	-1.9415717380E+02	-1.7617545867E+01	5.0515305503E+02	6.3151563327E+02	3.2500000000E+02	0.000E+00	0.0
	-14	1	6	6	0	0	6.0290509147E+01	4.0749622074E+01	-6.3186037849E+01	3.3898813043E+02	3.2500000000E+02	0.000E+00	0.0
	25	2	5	5	0	0	1.3386666465E+02	-2.3132076207E+01	9.8035328859E+01	2.0913616471E+02	1.2518639235E+02	0.000E+00	0.0
	-5	1	9	9	0	501	1.0005317157E+02	-7.0316851538E-01	1.2505340412E+02	1.6020910670E+02	4.1800000000E+00	0.000E+00	0.0
	5	1	9	9	501	0	3.3813493075E+01	-2.2428907692E+01	-2.7018075261E+01	4.8927058004E+01	4.1800000000E+00	0.000E+00	0.0
</event>
<event>
    11  -1  1.0000000E+00  1.0000000E+00  -1.0000000E+00  -1.0000000E+00
	2212	-1	0	0	0	0	0.0000000000E+00	0.0000000000E+00	6.5000000000E+03	6.5000000000E+03	9.3827000000E-01	0.000E+00	0.0
	2212	-1	0	0	0	0	0.0000000000E+00	0.0000000000E+00	-6.5000000000E+03	6.5000000000E+03	9.3827000000E-01	0.000E+00	0.0
	2212	1	0	0	0	0	0.0000000000E+00	0.0000000000E+00	5.1112104355E+03	5.1112104355E+03	9.3827000000E-01	0.000E+00	0.0
	2212	1	0	0	0	0	0.0000000000E+00	0.0000000000E+00	-6.3014360367E+03	6.3014360367E+03	9.3827000000E-01	0.000E+00	0.0
	51	2	1	2	0	0	-1.4328740733E+01	-8.3048035749E+01	1.0278689593E+03	1.4719616596E+03	1.0502638910E+03	0.000E+00	0.0
	1000022	2	5	5	0	0	1.4328740733E+01	8.3048035749E+01	1.1486924020E+03	1.4308261413E+03	8.4892103474E+02	0.000E+00	0.0
	14	1	6	6	0	0	1.1283110225E+02	2.8459418516E+02	7.2648423382E+02	8.5271862291E+02	3.2500000000E+02	0.000E+00	0.0
	-14	1	6	6	0	0	-9.8502361518E+01	-2.0154614941E+02	4.2220816816E+02	5.7810751840E+02	3.2500000000E+02	0.000E+00	0.0
	25	2	5	5	0	0	-1.4328740733E+01	-8.3048035749E+01	4.1533199219E+01	1.5652738659E+02	1.2519395777E+02	0.000E+00	0.0
	-5	1	9	9	0	501	-4.0200964834E+01	-7.6321935080E+01	7.4375403869E+01	1.1397512206E+02	4.1800000000E+00	0.000E+00	0.0
	5	1	9	9	501	0	2.5872224100E+01	-6.7261006682E+00	-3.2842204650E+01	4.2552264527E+01	4.1800000000E+00	0.000E+00	0.0
</event>
<event>
    11  -1  1.0000000E+00  1.0000000E+00  -1.0000000E+00  -1.0000000E+00
	2212	-1	0	0	0	0	0.0000000000E+00	0.0000000000E+00	6.5000000000E+03	6.5000000000E+03	9.3827000000E-01	0.000E+00	0.0
	2212	-1	0	0	0	0	0.0000000000E+00	0.0000000000E+00	-6.5000000000E+03	6.5000000000E+03	9.3827000000E-01	0.000E+00	0.0
	2212	1	0	0	0	0	0.0000000000E+00	0.0000000000E+00	5.1437590234E+03	5.1437590234E+03	9.3827000000E-01	0.000E+00	0.0
	2212	1	0	0	0	0	0.0000000000E+00	0.0000000000E+00	-6.2997979038E+03	6.2997979038E+03	9.3827000000E-01	0.000E+00	0.0
	51	2	1	2	0	0	-4.0349035877E+00	2.0726412725E+01	9.7134559789E+02	1.4247972772E+03	1.0421560084E+03	0.000E+00	0.0
	1000022	2	5	5	0	0	4.0349035877E+00	-2.0726412725E+01	1.1484984821E+03	1.4292733685E+03	8.5048676286E+02	0.000E+00	0.0
	14	1	6	6	0	0	1.8353426353E+02	1.7514347298E+02	7.1824781189E+02	8.2816965732E+02	3.2500000000E+02	0.000E+00	0.0
	-14	1	6	6	0	0	-1.7949935994E+02	-1.9586988571E+02	4.3025067021E+02	6.0110371115E+02	3.2500000000E+02	0.000E+00	0.0
	25	2	5	5	0	0	-4.0349035877E+00	2.0726412725E+01	7.5403982474E+00	1.2716970428E+02	1.2517751975E+02	0.000E+00	0.0
	-5	1	9	9	0	501	1.3765178072E+01	-3.5425098945E+01	-3.6997179451E+01	5.3204148804E+01	4.1800000000E+00	0.000E+00	0.0
	5	1	9	9	501	0	-1.7800081660E+01	5.6151511671E+01	4.4537577698E+01	7.3965555478E+01	4.1800000000E+00	0.000E+00	0.0
</event>
<event>
    11  -1  1.0000000E+00  1.0000000E+00  -1.0000000E+00  -1.0000000E+00
	2212	-1	0	0	0	0	0.0000000000E+00	0.0000000000E+00	6.5000000000E+03	6.5000000000E+03	9.3827000000E-01	0.000E+00	0.0
	2212	-1	0	0	0	0	0.0000000000E+00	0.0000000000E+00	-6.5000000000E+03	6.5000000000E+03	9.3827000000E-01	0.000E+00	0.0
	2212	1	0	0	0	0	0.0000000000E+00	0.0000000000E+00	6.2975322759E+03	6.2975322759E+03	9.3827000000E-01	0.000E+00	0.0
	2212	1	0	0	0	0	0.0000000000E+00	0.0000000000E+00	-5.1240129030E+03	5.1240129030E+03	9.3827000000E-01	0.000E+00	0.0
	51	2	1	2	0	0	-6.1137225602E+01	-1.2202028068E+02	-1.2389694913E+03	1.6334148320E+03	1.0556381500E+03	0.000E+00	0.0
	1000022	2	5	5	0	0	6.1137225602E+01	1.2202028068E+02	-9.0865190069E+02	1.2552663592E+03	8.5523017180E+02	0.000E+00	0.0
	14	1	6	6	0	0	1.5020413762E+01	-7.8718255765E+01	-7.8127068388E+02	8.4995944498E+02	3.2500000000E+02	0.000E+00	0.0
	-14	1	6	6	0	0	4.6116811840E+01	2.0073853645E+02	-1.2738121681E+02	4.0530691426E+02	3.2500000000E+02	0.000E+00	0.0
	25	2	5	5	0	0	-6.1137225602E+01	-1.2202028068E+02	-2.6486747225E+02	3.2318846188E+02	1.2517705376E+02	0.000E+00	0.0
	-5	1	9	9	0	501	-3.5868296365E+01	-1.4582232106E+02	-2.1500055269E+02	2.6228494822E+02	4.1800000000E+00	0.000E+00	0.0
	5	1	9	9	501	0	-2.5268929237E+01	2.3802040377E+01	-4.9866919553E+01	6.0903513664E+01	4.1800000000E+00	0.000E+00	0.0
</event>
<event>
    11  -1  1.0000000E+00  1.0000000E+00  -1.0000000E+00  -1.0000000E+00
	2212	-1	0	0	0	0	0.0000000000E+00	0.0000000000E+00	6.5000000000E+03	6.5000000000E+03	9.3827000000E-01	0.000E+00	0.0
	2212	-1	0	0	0	0	0.0000000000E+00	0.0000000000E+00	-6.5000000000E+03	6.5000000000E+03	9.3827000000E-01	0.000E+00	0.0
	2212	1	0	0	0	0	0.0000000000E+00	0.0000000000E+00	6.3084370783E+03	6.3084370783E+03	9.3827000000E-01	0.000E+00	0.0
	2212	1	0	0	0	0	0.0000000000E+00	0.0000000000E+00	-5.0570531777E+03	5.0570531777E+03	9.3827000000E-01	0.000E+00	0.0
	51	2	1	2	0	0	1.2415418438E+02	-6.6863660619E+01	-1.2971211147E+03	1.6757292840E+03	1.0515038928E+03	0.000E+00	0.0
	1000022	2	5	5	0	0	-1.2415418438E+02	6.6863660619E+01	-9.9119621079E+02	1.3131832024E+03	8.4976183964E+02	0.000E+00	0.0
	14	1	6	6	0	0	1.7073263203E+02	-7.6437928419E+01	-2.9171582426E+02	4.7509526483E+02	3.2500000000E+02	0.000E+00	0.0
	-14	1	6	6	0	0	-2.9488681642E+02	1.4330158904E+02	-6.9948038653E+02	8.3808793755E+02	3.2500000000E+02	0.000E+00	0.0
	25	2	5	5	0	0	1.2415418438E+02	-6.6863660619E+01	-2.6018768985E+02	3.2132654164E+02	1.2517228846E+02	0.000E+00	0.0
	-5	1	9	9	0	501	9.5266027416E+01	-9.0805621181E+01	-2.4946008590E+02	2.8207992426E+02	4.1800000000E+00	0.000E+00	0.0
	5	1	9	9	501	0	2.8888156967E+01	2.3941960562E+01	-1.0727603956E+01	3.9246617372E+01	4.1800000000E+00	0.000E+00	0.0
</event>
<event>
    11  -1  1.0000000E+00  1.0000000E+00  -1.0000000E+00  -1.0000000E+00
	2212	-1	0	0	0	0	0.0000000000E+00	0.0000000000E+00	6.5000000000E+03	6.5000000000E+03	9.3827000000E-01	0.000E+00	0.0
	2212	-1	0	0	0	0	0.0000000000E+00	0.0000000000E+00	-6.5000000000E+03	6.5000000000E+03	9.3827000000E-01	0.000E+00	0.0
	2212	1	0	0	0	0	0.0000000000E+00	0.0000000000E+00	5.3378116971E+03	5.3378116971E+03	9.3827000000E-01	0.000E+00	0.0
	2212	1	0	0	0	0	0.0000000000E+00	0.0000000000E+00	-6.2637199050E+03	6.2637199050E+03	9.3827000000E-01	0.000E+00	0.0
	51	2	1	2	0	0	-1.9286020014E+01	1.3187067813E+02	9.0045070949E+02	1.3881574684E+03	1.0480495458E+03	0.000E+00	0.0
	1000022	2	5	5	0	0	1.9286020014E+01	-1.3187067813E+02	7.9606223257E+02	1.1742128788E+03	8.5281825747E+02	0.000E+00	0.0
	14	1	6	6	0	0	9.2536183028E+01	5.1478775960E+01	7.0454160134E+02	7.8308165447E+02	3.2500000000E+02	0.000E+00	0.0
	-14	1	6	6	0	0	-7.3250163014E+01	-1.8334945409E+02	9.1520631229E+01	3.9113122432E+02	3.2500000000E+02	0.000E+00	0.0
	25	2	5	5	0	0	-1.9286020014E+01	1.3187067813E+02	1.2984597532E+02	2.2425551912E+02	1.2517481468E+02	0.000E+00	0.0
	-5	1	9	9	0	501	-1.4773314167E+01	-1.6874285915E+01	-5.0410161968E+00	2.3364001817E+01	4.1800000000E+00	0.000E+00	0.0
	5	1	9	9	501	0	-4.5127058465E+00	1.4874496405E+02	1.3488699152E+02	2.0089151730E+02	4.1800000000E+00	0.000E+00	0.0
</event>
<event>
    11  -1  1.0000000E+00  1.0000000E+00  -1.0000000E+00  -1.0000000E+00
	2212	-1	0	0	0	0	0.0000000000E+00	0.0000000000E+00	6.5000000000E+03	6.5000000000E+03	9.3827000000E-01	0.000E+00	0.0
	2212	-1	0	0	0	0	0.0000000000E+00	0.0000000000E+00	-6.5000000000E+03	6.5000000000E+03	9.3827000000E-01	0.000E+00	0.0
	2212	1	0	0	0	0	0.0000000000E+00	0.0000000000E+00	5.8571157463E+03	5.8571157463E+03	9.3827000000E-01	0.000E+00	0.0
	2212	1	0	0	0	0	0.0000000000E+00	0.0000000000E+00	-6.0866220005E+03	6.0866220005E+03	9.3827000000E-01	0.000E+00	0.0
	51	2	1	2	0	0	-8.9493147501E+01	7.8068206094E+01	1.8471473303E+02	1.0541537021E+03	1.0310270738E+03	0.000E+00	0.0
	1000022	2	5	5	0	0	8.9493147501E+01	-7.8068206094E+01	2.3631946665E+02	8.8358230424E+02	8.4307006221E+02	0.000E+00	0.0
	14	1	6	6	0	0	-3.3528147222E+01	3.2184974577E+01	-1.4243570709E+02	3.5787279849E+02	3.2500000000E+02	0.000E+00	0.0
	-14	1	6	6	0	0	1.2302129472E+02	-1.1025318067E+02	3.7875517374E+02	5.2570950575E+02	3.2500000000E+02	0.000E+00	0.0
	25	2	5	5	0	0	-8.9493147501E+01	7.8068206094E+01	-6.8132124569E+00	1.7267994897E+02	1.2517298694E+02	0.000E+00	0.0
	-5	1	9	9	0	501	-1.7547770727E+01	-1.8178601600E+01	3.6750801932E+01	4.4793745727E+01	4.1800000000E+00	0.000E+00	0.0
	5	1	9	9	501	0	-7.1945376774E+01	9.6246807695E+01	-4.3564014389E+01	1.2788620324E+02	4.1800000000E+00	0.000E+00	0.0
</event>
<event>
    11  -1  1.0000000E+00  1.0000000E+00  -1.0000000E+00  -1.0000000E+00
	2212	-1	0	0	0	0	0.0000000000E+00	0.0000000000E+00	6.5000000000E+03	6.5000000000E+03	9.3827000000E-01	0.000E+00	0.0
	2212	-1	0	0	0	0	0.0000000000E+00	0.0000000000E+00	-6.5000000000E+03	6.5000000000E+03	9.3827000000E-01	0.000E+00	0.0
	2212	1	0	0	0	0	0.0000000000E+00	0.0000000000E+00	5.4523338955E+03	5.4523338955E+03	9.3827000000E-01	0.000E+00	0.0
	2212	1	0	0	0	0	0.0000000000E+00	0.0000000000E+00	-6.2398361843E+03	6.2398361843E+03	9.3827000000E-01	0.000E+00	0.0
	51	2	1	2	0	0	1.1650477513E+02	3.9704822462E+01	8.2516182707E+02	1.3365257654E+03	1.0441547995E+03	0.000E+00	0.0
	1000022	2	5	5	0	0	-1.1650477513E+02	-3.9704822462E+01	6.2173978250E+02	1.0663894304E+03	8.5759910484E+02	0.000E+00	0.0
	14	1	6	6	0	0	-1.0731115890E+02	-1.4876168765E+02	1.9920608481E+01	3.7372122656E+02	3.2500000000E+02	0.000E+00	0.0
	-14	1	6	6	0	0	-9.1936162316E+00	1.0905686519E+02	6.0181917402E+02	6.9266820386E+02	3.2500000000E+02	0.000E+00	0.0
	25	2	5	5	0	0	1.1650477513E+02	3.9704822462E+01	1.6576250632E+02	2.4144048977E+02	1.2516575429E+02	0.000E+00	0.0
	-5	1	9	9	0	501	-4.1582377163E+00	-2.7363426589E+01	6.4101670808E+01	6.9946727271E+01	4.1800000000E+00	0.000E+00	0.0
	5	1	9	9	501	0	1.2066301285E+02	6.7068249051E+01	1.0166083551E+02	1.7149376250E+02	4.1800000000E+00	0.000E+00	0.0
</event>
<event>
    11  -1  1.0000000E+00  1.0000000E+00  -1.0000000E+00  -1.0000000E+00
	2212	-1	0	0	0	0	0.0000000000E+00	0.0000000000E+00	6.5000000000E+03	6.5000000000E+03	9.3827000000E-01	0.000E+00	0.0
	2212	-1	0	0	0	0	0.0000000000E+00	0.0000000000E+00	-6.5000000000E+03	6.5000000000E+03	9.3827000000E-01	0.000E+00	0.0
	2212	1	0	0	0	0	0.0000000000E+00	0.0000000000E+00	6.2766414661E+03	6.2766414661E+03	9.3827000000E-01	0.000E+00	0.0
	2212	1	0	0	0	0	0.0000000000E+00	0.0000000000E+00	-5.1707516689E+03	5.1707516689E+03	9.3827000000E-01	0.000E+00	0.0
	51	2	1	2	0	0	1.0674132199E+02	1.3130538237E+02	-1.0232233821E+03	1.5043991281E+03	1.0897687065E+03	0.000E+00	0.0
	1000022	2	5	5	0	0	-1.0674132199E+02	-1.3130538237E+02	-9.7925966177E+02	1.3069740565E+03	8.4887978299E+02	0.000E+00	0.0
	14	1	6	6	0	0	-2.5269147639E+02	-8.9779690386E+01	-2.3905131039E+02	4.8444184795E+02	3.2500000000E+02	0.000E+00	0.0
	-14	1	6	6	0	0	1.4595015441E+02	-4.1525691981E+01	-7.4020835138E+02	8.2253220856E+02	3.2500000000E+02	0.000E+00	0.0
	25	2	5	5	0	0	1.0674132199E+02	1.3130538237E+02	-1.2663013544E+02	2.4563280850E+02	1.2516178392E+02	0.000E+00	0.0
	-5	1	9	9	0	501	6.2404391207E+00	1.0310088451E+01	2.4399427414E+01	2.7532625419E+01	4.1800000000E+00	0.000E+00	0.0
	5	1	9	9	501	0	1.0050088286E+02	1.2099529392E+02	-1.5102956285E+02	2.1810018308E+02	4.1800000000E+00	0.000E+00	0.0
</event>
<event>
    11  -1  1.0000000E+00  1.0000000E+00  -1.0000000E+00  -1.0000000E+00
	2212	-1	0	0	0	0	0.0000000000E+00	0.0000000000E+00	6.5000000000E+03	6.5000000000E+03	9.3827000000E-01	0.000E+00	0.0
	2212	-1	0	0	0	0	0.0000000000E+00	0.0000000000E+00	-6.5000000000E+03	6.5000000000E+03	9.3827000000E-01	0.000E+00	0.0
	2212	1	0	0	0	0	0.0000000000E+00	0.0000000000E+00	4.8498687315E+03	4.8498687315E+03	9.3827000000E-01	0.000E+00	0.0
	2212	1	0	0	0	0	0.0000000000E+00	0.0000000000E+00	-6.3312449026E+03	6.3312449026E+03	9.3827000000E-01	0.000E+00	0.0
	51	2	1	2	0	0	-1.3246430518E+02	3.6003321353E+01	1.5987993031E+03	1.9206442915E+03	1.0554014646E+03	0.000E+00	0.0
	1000022	2	5	5	0	0	1.3246430518E+02	-3.6003321353E+01	1.1048845105E+03	1.3990348838E+03	8.4716338057E+02	0.000E+00	0.0
	14	1	6	6	0	0	2.3685009716E+02	1.4619833184E+02	7.9681027894E+02	9.0443548216E+02	3.2500000000E+02	0.000E+00	0.0
	-14	1	6	6	0	0	-1.0438579198E+02	-1.8220165319E+02	3.0807423151E+02	4.9459940165E+02	3.2500000000E+02	0.000E+00	0.0
	25	2	5	5	0	0	-1.3246430518E+02	3.6003321353E+01	3.7649166066E+02	4.1985148203E+02	1.2524482075E+02	0.000E+00	0.0
	-5	1	9	9	0	501	-5.0069304268E+01	-1.1740106662E+01	2.8300032227E+01	5.8848360711E+01	4.1800000000E+00	0.000E+00	0.0
	5	1	9	9	501	0	-8.2395000912E+01	4.7743428015E+01	3.4819162843E+02	3.6100312132E+02	4.1800000000E+00	0.000E+00	0.0
</event>
<event>
    11  -1  1.0000000E+00  1.0000000E+00  -1.0000000E+00  -1.0000000E+00
	2212	-1	0	0	0	0	0.0000000000E+00	0.0000000000E+00	6.5000000000E+03	6.5000000000E+03	9.3827000000E-01	0.000E+00	0.0
	2212	-1	0	0	0	0	0.0000000000E+00	0.0000000000E+00	-6.5000000000E+03	6.5000000000E+03	9.3827000000E-01	0.000E+00	0.0
	2212	1	0	0	0	0	0.0000000000E+00	0.0000000000E+00	6.1160026002E+03	6.1160026002E+03	9.3827000000E-01	0.000E+00	0.0
	2212	1	0	0	0	0	0.0000000000E+00	0.0000000000E+00	-5.7808697033E+03	5.7808697033E+03	9.3827000000E-01	0.000E+00	0.0
	51	2	1	2	0	0	-1.6365446680E+02	1.6602644801E+02	-3.7827382161E+02	1.1410588532E+03	1.0509884188E+03	0.000E+00	0.0
	1000022	2	5	5	0	0	1.6365446680E+02	-1.6602644801E+02	-2.1526338260E+02	8.1263574073E+02	7.4812496100E+02	0.000E+00	0.0
	14	1	6	6	0	0	1.7264445862E+02	-3.7549956386E+01	-2.7108922943E+02	4.5861800949E+02	3.2500000000E+02	0.000E+00	0.0
	-14	1	6	6	0	0	-8.9899918203E+00	-1.2847649162E+02	5.5825846828E+01	3.5401773123E+02	3.2500000000E+02	0.000E+00	0.0
	25	2	5	5	0	0	-1.6365446680E+02	1.6602644801E+02	-1.1986951430E+02	2.9049195585E+02	1.2517711458E+02	0.000E+00	0.0
	-5	1	9	9	0	501	-6.4520222848E+01	7.0439211551E+01	-1.1907861681E+02	1.5271454109E+02	4.1800000000E+00	0.000E+00	0.0
	5	1	9	9	501	0	-9.9134243951E+01	9.5587236460E+01	-7.9089748486E-01	1.3777741475E+02	4.1800000000E+00	0.000E+00	0.0
</event>
<event>
    11  -1  1.0000000E+00  1.0000000E+00  -1.0000000E+00  -1.0000000E+00
	2212	-1	0	0	0	0	0.0000000000E+00	0.0000000000E+00	6.5000000000E+03	6.5000000000E+03	9.3827000000E-01	0.000E+00	0.0
	2212	-1	0	0	0	0	0.0000000000E+00	0.0000000000E+00	-6.5000000000E+03	6.5000000000E+03	9.3827000000E-01	0.000E+00	0.0
	2212	1	0	0	0	0	0.0000000000E+00	0.0000000000E+00	6.3013742494E+03	6.3013742494E+03	9.3827000000E-01	0.000E+00	0.0
	2212	1	0	0	0	0	0.0000000000E+00	0.0000000000E+00	-5.0918297696E+03	5.0918297696E+03	9.3827000000E-01	0.000E+00	0.0
	51	2	1	2	0	0	7.3540627967E+00	5.8220471374E+01	-1.0134198340E+03	1.4660351092E+03	1.0577312872E+03	0.000E+00	0.0
	1000022	2	5	5	0	0	-7.3540627967E+00	-5.8220471374E+01	-1.1950692235E+03	1.4677894841E+03	8.5015987626E+02	0.000E+00	0.0
	14	1	6	6	0	0	-1.6938964971E+01	2.4370651399E+02	-6.2046314972E+02	7.4180813803E+02	3.2500000000E+02	0.000E+00	0.0
	-14	1	6	6	0	0	9.5849021748E+00	-3.0192698536E+02	-5.7460607376E+02	7.2598134607E+02	3.2500000000E+02	0.000E+00	0.0
	25	2	5	5	0	0	7.3540627967E+00	5.8220471374E+01	-1.4475256365E+01	1.3900649690E+02	1.2517814349E+02	0.000E+00	0.0
	-5	1	9	9	0	501	2.1046792882E+01	-1.8874531044E+01	-4.6277166891E+01	5.4389925429E+01	4.1800000000E+00	0.000E+00	0.0
	5	1	9	9	501	0	-1.3692730085E+01	7.7095002418E+01	3.1801910526E+01	8.4616571474E+01	4.1800000000E+00	0.000E+00	0.0
</event>
<event>
    11  -1  1.0000000E+00  1.0000000E+00  -1.0000000E+00  -1.0000000E+00
	2212	-1	0	0	0	0	0.0000000000E+00	0.0000000000E+00	6.5000000000E+03	6.5000000000E+03	9.3827000000E-01	0.000E+00	0.0
	2212	-1	0	0	0	0	0.0000000000E+00	0.0000000000E+00	-6.5000000000E+03	6.5000000000E+03	9.3827000000E-01	0.000E+00	0.0
	2212	1	0	0	0	0	0.0000000000E+00	0.0000000000E+00	6.1296364510E+03	6.1296364510E+03	9.3827000000E-01	0.000E+00	0.0
	2212	1	0	0	0	0	0.0000000000E+00	0.0000000000E+00	-5.7913315737E+03	5.7913315737E+03	9.3827000000E-01	0.000E+00	0.0
	51	2	1	2	0	0	4.2840935691E+01	8.4738986421E+01	-3.9608420952E+02	1.1026144187E+03	1.0246266704E+03	0.000E+00	0.0
	1000022	2	5	5	0	0	-4.2840935691E+01	-8.4738986421E+01	-2.2767519529E+02	8.8688200268E+02	8.5188476365E+02	0.000E+00	0.0
	14	1	6	6	0	0	3.5378128055E+01	-1.9082221112E+02	-3.4990480132E+02	5.1548336364E+02	3.2500000000E+02	0.000E+00	0.0
	-14	1	6	6	0	0	-7.8219063747E+01	1.0608322470E+02	1.2222960603E+02	3.7139863905E+02	3.2500000000E+02	0.000E+00	0.0
	25	2	5	5	0	0	4.2840935691E+01	8.4738986421E+01	-1.1062968199E+02	1.9214997265E+02	1.2516646460E+02	0.000E+00	0.0
	-5	1	9	9	0	501	1.8360367148E+01	4.1083508271E+01	-1.3052523017E+02	1.3812771570E+02	4.1800000000E+00	0.000E+00	0.0
	5	1	9	9	501	0	2.4480568543E+01	4.3655478150E+01	1.9895548174E+01	5.4022256949E+01	4.1800000000E+00	0.000E+00	0.0
</event>
<event>
    11  -1  1.0000000E+00  1.0000000E+00  -1.0000000E+00  -1.0000000E+00
	2212	-1	0	0	0	0	0.0000000000E+00	0.0000000000E+00	6.5000000000E+03	6.5000000000E+03	9.3827000000E-01	0.000E+00	0.0
	2212	-1	0	0	0	0	0.0000000000E+00	0.0000000000E+00	-6.5000000000E+03	6.5000000000E+03	9.3827000000E-01	0.000E+00	0.0
	2212	1	0	0	0	0	0.0000000000E+00	0.0000000000E+00	5.3672622788E+03	5.3672622788E+03	9.3827000000E-01	0.000E+00	0.0
	2212	1	0	0	0	0	0.0000000000E+00	0.0000000000E+00	-6.2612881410E+03	6.2612881410E+03	9.3827000000E-01	0.000E+00	0.0
	51	2	1	2	0	0	2.5784972459E+01	7.4626709522E+01	1.0337221593E+03	1.4684710491E+03	1.0399960138E+03	0.000E+00	0.0
	1000022	2	5	5	0	0	-2.5784972459E+01	-7.4626709522E+01	6.0713126699E+02	1.0486236322E+03	8.5133373954E+02	0.000E+00	0.0
	14	1	6	6	0	0	5.5134661625E+01	-4.5568193382E+01	-2.3893035410E+01	3.3363478281E+02	3.2500000000E+02	0.000E+00	0.0
	-14	1	6	6	0	0	-8.0919634083E+01	-2.9058516140E+01	6.3102430240E+02	7.1498884939E+02	3.2500000000E+02	0.000E+00	0.0
	25	2	5	5	0	0	2.5784972459E+01	7.4626709522E+01	2.8689459523E+02	3.2282594802E+02	1.2519613957E+02	0.000E+00	0.0
	-5	1	9	9	0	501	-3.2403358439E+01	-1.4625873394E+01	1.1597815273E+02	1.2137667865E+02	4.1800000000E+00	0.000E+00	0.0
	5	1	9	9	501	0	5.8188330898E+01	8.9252582916E+01	1.7091644250E+02	2.0144926936E+02	4.1800000000E+00	0.000E+00	0.0
</event>
<event>
    11  -1  1.0000000E+00  1.0000000E+00  -1.0000000E+00  -1.0000000E+00
	2212	-1	0	0	0	0	0.0000000000E+00	0.0000000000E+00	6.5000000000E+03	6.5000000000E+03	9.3827000000E-01	0.000E+00	0.0
	2212	-1	0	0	0	0	0.0000000000E+00	0.0000000000E+00	-6.5000000000E+03	6.5000000000E+03	9.3827000000E-01	0.000E+00	0.0
	2212	1	0	0	0	0	0.0000000000E+00	0.0000000000E+00	5.7158752097E+03	5.7158752097E+03	9.3827000000E-01	0.000E+00	0.0
	2212	1	0	0	0	0	0.0000000000E+00	0.0000000000E+00	-6.1465335502E+03	6.1465335502E+03	9.3827000000E-01	0.000E+00	0.0
	51	2	1	2	0	0	1.4231529755E+02	5.6770356905E+01	3.9577222432E+02	1.1352353915E+03	1.0529231801E+03	0.000E+00	0.0
	1000022	2	5	5	0	0	-1.4231529755E+02	-5.6770356905E+01	3.8803197083E+02	9.3519655551E+02	8.3698701884E+02	0.000E+00	0.0
	14	1	6	6	0	0	1.0787225334E+02	1.3058012224E+02	4.6251804280E+01	3.6939385588E+02	3.2500000000E+02	0.000E+00	0.0
	-14	1	6	6	0	0	-2.5018755089E+02	-1.8735047915E+02	3.4178016655E+02	5.6580269962E+02	3.2500000000E+02	0.000E+00	0.0
	25	2	5	5	0	0	1.4231529755E+02	5.6770356905E+01	4.2626369626E+01	2.0239468456E+02	1.2518020454E+02	0.000E+00	0.0
	-5	1	9	9	0	501	1.0553561571E+02	3.3278276382E+01	8.6389514090E+01	1.4044867535E+02	4.1800000000E+00	0.000E+00	0.0
	5	1	9	9	501	0	3.6779681844E+01	2.3492080523E+01	-4.3763144465E+01	6.1946009212E+01	4.1800000000E+00	0.000E+00	0.0
</event>
<event>
    11  -1  1.0000000E+00  1.0000000E+00  -1.0000000E+00  -1.0000000E+00
	2212	-1	0	0	0	0	0.0000000000E+00	0.0000000000E+00	6.5000000000E+03	6.5000000000E+03	9.3827000000E-01	0.000E+00	0.0
	2212	-1	0	0	0	0	0.0000000000E+00	0.0000000000E+00	-6.5000000000E+03	6.5000000000E+03	9.3827000000E-01	0.000E+00	0.0
	2212	1	0	0	0	0	0.0000000000E+00	0.0000000000E+00	5.7775737232E+03	5.7775737232E+03	9.3827000000E-01	0.000E+00	0.0
	2212	1	0	0	0	0	0.0000000000E+00	0.0000000000E+00	-6.1286879366E+03	6.1286879366E+03	9.3827000000E-01	0.000E+00	0.0
	51	2	1	2	0	0	-7.9287571169E+01	-6.6710151702E+01	4.5282801493E+02	1.1352410935E+03	1.0358486211E+03	0.000E+00	0.0
	1000022	2	5	5	0	0	7.9287571169E+01	6.6710151702E+01	1.8905006383E+02	8.6424123317E+02	8.3692067677E+02	0.000E+00	0.0
	14	1	6	6	0	0	1.6923552061E+02	-3.1587872241E+01	-1.2963974527E+02	3.8996143227E+02	3.2500000000E+02	0.000E+00	0.0
	-14	1	6	6	0	0	-8.9947949441E+01	9.8298023943E+01	3.1868980910E+02	4.7427980090E+02	3.2500000000E+02	0.000E+00	0.0
	25	2	5	5	0	0	-7.9287571169E+01	-6.6710151702E+01	1.6206414964E+02	2.2949710700E+02	1.2516936623E+02	0.000E+00	0.0
	-5	1	9	9	0	501	-9.3403439414E+01	-1.7224953943E+01	5.3037066451E+01	1.0886369620E+02	4.1800000000E+00	0.000E+00	0.0
	5	1	9	9	501	0	1.4115868245E+01	-4.9485197759E+01	1.0902708319E+02	1.2063341080E+02	4.1800000000E+00	0.000E+00	0.0
</event>
<event>
    11  -1  1.0000000E+00  1.0000000E+00  -1.0000000E+00  -1.0000000E+00
	2212	-1	0	0	0	0	0.0000000000E+00	0.0000000000E+00	6.5000000000E+03	6.5000000000E+03	9.3827000000E-01	0.000E+00	0.0
	2212	-1	0	0	0	0	0.0000000000E+00	0.0000000000E+00	-6.5000000000E+03	6.5000000000E+03	9.3827000000E-01	0.000E+00	0.0
	2212	1	0	0	0	0	0.0000000000E+00	0.0000000000E+00	5.6520384495E+03	5.6520384495E+03	9.3827000000E-01	0.000E+00	0.0
	2212	1	0	0	0	0	0.0000000000E+00	0.0000000000E+00	-6.1622897331E+03	6.1622897331E+03	9.3827000000E-01	0.000E+00	0.0
	51	2	1	2	0	0	3.5579705557E+01	-8.1607763204E+01	4.0982965286E+02	1.1494987485E+03	1.0702622510E+03	0.000E+00	0.0
	1000022	2	5	5	0	0	-3.5579705557E+01	8.1607763204E+01	5.2853455264E+02	1.0309798285E+03	8.8070704036E+02	0.000E+00	0.0
	14	1	6	6	0	0	1.8656269851E+02	6.9460865852E+01	1.1859446600E+01	3.8130840383E+02	3.2500000000E+02	0.000E+00	0.0
	-14	1	6	6	0	0	-2.2214240407E+02	1.2146897352E+01	5.1667510604E+02	6.4967142465E+02	3.2500000000E+02	0.000E+00	0.0
	25	2	5	5	0	0	3.5579705557E+01	-8.1607763204E+01	-1.8283268996E+01	1.5469198887E+02	1.2517823706E+02	0.000E+00	0.0
	-5	1	9	9	0	501	1.3564878240E+01	-5.7316554726E+01	5.0940093782E+01	7.7984350493E+01	4.1800000000E+00	0.000E+00	0.0
	5	1	9	9	501	0	2.2014827317E+01	-2.4291208478E+01	-6.9223362778E+01	7.6707638377E+01	4.1800000000E+00	0.000E+00	0.0
</event>
<event>
    11  -1  1.0000000E+00  1.0000000E+00  -1.0000000E+00  -1.0000000E+00
	2212	-1	0	0	0	0	0.0000000000E+00	0.0000000000E+00	6.5000000000E+03	6.5000000000E+03	9.3827000000E-01	0.000E+00	0.0
	2212	-1	0	0	0	0	0.0000000000E+00	0.0000000000E+00	-6.5000000000E+03	6.5000000000E+03	9.3827000000E-01	0.000E+00	0.0
	2212	1	0	0	0	0	0.0000000000E+00	0.0000000000E+00	5.5852347552E+03	5.5852347552E+03	9.3827000000E-01	0.000E+00	0.0
	2212	1	0	0	0	0	0.0000000000E+00	0.0000000000E+00	-6.1960762083E+03	6.1960762083E+03	9.3827000000E-01	0.000E+00	0.0
	51	2	1	2	0	0	-1.1390166260E+02	-4.8023269863E+01	7.2125770279E+02	1.2835763258E+03	1.0545499927E+03	0.000E+00	0.0
	1000022	2	5	5	0	0	1.1390166260E+02	4.8023269863E+01	3.9234354328E+02	9.3816815941E+02	8.4317626637E+02	0.000E+00	0.0
	14	1	6	6	0	0	3.0191913849E+02	1.0675698148E+02	1.2358795606E+02	4.7270625357E+02	3.2500000000E+02	0.000E+00	0.0
	-14	1	6	6	0	0	-1.8801747589E+02	-5.8733711620E+01	2.6875558722E+02	4.6546190583E+02	3.2500000000E+02	0.000E+00	0.0
	25	2	5	5	0	0	-1.1390166260E+02	-4.8023269863E+01	2.1849790979E+02	2.8052087714E+02	1.2518307689E+02	0.000E+00	0.0
	-5	1	9	9	0	501	-1.0576543663E+02	-7.5863509640E+01	1.1764789792E+02	1.7549957255E+02	4.1800000000E+00	0.000E+00	0.0
	5	1	9	9	501	0	-8.1362259657E+00	2.7840239778E+01	1.0085001187E+02	1.0502130459E+02	4.1800000000E+00	0.000E+00	0.0
</event>
<event>
    11  -1  1.0000000E+00  1.0000000E+00  -1.0000000E+00  -1.0000000E+00
	2212	-1	0	0	0	0	0.0000000000E+00	0.0000000000E+00	6.5000000000E+03	6.5000000000E+03	9.3827000000E-01	0.000E+00	0.0
	2212	-1	0	0	0	0	0.0000000000E+00	0.0000000000E+00	-6.5000000000E+03	6.5000000000E+03	9.3827000000E-01	0.000E+00	0.0
	2212	1	0	0	0	0	0.0000000000E+00	0.0000000000E+00	6.3155205946E+03	6.3155205946E+03	9.3827000000E-01	0.000E+00	0.0
	2212	1	0	0	0	0	0.0000000000E+00	0.0000000000E+00	-4.9944620233E+03	4.9944620233E+03	9.3827000000E-01	0.000E+00	0.0
	51	2	1	2	0	0	-1.0673835183E+02	-2.3670065839E+01	-1.1803134086E+03	1.5862080863E+03	1.0540222971E+03	0.000E+00	0.0
	1000022	2	5	5	0	0	1.0673835183E+02	2.3670065839E+01	-1.2339896704E+03	1.5023863618E+03	8.4998877975E+02	0.000E+00	0.0
	14	1	6	6	0	0	1.7513038606E+02	-6.1257771014E+01	-2.2478879303E+02	4.3655259489E+02	3.2500000000E+02	0.000E+00	0.0
	-14	1	6	6	0	0	-6.8392034229E+01	8.4927836854E+01	-1.0092008773E+03	1.0658337669E+03	3.2500000000E+02	0.000E+00	0.0
	25	2	5	5	0	0	-1.0673835183E+02	-2.3670065839E+01	-8.7068900981E+01	1.8763102029E+02	1.2518409839E+02	0.000E+00	0.0
	-5	1	9	9	0	501	-7.3356481525E+01	3.7473165893E+01	-8.4077816390E+01	1.1777929849E+02	4.1800000000E+00	0.000E+00	0.0
	5	1	9	9	501	0	-3.3381870305E+01	-6.1143231733E+01	-2.9910845916E+00	6.9851721803E+01	4.1800000000E+00	0.000E+00	0.0
</event>
<event>
    11  -1  1.0000000E+00  1.0000000E+00  -1.0000000E+00  -1.0000000E+00
	2212	-1	0	0	0	0	0.0000000000E+00	0.0000000000E+00	6.5000000000E+03	6.5000000000E+03	9.3827000000E-01	0.000E+00	0.0
	2212	-1	0	0	0	0	0.0000000000E+00	0.0000000000E+00	-6.5000000000E+03	6.5000000000E+03	9.3827000000E-01	0.000E+00	0.0
	2212	1	0	0	0	0	0.0000000000E+00	0.0000000000E+00	5.3649893776E+03	5.3649893776E+03	9.3827000000E-01	0.000E+00	0.0
	2212	1	0	0	0	0	0.0000000000E+00	0.0000000000E+00	-6.2422728911E+03	6.2422728911E+03	9.3827000000E-01	0.000E+00	0.0
	51	2	1	2	0	0	-1.1362899863E+02	1.0949121375E+02	8.7779003487E+02	1.4019654937E+03	1.0817079204E+03	0.000E+00	0.0
	1000022	2	5	5	0	0	1.1362899863E+02	-1.0949121375E+02	7.2263011194E+02	1.1387929840E+03	8.6588411839E+02	0.000E+00	0.0
	14	1	6	6	0	0	1.6492139261E+02	2.1013577466E+02	3.6905889729E+02	5.5962985910E+02	3.2500000000E+02	0.000E+00	0.0
	-14	1	6	6	0	0	-5.1292393972E+01	-3.1962698841E+02	3.5357121465E+02	5.7916312489E+02	3.2500000000E+02	0.000E+00	0.0
	25	2	5	5	0	0	-1.1362899863E+02	1.0949121375E+02	1.5465340161E+02	2.5394474732E+02	1.2518140773E+02	0.000E+00	0.0
	-5	1	9	9	0	501	-1.3051970951E+02	7.7675569906E+01	8.1791979651E+01	1.7255807447E+02	4.1800000000E+00	0.000E+00	0.0
	5	1	9	9	501	0	1.6890710877E+01	3.1815643847E+01	7.2861421955E+01	8.1386672844E+01	4.1800000000E+00	0.000E+00	0.0
</event>
<event>
    11  -1  1.0000000E+00  1.0000000E+00  -1.0000000E+00  -1.0000000E+00
	2212	-1	0	0	0	0	0.0000000000E+00	0.0000000000E+00	6.5000000000E+03	6.5000000000E+03	9.3827000000E-01	0.000E+00	0.0
	2212	-1	0	0	0	0	0.0000000000E+00	0.0000000000E+00	-6.5000000000E+03	6.5000000000E+03	9.3827000000E-01	0.000E+00	0.0
	2212	1	0	0	0	0	0.0000000000E+00	0.0000000000E+00	6.2918099362E+03	6.2918099362E+03	9.3827000000E-01	0.000E+00	0.0
	2212	1	0	0	0	0	0.0000000000E+00	0.0000000000E+00	-5.2154571612E+03	5.2154571612E+03	9.3827000000E-01	0.000E+00	0.0
	51	2	1	2	0	0	-5.1054744595E+01	-1.0214918734E+02	-9.7895656505E+02	1.4286753381E+03	1.0342708649E+03	0.000E+00	0.0
	1000022	2	5	5	0	0	5.1054744595E+01	1.0214918734E+02	-9.9063484393E+02	1.3028398016E+03	8.3844684462E+02	0.000E+00	0.0
	14	1	6	6	0	0	-2.1957819636E+02	1.3072186302E+02	-5.8328839280E+02	7.1494974576E+02	3.2500000000E+02	0.000E+00	0.0
	-14	1	6	6	0	0	2.7063294095E+02	-2.8572675681E+01	-4.0734645113E+02	5.8789005585E+02	3.2500000000E+02	0.000E+00	0.0
	25	2	5	5	0	0	-5.1054744595E+01	-1.0214918734E+02	-8.5717931167E+01	1.8989310098E+02	1.2518299667E+02	0.000E+00	0.0
	-5	1	9	9	0	501	-4.1086750218E+01	1.8826521629E+01	-3.8719995326E+01	5.9659612789E+01	4.1800000000E+00	0.000E+00	0.0
	5	1	9	9	501	0	-9.9679943778E+00	-1.2097570897E+02	-4.6997935841E+01	1.3023348819E+02	4.1800000000E+00	0.000E+00	0.0
</event>
<event>
    11  -1  1.0000000E+00  1.0000000E+00  -1.0000000E+00  -1.0000000E+00
	2212	-1	0	0	0	0	0.0000000000E+00	0.0000000000E+00	6.5000000000E+03	6.5000000000E+03	9.3827000000E-01	0.000E+00	0.0
	2212	-1	0	0	0	0	0.0000000000E+00	0.0000000000E+00	-6.5000000000E+03	6.5000000000E+03	9.3827000000E-01	0.000E+00	0.0
	2212	1	0	0	0	0	0.0000000000E+00	0.0000000000E+00	6.2406595726E+03	6.2406595726E+03	9.3827000000E-01	0.000E+00	0.0
	2212	1	0	0	0	0	0.0000000000E+00	0.0000000000E+00	-5.4300189395E+03	5.4300189395E+03	9.3827000000E-01	0.000E+00	0.0
	51	2	1	2	0	0	3.3515973248E+01	1.7788931434E+01	-9.9151823307E+02	1.4472406695E+03	1.0535451496E+03	0.000E+00	0.0
	1000022	2	5	5	0	0	-3.3515973248E+01	-1.7788931434E+01	-4.9113918314E+02	9.8408127785E+02	8.5191460702E+02	0.000E+00	0.0
	14	1	6	6	0	0	2.4726904493E+01	-2.3467209515E+02	-4.2284006336E+02	5.8318190235E+02	3.2500000000E+02	0.000E+00	0.0
	-14	1	6	6	0	0	-5.8242877741E+01	2.1688316372E+02	-6.8299119785E+01	4.0089937550E+02	3.2500000000E+02	0.000E+00	0.0
	25	2	5	5	0	0	3.3515973248E+01	1.7788931434E+01	-3.1950144996E+02	3.4524021012E+02	1.2517930983E+02	0.000E+00	0.0
	-5	1	9	9	0	501	-2.9150868546E+01	3.8061008527E+01	-2.2427390605E+02	2.2937888055E+02	4.1800000000E+00	0.000E+00	0.0
	5	1	9	9	501	0	6.2666841794E+01	-2.0272077093E+01	-9.5227543916E+01	1.1586132957E+02	4.1800000000E+00	0.000E+00	0.0
</event>
<event>
    11  -1  1.0000000E+00  1.0000000E+00  -1.0000000E+00  -1.0000000E+00
	2212	-1	0	0	0	0	0.0000000000E+00	0.0000000000E+00	6.5000000000E+03	6.5000000000E+03	9.3827000000E-01	0.000E+00	0.0
	2212	-1	0	0	0	0	0.0000000000E+00	0.0000000000E+00	-6.5000000000E+03	6.5000000000E+03	9.3827000000E-01	0.000E+00	0.0
	2212	1	0	0	0	0	0.0000000000E+00	0.0000000000E+00	5.0172320065E+03	5.0172320065E+03	9.3827000000E-01	0.000E+00	0.0
	2212	1	0	0	0	0	0.0000000000E+00	0.0000000000E+00	-6.3176093158E+03	6.3176093158E+03	9.3827000000E-01	0.000E+00	0.0
	51	2	1	2	0	0	8.0711290282E+01	3.8425646013E+01	1.1592830642E+03	1.5600321603E+03	1.0400828214E+03	0.000E+00	0.0
	1000022	2	5	5	0	0	-8.0711290282E+01	-3.8425646013E+01	1.2259044440E+03	1.4942472776E+03	8.4967192381E+02	0.000E+00	0.0
	14	1	6	6	0	0	-7.4178017213E+01	-2.7770500330E+02	4.8666064027E+02	6.5198621602E+02	3.2500000000E+02	0.000E+00	0.0
	-14	1	6	6	0	0	-6.5332730691E+00	2.3927935728E+02	7.3924380371E+02	8.4226106155E+02	3.2500000000E+02	0.000E+00	0.0
	25	2	5	5	0	0	8.0711290282E+01	3.8425646013E+01	7.4472865344E+01	1.7091140017E+02	1.2519447426E+02	0.000E+00	0.0
	-5	1	9	9	0	501	9.9393623237E+00	4.5088353263E+01	-2.1748208905E+01	5.1207494705E+01	4.1800000000E+00	0.000E+00	0.0
	5	1	9	9	501	0	7.0771927958E+01	-6.6627072500E+00	9.6221074249E+01	1.1970390547E+02	4.1800000000E+00	0.000E+00	0.0
</event>
<event>
    11  -1  1.0000000E+00  1.0000000E+00  -1.0000000E+00  -1.0000000E+00
	2212	-1	0	0	0	0	0.0000000000E+00	0.0000000000E+00	6.5000000000E+03	6.5000000000E+03	9.3827000000E-01	0.000E+00	0.0
	2212	-1	0	0	0	0	0.0000000000E+00	0.0000000000E+00	-6.5000000000E+03	6.5000000000E+03	9.3827000000E-01	0.000E+00	0.0
	2212	1	0	0	0	0	0.0000000000E+00	0.0000000000E+00	5.9444951070E+03	5.9444951070E+03	9.3827000000E-01	0.000E+00	0.0
	2212	1	0	0	0	0	0.0000000000E+00	0.0000000000E+00	-5.9863273752E+03	5.9863273752E+03	9.3827000000E-01	0.000E+00	0.0
	51	2	1	2	0	0	1.0421476714E+02	-1.0273934233E+02	6.3231627831E+01	1.0801874628E+03	1.0683588469E+03	0.000E+00	0.0
	1000022	2	5	5	0	0	-1.0421476714E+02	1.0273934233E+02	1.3246230873E+01	8.7448558214E+02	8.6205190133E+02	0.000E+00	0.0
	14	1	6	6	0	0	8.3399866731E-02	2.9096123624E+02	-1.3627894255E+02	4.5700700009E+02	3.2500000000E+02	0.000E+00	0.0
	-14	1	6	6	0	0	-1.0429816701E+02	-1.8822189390E+02	1.4952517342E+02	4.1747858205E+02	3.2500000000E+02	0.000E+00	0.0
	25	2	5	5	0	0	1.0421476714E+02	-1.0273934233E+02	2.8586037365E+01	1.9469193561E+02	1.2518665307E+02	0.000E+00	0.0
	-5	1	9	9	0	501	1.4469147724E+01	-6.7802571437E+01	6.1561837908E+01	9.2810975730E+01	4.1800000000E+00	0.000E+00	0.0
	5	1	9	9	501	0	8.9745619415E+01	-3.4936770896E+01	-3.2975800543E+01	1.0188095988E+02	4.1800000000E+00	0.000E+00	0.0
</event>
<event>
    11  -1  1.0000000E+00  1.0000000E+00  -1.0000000E+00  -1.0000000E+00
	2212	-1	0	0	0	0	0.0000000000E+00	0.0000000000E+00	6.5000000000E+03	6.5000000000E+03	9.3827000000E-01	0.000E+00	0.0
	2212	-1	0	0	0	0	0.0000000000E+00	0.0000000000E+00	-6.5000000000E+03	6.5000000000E+03	9.3827000000E-01	0.000E+00	0.0
	2212	1	0	0	0	0	0.0000000000E+00	0.0000000000E+00	5.9102116592E+03	5.9102116592E+03	9.3827000000E-01	0.000E+00	0.0
	2212	1	0	0	0	0	0.0000000000E+00	0.0000000000E+00	-6.0155194767E+03	6.0155194767E+03	9.3827000000E-01	0.000E+00	0.0
	51	2	1	2	0	0	-1.5190840554E+02	5.2686892704E+01	9.0877667487E+01	1.0849307253E+03	1.0690948770E+03	0.000E+00	0.0
	1000022	2	5	5	0	0	1.5190840554E+02	-5.2686892704E+01	1.0080373612E+02	8.7045462677E+02	8.4951621038E+02	0.000E+00	0.0
	14	1	6	6	0	0	-1.5465050578E+01	-2.4551877326E+02	-8.6503063633E+01	4.1668503192E+02	3.2500000000E+02	0.000E+00	0.0
	-14	1	6	6	0	0	1.6737345612E+02	1.9283188055E+02	1.8730679975E+02	4.5376959484E+02	3.2500000000E+02	0.000E+00	0.0
	25	2	5	5	0	0	-1.5190840554E+02	5.2686892704E+01	4.5040813426E+00	2.0381423735E+02	1.2517141951E+02	0.000E+00	0.0
	-5	1	9	9	0	501	-1.1862154761E+02	9.3317203548E+01	7.1190959488E-01	1.5098725526E+02	4.1800000000E+00	0.000E+00	0.0
	5	1	9	9	501	0	-3.3286857924E+01	-4.0630310844E+01	3.7921717477E+00	5.2826982085E+01	4.1800000000E+00	0.000E+00	0.0
</event>
<event>
    11  -1  1.0000000E+00  1.0000000E+00  -1.0000000E+00  -1.0000000E+00
	2212	-1	0	0	0	0	0.0000000000E+00	0.0000000000E+00	6.5000000000E+03	6.5000000000E+03	9.3827000000E-01	0.000E+00	0.0
	2212	-1	0	0	0	0	0.0000000000E+00	0.0000000000E+00	-6.5000000000E+03	6.5000000000E+03	9.3827000000E-01	0.000E+00	0.0
	2212	1	0	0	0	0	0.0000000000E+00	0.0000000000E+00	5.9000050881E+03	5.9000050881E+03	9.3827000000E-01	0.000E+00	0.0
	2212	1	0	0	0	0	0.0000000000E+00	0.0000000000E+00	-6.0468721249E+03	6.0468721249E+03	9.3827000000E-01	0.000E+00	0.0
	51	2	1	2	0	0	-1.2970533363E+02	3.0105233830E+01	1.5635510879E+02	1.0628614194E+03	1.0428315675E+03	0.000E+00	0.0
	1000022	2	5	5	0	0	1.2970533363E+02	-3.0105233830E+01	1.1281150915E+02	8.6722108929E+02	8.4947994822E+02	0.000E+00	0.0
	14	1	6	6	0	0	3.1641974313E+01	-4.5222802172E+01	3.2797948628E+02	4.6501812846E+02	3.2500000000E+02	0.000E+00	0.0
	-14	1	6	6	0	0	9.8063359319E+01	1.5117568342E+01	-2.1516797714E+02	4.0220296083E+02	3.2500000000E+02	0.000E+00	0.0
	25	2	5	5	0	0	-1.2970533363E+02	3.0105233830E+01	3.4055527673E+01	1.8590169778E+02	1.2517932575E+02	0.000E+00	0.0
	-5	1	9	9	0	501	-1.2523005107E+02	4.5084431444E+00	6.8248628544E+01	1.4275237108E+02	4.1800000000E+00	0.000E+00	0.0
	5	1	9	9	501	0	-4.4752825646E+00	2.5596790686E+01	-3.4193100871E+01	4.3149326700E+01	4.1800000000E+00	0.000E+00	0.0
</event>
<event>
    11  -1  1.0000000E+00  1.0000000E+00  -1.0000000E+00  -1.0000000E+00
	2212	-1	0	0	0	0	0.0000000000E+00	0.0000000000E+00	6.5000000000E+03	6.5000000000E+03	9.3827000000E-01	0.000E+00	0.0
	2212	-1	0	0	0	0	0.0000000000E+00	0.0000000000E+00	-6.5000000000E+03	6.5000000000E+03	9.3827000000E-01	0.000E+00	0.0
	2212	1	0	0	0	0	0.0000000000E+00	0.0000000000E+00	5.3059962451E+03	5.3059962451E+03	9.3827000000E-01	0.000E+00	0.0
	2212	1	0	0	0	0	0.0000000000E+00	0.0000000000E+00	-6.2680448948E+03	6.2680448948E+03	9.3827000000E-01	0.000E+00	0.0
	51	2	1	2	0	0	-5.5739281900E+01	1.3024037551E+02	1.0260780265E+03	1.4767283452E+03	1.0525307911E+03	0.000E+00	0.0
	1000022	2	5	5	0	0	5.5739281900E+01	-1.3024037551E+02	7.3074904845E+02	1.1272596483E+03	8.4655225463E+02	0.000E+00	0.0
	14	1	6	6	0	0	1.5772996490E+02	-2.9441306904E+02	3.0072396587E+02	5.5463294231E+02	3.2500000000E+02	0.000E+00	0.0
	-14	1	6	6	0	0	-1.0199068300E+02	1.6417269352E+02	4.3002508258E+02	5.7262670595E+02	3.2500000000E+02	0.000E+00	0.0
	25	2	5	5	0	0	-5.5739281900E+01	1.3024037551E+02	2.3129960133E+02	2.9869921184E+02	1.2510911483E+02	0.000E+00	0.0
	-5	1	9	9	0	501	-9.1905591144E+01	7.5821879242E+01	1.1738497674E+02	1.6730899623E+02	4.1800000000E+00	0.000E+00	0.0
	5	1	9	9	501	0	3.6166309244E+01	5.4418496273E+01	1.1391462460E+02	1.3139021561E+02	4.1800000000E+00	0.000E+00	0.0
</event>
<event>
    11  -1  1.0000000E+00  1.0000000E+00  -1.0000000E+00  -1.0000000E+00
	2212	-1	0	0	0	0	0.0000000000E+00	0.0000000000E+00	6.5000000000E+03	6.5000000000E+03	9.3827000000E-01	0.000E+00	0.0
	2212	-1	0	0	0	0	0.0000000000E+00	0.0000000000E+00	-6.5000000000E+03	6.5000000000E+03	9.3827000000E-01	0.000E+00	0.0
	2212	1	0	0	0	0	0.0000000000E+00	0.0000000000E+00	5.9937323631E+03	5.9937323631E+03	9.3827000000E-01	0.000E+00	0.0
	2212	1	0	0	0	0	0.0000000000E+00	0.0000000000E+00	-5.9497076572E+03	5.9497076572E+03	9.3827000000E-01	0.000E+00	0.0
	51	2	1	2	0	0	-1.4049517619E+01	-6.5032435770E+01	-1.7770205024E+02	1.0725602274E+03	1.0556423713E+03	0.000E+00	0.0
	1000022	2	5	5	0	0	1.4049517619E+01	6.5032435770E+01	9.7326786005E+01	8.5638593672E+02	8.4823213962E+02	0.000E+00	0.0
	14	1	6	6	0	0	-5.5515187265E+01	1.8281033718E+02	2.7005334091E+02	4.6374061967E+02	3.2500000000E+02	0.000E+00	0.0
	-14	1	6	6	0	0	6.9564704885E+01	-1.1777790141E+02	-1.7272655491E+02	3.9264531704E+02	3.2500000000E+02	0.000E+00	0.0
	25	2	5	5	0	0	-1.4049517619E+01	-6.5032435770E+01	-1.4135149189E+02	2.0017404299E+02	1.2515109500E+02	0.000E+00	0.0
	-5	1	9	9	0	501	-4.0341890827E+01	2.0696588132E+01	-7.7948820034E+01	9.0273516939E+01	4.1800000000E+00	0.000E+00	0.0
	5	1	9	9	501	0	2.6292373207E+01	-8.5729023902E+01	-6.3402671857E+01	1.0990052605E+02	4.1800000000E+00	0.000E+00	0.0
</event>
<event>
    11  -1  1.0000000E+00  1.0000000E+00  -1.0000000E+00  -1.0000000E+00
	2212	-1	0	0	0	0	0.0000000000E+00	0.0000000000E+00	6.5000000000E+03	6.5000000000E+03	9.3827000000E-01	0.000E+00	0.0
	2212	-1	0	0	0	0	0.0000000000E+00	0.0000000000E+00	-6.5000000000E+03	6.5000000000E+03	9.3827000000E-01	0.000E+00	0.0
	2212	1	0	0	0	0	0.0000000000E+00	0.0000000000E+00	5.7385165383E+03	5.7385165383E+03	9.3827000000E-01	0.000E+00	0.0
	2212	1	0	0	0	0	0.0000000000E+00	0.0000000000E+00	-6.1355957677E+03	6.1355957677E+03	9.3827000000E-01	0.000E+00	0.0
	51	2	1	2	0	0	7.7939417842E+01	5.2441420339E+01	5.2899833973E+02	1.1826305780E+03	1.0535422085E+03	0.000E+00	0.0
	1000022	2	5	5	0	0	-7.7939417842E+01	-5.2441420339E+01	1.9503585772E+02	8.7031284660E+02	8.4295955404E+02	0.000E+00	0.0
	14	1	6	6	0	0	6.1215273330E+01	-1.7186735173E+02	-1.0971423385E+02	3.8852015313E+02	3.2500000000E+02	0.000E+00	0.0
	-14	1	6	6	0	0	-1.3915469117E+02	1.1942593139E+02	3.0475009157E+02	4.8179269347E+02	3.2500000000E+02	0.000E+00	0.0
	25	2	5	5	0	0	7.7939417842E+01	5.2441420339E+01	2.0204337164E+02	2.5557484741E+02	1.2518914963E+02	0.000E+00	0.0
	-5	1	9	9	0	501	-2.5748895335E+01	-7.5035091372E+00	9.4544334869E+00	2.8743120445E+01	4.1800000000E+00	0.000E+00	0.0
	5	1	9	9	501	0	1.0368831318E+02	5.9944929476E+01	1.9258893815E+02	2.2683172696E+02	4.1800000000E+00	0.000E+00	0.0
</event>
<event>
    11  -1  1.0000000E+00  1.0000000E+00  -1.0000000E+00  -1.0000000E+00
	2212	-1	0	0	0	0	0.0000000000E+00	0.0000000000E+00	6.5000000000E+03	6.5000000000E+03	9.3827000000E-01	0.000E+00	0.0
	2212	-1	0	0	0	0	0.0000000000E+00	0.0000000000E+00	-6.5000000000E+03	6.5000000000E+03	9.3827000000E-01	0.000E+00	0.0
	2212	1	0	0	0	0	0.0000000000E+00	0.0000000000E+00	6.3285946550E+03	6.3285946550E+03	9.3827000000E-01	0.000E+00	0.0
	2212	1	0	0	0	0	0.0000000000E+00	0.0000000000E+00	-4.9098452033E+03	4.9098452033E+03	9.3827000000E-01	0.000E+00	0.0
	51	2	1	2	0	0	1.3523992450E+02	-2.2443635172E+01	-1.4204614147E+03	1.7682613808E+03	1.0441475596E+03	0.000E+00	0.0
	1000022	2	5	5	0	0	-1.3523992450E+02	2.2443635172E+01	-1.1768464058E+03	1.4566307430E+03	8.4735594926E+02	0.000E+00	0.0
	14	1	6	6	0	0	-2.5195890990E+02	-8.0227908377E+01	-9.2968354470E+02	1.0197334470E+03	3.2500000000E+02	0.000E+00	0.0
	-14	1	6	6	0	0	1.1671898540E+02	1.0267154355E+02	-2.4716286111E+02	4.3689729608E+02	3.2500000000E+02	0.000E+00	0.0
	25	2	5	5	0	0	1.3523992450E+02	-2.2443635172E+01	-2.4190304582E+02	3.0492939866E+02	1.2518506560E+02	0.000E+00	0.0
	-5	1	9	9	0	501	1.3682509014E+02	-2.4562869323E+01	-2.5525863991E+02	2.9068692005E+02	4.1800000000E+00	0.000E+00	0.0
	5	1	9	9	501	0	-1.5851656391E+00	2.1192341514E+00	1.3355594086E+01	1.4242478607E+01	4.1800000000E+00	0.000E+00	0.0
</event>
<event>
    11  -1  1.0000000E+00  1.0000000E+00  -1.0000000E+00  -1.0000000E+00
	2212	-1	0	0	0	0	0.0000000000E+00	0.0000000000E+00	6.5000000000E+03	6.5000000000E+03	9.3827000000E-01	0.000E+00	0.0
	2212	-1	0	0	0	0	0.0000000000E+00	0.0000000000E+00	-6.5000000000E+03	6.5000000000E+03	9.3827000000E-01	0.000E+00	0.0
	2212	1	0	0	0	0	0.0000000000E+00	0.0000000000E+00	5.7223007968E+03	5.7223007968E+03	9.3827000000E-01	0.000E+00	0.0
	2212	1	0	0	0	0	0.0000000000E+00	0.0000000000E+00	-6.1313589504E+03	6.1313589504E+03	9.3827000000E-01	0.000E+00	0.0
	51	2	1	2	0	0	-1.2818519687E+02	-1.7494031064E+01	5.2708357022E+02	1.2005506978E+03	1.0708722623E+03	0.000E+00	0.0
	1000022	2	5	5	0	0	1.2818519687E+02	1.7494031064E+01	2.1624689150E+02	8.8255074349E+02	8.4581062356E+02	0.000E+00	0.0
	14	1	6	6	0	0	-1.0754831109E+02	1.4858038613E+02	-5.9862224406E+01	3.7795668571E+02	3.2500000000E+02	0.000E+00	0.0
	-14	1	6	6	0	0	2.3573350796E+02	-1.3108635507E+02	2.7610911590E+02	5.0459405778E+02	3.2500000000E+02	0.000E+00	0.0
	25	2	5	5	0	0	-1.2818519687E+02	-1.7494031064E+01	1.9281126213E+02	2.6378950930E+02	1.2518480974E+02	0.000E+00	0.0
	-5	1	9	9	0	501	-1.4947041650E+02	-1.2405087321E+01	1.8878425959E+02	2.4114779839E+02	4.1800000000E+00	0.000E+00	0.0
	5	1	9	9	501	0	2.1285219631E+01	-5.0889437425E+00	4.0270025412E+00	2.2641710904E+01	4.1800000000E+00	0.000E+00	0.0
</event>
<event>
    11  -1  1.0000000E+00  1.0000000E+00  -1.0000000E+00  -1.0000000E+00
	2212	-1	0	0	0	0	0.0000000000E+00	0.0000000000E+00	6.5000000000E+03	6.5000000000E+03	9.3827000000E-01	0.000E+00	0.0
	2212	-1	0	0	0	0	0.0000000000E+00	0.0000000000E+00	-6.5000000000E+03	6.5000000000E+03	9.3827000000E-01	0.000E+00	0.0
	2212	1	0	0	0	0	0.0000000000E+00	0.0000000000E+00	4.9064262578E+03	4.9064262578E+03	9.3827000000E-01	0.000E+00	0.0
	2212	1	0	0	0	0	0.0000000000E+00	0.0000000000E+00	-6.3284989664E+03	6.3284989664E+03	9.3827000000E-01	0.000E+00	0.0
	51	2	1	2	0	0	7.3353996427E+01	6.4622959637E+01	1.5987298009E+03	1.9127707881E+03	1.0455611774E+03	0.000E+00	0.0
	1000022	2	5	5	0	0	-7.3353996427E+01	-6.4622959637E+01	1.0043678949E+03	1.3181906487E+03	8.4812427301E+02	0.000E+00	0.0
	14	1	6	6	0	0	7.2452604912E+00	6.2393747867E+01	1.0045958373E+02	3.4592282598E+02	3.2500000000E+02	0.000E+00	0.0
	-14	1	6	6	0	0	-8.0599256918E+01	-1.2701670750E+02	9.0390831116E+02	9.7226782276E+02	3.2500000000E+02	0.000E+00	0.0
	25	2	5	5	0	0	7.3353996427E+01	6.4622959637E+01	4.1770481372E+02	4.4688412708E+02	1.2518456743E+02	0.000E+00	0.0
	-5	1	9	9	0	501	8.9909207892E+00	-3.4079627931E+01	1.5372069313E+02	1.5776495680E+02	4.1800000000E+00	0.000E+00	0.0
	5	1	9	9	501	0	6.4363075638E+01	9.8702587568E+01	2.6398412059E+02	2.8911917028E+02	4.1800000000E+00	0.000E+00	0.0
</event>
<event>
    11  -1  1.0000000E+00  1.0000000E+00  -1.0000000E+00  -1.0000000E+00
	2212	-1	0	0	0	0	0.0000000000E+00	0.0000000000E+00	6.5000000000E+03	6.5000000000E+03	9.3827000000E-01	0.000E+00	0.0
	2212	-1	0	0	0	0	0.0000000000E+00	0.0000000000E+00	-6.5000000000E+03	6.5000000000E+03	9.3827000000E-01	0.000E+00	0.0
	2212	1	0	0	0	0	0.0000000000E+00	0.0000000000E+00	6.2594259693E+03	6.2594259693E+03	9.3827000000E-01	0.000E+00	0.0
	2212	1	0	0	0	0	0.0000000000E+00	0.0000000000E+00	-5.3031930639E+03	5.3031930639E+03	9.3827000000E-01	0.000E+00	0.0
	51	2	1	2	0	0	-5.3880571373E+01	9.3251152023E+01	-8.0630400143E+02	1.3466282747E+03	1.0731647936E+03	0.000E+00	0.0
	1000022	2	5	5	0	0	5.3880571373E+01	-9.3251152023E+01	-9.3507704180E+02	1.2709641061E+03	8.5403851872E+02	0.000E+00	0.0
	14	1	6	6	0	0	-1.4910736577E-01	1.2091453279E+02	-1.2145312814E+02	3.6741830222E+02	3.2500000000E+02	0.000E+00	0.0
	-14	1	6	6	0	0	5.4029678738E+01	-2.1416568482E+02	-8.1362391366E+02	9.0354580383E+02	3.2500000000E+02	0.000E+00	0.0
	25	2	5	5	0	0	-5.3880571373E+01	9.3251152023E+01	-2.1155863588E+01	1.6641686069E+02	1.2509239638E+02	0.000E+00	0.0
	-5	1	9	9	0	501	-4.8954575338E+01	1.1413512658E+01	3.9731094624E+01	6.4209430754E+01	4.1800000000E+00	0.000E+00	0.0
	5	1	9	9	501	0	-4.9259960342E+00	8.1837639364E+01	-6.0886958212E+01	1.0220742994E+02	4.1800000000E+00	0.000E+00	0.0
</event>
<event>
    11  -1  1.0000000E+00  1.0000000E+00  -1.0000000E+00  -1.0000000E+00
	2212	-1	0	0	0	0	0.0000000000E+00	0.0000000000E+00	6.5000000000E+03	6.5000000000E+03	9.3827000000E-01	0.000E+00	0.0
	2212	-1	0	0	0	0	0.0000000000E+00	0.0000000000E+00	-6.5000000000E+03	6.5000000000E+03	9.3827000000E-01	0.000E+00	0.0
	2212	1	0	0	0	0	0.0000000000E+00	0.0000000000E+00	5.5441312704E+03	5.5441312704E+03	9.3827000000E-01	0.000E+00	0.0
	2212	1	0	0	0	0	0.0000000000E+00	0.0000000000E+00	-6.2153896604E+03	6.2153896604E+03	9.3827000000E-01	0.000E+00	0.0
	51	2	1	2	0	0	-1.7912036794E+00	-1.2926790121E+02	6.8327307023E+02	1.2537049024E+03	1.0431684883E+03	0.000E+00	0.0
	1000022	2	5	5	0	0	1.7912036794E+00	1.2926790121E+02	5.4853525005E+02	1.0226650640E+03	8.5336950608E+02	0.000E+00	0.0
	14	1	6	6	0	0	-2.2387810399E+02	-6.3361410408E+01	1.4380944892E+02	4.2478492367E+02	3.2500000000E+02	0.000E+00	0.0
	-14	1	6	6	0	0	2.2566930767E+02	1.9262931162E+02	4.0472580113E+02	5.9788014035E+02	3.2500000000E+02	0.000E+00	0.0
	25	2	5	5	0	0	-1.7912036794E+00	-1.2926790121E+02	1.2272313990E+02	2.1781400518E+02	1.2517417103E+02	0.000E+00	0.0
	-5	1	9	9	0	501	-4.9171083184E+00	-1.3303797358E+02	1.4366236756E+02	1.9590719390E+02	4.1800000000E+00	0.000E+00	0.0
	5	1	9	9	501	0	3.1259046390E+00	3.7700723704E+00	-2.0939227660E+01	2.1906811281E+01	4.1800000000E+00	0.000E+00	0.0
</event>
<event>
    11  -1  1.0000000E+00  1.0000000E+00  -1.0000000E+00  -1.0000000E+00
	2212	-1	0	0	0	0	0.0000000000E+00	0.0000000000E+00	6.5000000000E+03	6.5000000000E+03	9.3827000000E-01	0.000E+00	0.0
	2212	-1	0	0	0	0	0.0000000000E+00	0.0000000000E+00	-6.5000000000E+03	6.5000000000E+03	9.3827000000E-01	0.000E+00	0.0
	2212	1	0	0	0	0	0.0000000000E+00	0.0000000000E+00	6.2871518833E+03	6.2871518833E+03	9.3827000000E-01	0.000E+00	0.0
	2212	1	0	0	0	0	0.0000000000E+00	0.0000000000E+00	-5.2350239260E+03	5.2350239260E+03	9.3827000000E-01	0.000E+00	0.0
	51	2	1	2	0	0	3.2509158875E+01	-9.4013773344E+01	-9.3595149224E+02	1.4010323804E+03	1.0377818172E+03	0.000E+00	0.0
	1000022	2	5	5	0	0	-3.2509158875E+01	9.4013773344E+01	-9.9296716970E+02	1.3083364190E+03	8.4608802739E+02	0.000E+00	0.0
	14	1	6	6	0	0	-1.3269063819E+02	8.4019699884E+01	-1.3501535839E+02	3.8538326693E+02	3.2500000000E+02	0.000E+00	0.0
	-14	1	6	6	0	0	1.0018147931E+02	9.9940734593E+00	-8.5795181132E+02	9.2295315203E+02	3.2500000000E+02	0.000E+00	0.0
	25	2	5	5	0	0	3.2509158875E+01	-9.4013773344E+01	-5.9160787641E+01	1.6948777174E+02	1.2381708681E+02	0.000E+00	0.0
	-5	1	9	9	0	501	-2.7246404544E+01	-3.9224350535E+01	-7.2802827523E+01	8.7170180284E+01	4.1800000000E+00	0.000E+00	0.0
	5	1	9	9	501	0	5.9755563419E+01	-5.4789422809E+01	1.3642039883E+01	8.2317591457E+01	4.1800000000E+00	0.000E+00	0.0
</event>
<event>
    11  -1  1.0000000E+00  1.0000000E+00  -1.0000000E+00  -1.0000000E+00
	2212	-1	0	0	0	0	0.0000000000E+00	0.0000000000E+00	6.5000000000E+03	6.5000000000E+03	9.3827000000E-01	0.000E+00	0.0
	2212	-1	0	0	0	0	0.0000000000E+00	0.0000000000E+00	-6.5000000000E+03	6.5000000000E+03	9.3827000000E-01	0.000E+00	0.0
	2212	1	0	0	0	0	0.0000000000E+00	0.0000000000E+00	6.2513653455E+03	6.2513653455E+03	9.3827000000E-01	0.000E+00	0.0
	2212	1	0	0	0	0	0.0000000000E+00	0.0000000000E+00	-5.2747773347E+03	5.2747773347E+03	9.3827000000E-01	0.000E+00	0.0
	51	2	1	2	0	0	-3.2251960449E+01	1.8004321133E+01	-1.2435106022E+03	1.6631939811E+03	1.1038710325E+03	0.000E+00	0.0
	1000022	2	5	5	0	0	3.2251960449E+01	-1.8004321133E+01	-5.2127865000E+02	1.0002091414E+03	8.5283207669E+02	0.000E+00	0.0
	14	1	6	6	0	0	-7.4614881616E+01	-5.7560155369E+01	4.0978073303E+01	3.4085884841E+02	3.2500000000E+02	0.000E+00	0.0
	-14	1	6	6	0	0	1.0686684207E+02	3.9555834236E+01	-5.6225672331E+02	6.5935029298E+02	3.2500000000E+02	0.000E+00	0.0
	25	2	5	5	0	0	-3.2251960449E+01	1.8004321133E+01	-4.5530936078E+02	4.7364817842E+02	1.2518641449E+02	0.000E+00	0.0
	-5	1	9	9	0	501	2.1655971208E+01	9.0470833279E-01	-9.1438493919E+00	2.3893136417E+01	4.1800000000E+00	0.000E+00	0.0
	5	1	9	9	501	0	-5.3907931657E+01	1.7099612800E+01	-4.4616551139E+02	4.4975504201E+02	4.1800000000E+00	0.000E+00	0.0
</event>
<event>
    11  -1  1.0000000E+00  1.0000000E+00  -1.0000000E+00  -1.0000000E+00
	2212	-1	0	0	0	0	0.0000000000E+00	0.0000000000E+00	6.5000000000E+03	6.5000000000E+03	9.3827000000E-01	0.000E+00	0.0
	2212	-1	0	0	0	0	0.0000000000E+00	0.0000000000E+00	-6.5000000000E+03	6.5000000000E+03	9.3827000000E-01	0.000E+00	0.0
	2212	1	0	0	0	0	0.0000000000E+00	0.0000000000E+00	5.9946147785E+03	5.9946147785E+03	9.3827000000E-01	0.000E+00	0.0
	2212	1	0	0	0	0	0.0000000000E+00	0.0000000000E+00	-5.8797595487E+03	5.8797595487E+03	9.3827000000E-01	0.000E+00	0.0
	51	2	1	2	0	0	-1.9328976719E+02	-1.0272296754E+02	-1.1955756452E+02	1.1471915205E+03	1.1197506112E+03	0.000E+00	0.0
	1000022	2	5	5	0	0	1.9328976719E+02	1.0272296754E+02	-8.6459012821E+01	8.7185061422E+02	8.3948519371E+02	0.000E+00	0.0
	14	1	6	6	0	0	1.0656156382E+02	2.8252725215E+01	2.2256961755E+02	4.0904256261E+02	3.2500000000E+02	0.000E+00	0.0
	-14	1	6	6	0	0	8.6728203366E+01	7.4470242321E+01	-3.0902863037E+02	4.6280805162E+02	3.2500000000E+02	0.000E+00	0.0
	25	2	5	5	0	0	-1.9328976719E+02	-1.0272296754E+02	-2.8396217034E+01	2.5377505855E+02	1.2522976100E+02	0.000E+00	0.0
	-5	1	9	9	0	501	-7.2082729382E+01	1.1339815847E+01	-4.5995782888E+01	8.6357372251E+01	4.1800000000E+00	0.000E+00	0.0
	5	1	9	9	501	0	-1.2120703780E+02	-1.1406278338E+02	1.7599565854E+01	1.6741768630E+02	4.1800000000E+00	0.000E+00	0.0
</event>
<event>
    11  -1  1.0000000E+00  1.0000000E+00  -1.0000000E+00  -1.0000000E+00
	2212	-1	0	0	0	0	0.0000000000E+00	0.0000000000E+00	6.5000000000E+03	6.5000000000E+03	9.3827000000E-01	0.000E+00	0.0
	2212	-1	0	0	0	0	0.0000000000E+00	0.0000000000E+00	-6.5000000000E+03	6.5000000000E+03	9.3827000000E-01	0.000E+00	0.0
	2212	1	0	0	0	0	0.0000000000E+00	0.0000000000E+00	6.3007098190E+03	6.3007098190E+03	9.3827000000E-01	0.000E+00	0.0
	2212	1	0	0	0	0	0.0000000000E+00	0.0000000000E+00	-5.1547639124E+03	5.1547639124E+03	9.3827000000E-01	0.000E+00	0.0
	51	2	1	2	0	0	-3.0750437670E+02	-2.3989981613E+01	-1.3199856816E+03	1.7058329444E+03	1.0355526899E+03	0.000E+00	0.0
	1000022	2	5	5	0	0	3.0750437670E+02	2.3989981613E+01	-6.4589045649E+02	9.4380986914E+02	6.1519763199E+02	0.000E+00	0.0
	14	1	6	6	0	0	0.0000000000E+00	0.0000000000E+00	0.0000000000E+00	0.0000000000E+00	0.0000000000E+00	0.000E+00	0.0
	-14	1	6	6	0	0	0.0000000000E+00	0.0000000000E+00	0.0000000000E+00	0.0000000000E+00	0.0000000000E+00	0.000E+00	0.0
	25	2	5	5	0	0	-3.0750437670E+02	-2.3989981613E+01	-5.0005545015E+02	6.0071639950E+02	1.2518098299E+02	0.000E+00	0.0
	-5	1	9	9	0	501	-1.8405207328E+00	-1.3529661381E+01	-7.9048605651E+01	8.0328038125E+01	4.1800000000E+00	0.000E+00	0.0
	5	1	9	9	501	0	-3.0566385596E+02	-1.0460320231E+01	-4.2100684450E+02	5.2038836138E+02	4.1800000000E+00	0.000E+00	0.0
</event>
<event>
    11  -1  1.0000000E+00  1.0000000E+00  -1.0000000E+00  -1.0000000E+00
	2212	-1	0	0	0	0	0.0000000000E+00	0.0000000000E+00	6.5000000000E+03	6.5000000000E+03	9.3827000000E-01	0.000E+00	0.0
	2212	-1	0	0	0	0	0.0000000000E+00	0.0000000000E+00	-6.5000000000E+03	6.5000000000E+03	9.3827000000E-01	0.000E+00	0.0
	2212	1	0	0	0	0	0.0000000000E+00	0.0000000000E+00	6.3092201168E+03	6.3092201168E+03	9.3827000000E-01	0.000E+00	0.0
	2212	1	0	0	0	0	0.0000000000E+00	0.0000000000E+00	-5.0515720064E+03	5.0515720064E+03	9.3827000000E-01	0.000E+00	0.0
	51	2	1	2	0	0	-9.8566618509E+01	1.2816771393E+01	-1.4434142249E+03	1.7884764373E+03	1.0513437564E+03	0.000E+00	0.0
	1000022	2	5	5	0	0	9.8566618509E+01	-1.2816771393E+01	-8.5162933081E+02	1.2028638615E+03	8.4364050660E+02	0.000E+00	0.0
	14	1	6	6	0	0	2.6385779777E+02	1.2868646422E+02	-3.1789830842E+02	5.4117047039E+02	3.2500000000E+02	0.000E+00	0.0
	-14	1	6	6	0	0	-1.6529117926E+02	-1.4150323561E+02	-5.3373102239E+02	6.6169339115E+02	3.2500000000E+02	0.000E+00	0.0
	25	2	5	5	0	0	-9.8566618509E+01	1.2816771393E+01	-4.0601877958E+02	4.3634401535E+02	1.2516070648E+02	0.000E+00	0.0
	-5	1	9	9	0	501	-1.0039379953E+02	-2.5483200173E+01	-3.6747336151E+02	3.8181468318E+02	4.1800000000E+00	0.000E+00	0.0
	5	1	9	9	501	0	1.8271810184E+00	3.8299971565E+01	-3.8545418073E+01	5.4529332169E+01	4.1800000000E+00	0.000E+00	0.0
</event>
<event>
    11  -1  1.0000000E+00  1.0000000E+00  -1.0000000E+00  -1.0000000E+00
	2212	-1	0	0	0	0	0.0000000000E+00	0.0000000000E+00	6.5000000000E+03	6.5000000000E+03	9.3827000000E-01	0.000E+00	0.0
	2212	-1	0	0	0	0	0.0000000000E+00	0.0000000000E+00	-6.5000000000E+03	6.5000000000E+03	9.3827000000E-01	0.000E+00	0.0
	2212	1	0	0	0	0	0.0000000000E+00	0.0000000000E+00	5.5779146298E+03	5.5779146298E+03	9.3827000000E-01	0.000E+00	0.0
	2212	1	0	0	0	0	0.0000000000E+00	0.0000000000E+00	-6.1987662657E+03	6.1987662657E+03	9.3827000000E-01	0.000E+00	0.0
	51	2	1	2	0	0	-1.0378435656E+02	5.3759498247E+01	7.4921801395E+02	1.2984767177E+03	1.0540649304E+03	0.000E+00	0.0
	1000022	2	5	5	0	0	1.0378435656E+02	-5.3759498247E+01	3.8109772994E+02	9.2868475469E+02	8.3878401124E+02	0.000E+00	0.0
	14	1	6	6	0	0	1.6906206178E+02	8.4870471905E+01	4.2410235148E+02	5.6680929974E+02	3.2500000000E+02	0.000E+00	0.0
	-14	1	6	6	0	0	-6.5277705221E+01	-1.3862997015E+02	-4.3004621543E+01	3.6187545495E+02	3.2500000000E+02	0.000E+00	0.0
	25	2	5	5	0	0	-1.0378435656E+02	5.3759498247E+01	2.3975390600E+02	2.9463434979E+02	1.2516464484E+02	0.000E+00	0.0
	-5	1	9	9	0	501	5.4446906961E+00	5.3754935502E+01	4.1550967899E+01	6.8287576330E+01	4.1800000000E+00	0.000E+00	0.0
	5	1	9	9	501	0	-1.0922904726E+02	4.5627446769E-03	1.9820293810E+02	2.2634677346E+02	4.1800000000E+00	0.000E+00	0.0
</event>
<event>
    11  -1  1.0000000E+00  1.0000000E+00  -1.0000000E+00  -1.0000000E+00
	2212	-1	0	0	0	0	0.0000000000E+00	0.0000000000E+00	6.5000000000E+03	6.5000000000E+03	9.3827000000E-01	0.000E+00	0.0
	2212	-1	0	0	0	0	0.0000000000E+00	0.0000000000E+00	-6.5000000000E+03	6.5000000000E+03	9.3827000000E-01	0.000E+00	0.0
	2212	1	0	0	0	0	0.0000000000E+00	0.0000000000E+00	6.1551007233E+03	6.1551007233E+03	9.3827000000E-01	0.000E+00	0.0
	2212	1	0	0	0	0	0.0000000000E+00	0.0000000000E+00	-5.7031456433E+03	5.7031456433E+03	9.3827000000E-01	0.000E+00	0.0
	51	2	1	2	0	0	-3.8577004864E+01	-1.3486029084E+02	-4.7474547093E+02	1.1594812247E+03	1.0484931878E+03	0.000E+00	0.0
	1000022	2	5	5	0	0	3.8577004864E+01	1.3486029084E+02	-3.5187543609E+02	9.2877370525E+02	8.4801461644E+02	0.000E+00	0.0
	14	1	6	6	0	0	-9.5817845275E+01	9.8159877225E+01	8.8802741052E+01	3.6376826111E+02	3.2500000000E+02	0.000E+00	0.0
	-14	1	6	6	0	0	1.3439485014E+02	3.6700413615E+01	-4.4067817714E+02	5.6500544414E+02	3.2500000000E+02	0.000E+00	0.0
	25	2	5	5	0	0	-3.8577004864E+01	-1.3486029084E+02	-1.0007964394E+02	2.1297992810E+02	1.2517600126E+02	0.000E+00	0.0
	-5	1	9	9	0	501	-5.5928966089E+01	-2.3698575703E+01	2.1245855231E+00	6.0923378122E+01	4.1800000000E+00	0.000E+00	0.0
	5	1	9	9	501	0	1.7351961225E+01	-1.1116171514E+02	-1.0220422947E+02	1.5205654998E+02	4.1800000000E+00	0.000E+00	0.0
</event>
<event>
    11  -1  1.0000000E+00  1.0000000E+00  -1.0000000E+00  -1.0000000E+00
	2212	-1	0	0	0	0	0.0000000000E+00	0.0000000000E+00	6.5000000000E+03	6.5000000000E+03	9.3827000000E-01	0.000E+00	0.0
	2212	-1	0	0	0	0	0.0000000000E+00	0.0000000000E+00	-6.5000000000E+03	6.5000000000E+03	9.3827000000E-01	0.000E+00	0.0
	2212	1	0	0	0	0	0.0000000000E+00	0.0000000000E+00	5.7658817506E+03	5.7658817506E+03	9.3827000000E-01	0.000E+00	0.0
	2212	1	0	0	0	0	0.0000000000E+00	0.0000000000E+00	-6.1272514796E+03	6.1272514796E+03	9.3827000000E-01	0.000E+00	0.0
	51	2	1	2	0	0	1.0962807043E+02	-2.4946039732E+01	4.5091499849E+02	1.1447842240E+03	1.0462150663E+03	0.000E+00	0.0
	1000022	2	5	5	0	0	-1.0962807043E+02	2.4946039732E+01	2.1040300438E+02	8.8081687873E+02	8.4789641518E+02	0.000E+00	0.0
	14	1	6	6	0	0	1.9364420900E+00	8.8048136351E+01	-1.5900196140E+02	3.7237460688E+02	3.2500000000E+02	0.000E+00	0.0
	-14	1	6	6	0	0	-1.1156451252E+02	-6.3102096619E+01	3.6940496578E+02	5.0844227184E+02	3.2500000000E+02	0.000E+00	0.0
	25	2	5	5	0	0	1.0962807043E+02	-2.4946039732E+01	1.5096672466E+02	2.2604989108E+02	1.2516781767E+02	0.000E+00	0.0
	-5	1	9	9	0	501	2.0669349723E+01	-1.6337354440E+01	1.3189792601E+02	1.3456844524E+02	4.1800000000E+00	0.000E+00	0.0
	5	1	9	9	501	0	8.8958720706E+01	-8.6086852918E+00	1.9068798651E+01	9.1481445846E+01	4.1800000000E+00	0.000E+00	0.0
</event>
<event>
    11  -1  1.0000000E+00  1.0000000E+00  -1.0000000E+00  -1.0000000E+00
	2212	-1	0	0	0	0	0.0000000000E+00	0.0000000000E+00	6.5000000000E+03	6.5000000000E+03	9.3827000000E-01	0.000E+00	0.0
	2212	-1	0	0	0	0	0.0000000000E+00	0.0000000000E+00	-6.5000000000E+03	6.5000000000E+03	9.3827000000E-01	0.000E+00	0.0
	2212	1	0	0	0	0	0.0000000000E+00	0.0000000000E+00	5.9771561757E+03	5.9771561757E+03	9.3827000000E-01	0.000E+00	0.0
	2212	1	0	0	0	0	0.0000000000E+00	0.0000000000E+00	-5.9657993451E+03	5.9657993451E+03	9.3827000000E-01	0.000E+00	0.0
	51	2	1	2	0	0	7.9435862107E+01	-1.0791652684E+02	-7.6581862536E+01	1.0681923366E+03	1.0569834688E+03	0.000E+00	0.0
	1000022	2	5	5	0	0	-7.9435862107E+01	1.0791652684E+02	5.5846741499E+01	8.6174269503E+02	8.4942661893E+02	0.000E+00	0.0
	14	1	6	6	0	0	1.2897820428E+02	2.4532013001E+02	-7.0477816947E+01	4.3290814966E+02	3.2500000000E+02	0.000E+00	0.0
	-14	1	6	6	0	0	-2.0841406638E+02	-1.3740360317E+02	1.2632455845E+02	4.2883454536E+02	3.2500000000E+02	0.000E+00	0.0
	25	2	5	5	0	0	7.9435862107E+01	-1.0791652684E+02	-6.7203572096E+01	1.9530178418E+02	1.2518160347E+02	0.000E+00	0.0
	-5	1	9	9	0	501	1.0119906901E+02	-5.1128279337E+01	-1.3866551565E+01	1.1430269537E+02	4.1800000000E+00	0.000E+00	0.0
	5	1	9	9	501	0	-2.1763206905E+01	-5.6788247499E+01	-5.3337020531E+01	8.0999088809E+01	4.1800000000E+00	0.000E+00	0.0
</event>
<event>
    11  -1  1.0000000E+00  1.0000000E+00  -1.0000000E+00  -1.0000000E+00
	2212	-1	0	0	0	0	0.0000000000E+00	0.0000000000E+00	6.5000000000E+03	6.5000000000E+03	9.3827000000E-01	0.000E+00	0.0
	2212	-1	0	0	0	0	0.0000000000E+00	0.0000000000E+00	-6.5000000000E+03	6.5000000000E+03	9.3827000000E-01	0.000E+00	0.0
	2212	1	0	0	0	0	0.0000000000E+00	0.0000000000E+00	5.1886319288E+03	5.1886319288E+03	9.3827000000E-01	0.000E+00	0.0
	2212	1	0	0	0	0	0.0000000000E+00	0.0000000000E+00	-6.2886133560E+03	6.2886133560E+03	9.3827000000E-01	0.000E+00	0.0
	51	2	1	2	0	0	9.2818441664E+01	-8.7052687529E+01	9.9048920224E+02	1.4512357066E+03	1.0530065445E+03	0.000E+00	0.0
	1000022	2	5	5	0	0	-9.2818441664E+01	8.7052687529E+01	1.0149919837E+03	1.3250438348E+03	8.4222265690E+02	0.000E+00	0.0
	14	1	6	6	0	0	7.4215903178E+01	-1.5371550286E+02	6.8428325096E+02	7.7653398100E+02	3.2500000000E+02	0.000E+00	0.0
	-14	1	6	6	0	0	-1.6703434484E+02	2.4076819039E+02	3.3070873270E+02	5.4850985382E+02	3.2500000000E+02	0.000E+00	0.0
	25	2	5	5	0	0	9.2818441664E+01	-8.7052687529E+01	8.4989443535E+01	1.9771088045E+02	1.2519166592E+02	0.000E+00	0.0
	-5	1	9	9	0	501	7.2226775508E+01	-7.9662515553E+01	1.1683965981E+02	1.5884521393E+02	4.1800000000E+00	0.000E+00	0.0
	5	1	9	9	501	0	2.0591666155E+01	-7.3901719762E+00	-3.1850216275E+01	3.8865666515E+01	4.1800000000E+00	0.000E+00	0.0
</event>
<event>
    11  -1  1.0000000E+00  1.0000000E+00  -1.0000000E+00  -1.0000000E+00
	2212	-1	0	0	0	0	0.0000000000E+00	0.0000000000E+00	6.5000000000E+03	6.5000000000E+03	9.3827000000E-01	0.000E+00	0.0
	2212	-1	0	0	0	0	0.0000000000E+00	0.0000000000E+00	-6.5000000000E+03	6.5000000000E+03	9.3827000000E-01	0.000E+00	0.0
	2212	1	0	0	0	0	0.0000000000E+00	0.0000000000E+00	6.3185913519E+03	6.3185913519E+03	9.3827000000E-01	0.000E+00	0.0
	2212	1	0	0	0	0	0.0000000000E+00	0.0000000000E+00	-5.0009715514E+03	5.0009715514E+03	9.3827000000E-01	0.000E+00	0.0
	51	2	1	2	0	0	-9.2602726286E+01	-6.1654434805E+01	-1.4200916707E+03	1.7654415268E+03	1.0429510521E+03	0.000E+00	0.0
	1000022	2	5	5	0	0	9.2602726286E+01	6.1654434805E+01	-1.0008378712E+03	1.3221105948E+03	8.5669332092E+02	0.000E+00	0.0
	14	1	6	6	0	0	-4.4367473349E+00	1.7610370893E+02	-1.4983220087E+02	3.9888204954E+02	3.2500000000E+02	0.000E+00	0.0
	-14	1	6	6	0	0	9.7039473621E+01	-1.1444927413E+02	-8.5100567034E+02	9.2322854523E+02	3.2500000000E+02	0.000E+00	0.0
	25	2	5	5	0	0	-9.2602726286E+01	-6.1654434805E+01	-3.1678192936E+02	3.5832650190E+02	1.2518209515E+02	0.000E+00	0.0
	-5	1	9	9	0	501	-7.3283117262E+00	-7.6800291371E+01	-1.1326057602E+02	1.3710368116E+02	4.1800000000E+00	0.000E+00	0.0
	5	1	9	9	501	0	-8.5274414560E+01	1.5145856566E+01	-2.0352135334E+02	2.2122282073E+02	4.1800000000E+00	0.000E+00	0.0
</event>
<event>
    11  -1  1.0000000E+00  1.0000000E+00  -1.0000000E+00  -1.0000000E+00
	2212	-1	0	0	0	0	0.0000000000E+00	0.0000000000E+00	6.5000000000E+03	6.5000000000E+03	9.3827000000E-01	0.000E+00	0.0
	2212	-1	0	0	0	0	0.0000000000E+00	0.0000000000E+00	-6.5000000000E+03	6.5000000000E+03	9.3827000000E-01	0.000E+00	0.0
	2212	1	0	0	0	0	0.0000000000E+00	0.0000000000E+00	6.2847337164E+03	6.2847337164E+03	9.3827000000E-01	0.000E+00	0.0
	2212	1	0	0	0	0	0.0000000000E+00	0.0000000000E+00	-5.2211096324E+03	5.2211096324E+03	9.3827000000E-01	0.000E+00	0.0
	51	2	1	2	0	0	3.0916874634E+01	-1.4140382566E+02	-1.0708276172E+03	1.5062637840E+03	1.0493845368E+03	0.000E+00	0.0
	1000022	2	5	5	0	0	-3.0916874634E+01	1.4140382566E+02	-8.7252333632E+02	1.2237145950E+03	8.4571244677E+02	0.000E+00	0.0
	14	1	6	6	0	0	1.9606481847E+02	-7.0167794940E+01	-5.4425681160E+02	6.6723714634E+02	3.2500000000E+02	0.000E+00	0.0
	-14	1	6	6	0	0	-2.2698169310E+02	2.1157162060E+02	-3.2826652472E+02	5.5647744869E+02	3.2500000000E+02	0.000E+00	0.0
	25	2	5	5	0	0	3.0916874634E+01	-1.4140382566E+02	-1.9110074767E+02	2.7044205613E+02	1.2517393865E+02	0.000E+00	0.0
	-5	1	9	9	0	501	4.3917159237E+01	4.8461503609E+00	-4.0798613320E+01	6.0284337084E+01	4.1800000000E+00	0.000E+00	0.0
	5	1	9	9	501	0	-1.3000284603E+01	-1.4624997602E+02	-1.5030213435E+02	2.1015771905E+02	4.1800000000E+00	0.000E+00	0.0
</event>
<event>
    11  -1  1.0000000E+00  1.0000000E+00  -1.0000000E+00  -1.0000000E+00
	2212	-1	0	0	0	0	0.0000000000E+00	0.0000000000E+00	6.5000000000E+03	6.5000000000E+03	9.3827000000E-01	0.000E+00	0.0
	2212	-1	0	0	0	0	0.0000000000E+00	0.0000000000E+00	-6.5000000000E+03	6.5000000000E+03	9.3827000000E-01	0.000E+00	0.0
	2212	1	0	0	0	0	0.0000000000E+00	0.0000000000E+00	6.1541716530E+03	6.1541716530E+03	9.3827000000E-01	0.000E+00	0.0
	2212	1	0	0	0	0	0.0000000000E+00	0.0000000000E+00	-5.6957499458E+03	5.6957499458E+03	9.3827000000E-01	0.000E+00	0.0
	51	2	1	2	0	0	-1.3320403589E+02	5.3855686477E+01	-4.1129880859E+02	1.1412012651E+03	1.0547653139E+03	0.000E+00	0.0
	1000022	2	5	5	0	0	1.3320403589E+02	-5.3855686477E+01	-4.2487790274E+02	9.5658066868E+02	8.4491513971E+02	0.000E+00	0.0
	14	1	6	6	0	0	-1.4231648158E+02	-1.9378666691E+02	-2.4941610686E+02	4.7501647083E+02	3.2500000000E+02	0.000E+00	0.0
	-14	1	6	6	0	0	2.7552051747E+02	1.3993098044E+02	-1.7546179588E+02	4.8156419784E+02	3.2500000000E+02	0.000E+00	0.0
	25	2	5	5	0	0	-1.3320403589E+02	5.3855686477E+01	-3.3543804410E+01	1.9349773257E+02	1.2518959842E+02	0.000E+00	0.0
	-5	1	9	9	0	501	-1.3124093894E+02	8.5924382373E+01	-1.9297871921E+01	1.5810459766E+02	4.1800000000E+00	0.000E+00	0.0
	5	1	9	9	501	0	-1.9630969451E+00	-3.2068695896E+01	-1.4245932489E+01	3.5393134907E+01	4.1800000000E+00	0.000E+00	0.0
</event>
<event>
    11  -1  1.0000000E+00  1.0000000E+00  -1.0000000E+00  -1.0000000E+00
	2212	-1	0	0	0	0	0.0000000000E+00	0.0000000000E+00	6.5000000000E+03	6.5000000000E+03	9.3827000000E-01	0.000E+00	0.0
	2212	-1	0	0	0	0	0.0000000000E+00	0.0000000000E+00	-6.5000000000E+03	6.5000000000E+03	9.3827000000E-01	0.000E+00	0.0
	2212	1	0	0	0	0	0.0000000000E+00	0.0000000000E+00	6.3211463043E+03	6.3211463043E+03	9.3827000000E-01	0.000E+00	0.0
	2212	1	0	0	0	0	0.0000000000E+00	0.0000000000E+00	-4.9575484345E+03	4.9575484345E+03	9.3827000000E-01	0.000E+00	0.0
	51	2	1	2	0	0	6.0581940888E+01	-1.0858490544E+02	-1.3816032095E+03	1.7400519916E+03	1.0504725849E+03	0.000E+00	0.0
	1000022	2	5	5	0	0	-6.0581940888E+01	1.0858490544E+02	-1.1259966175E+03	1.4253568659E+03	8.6505084200E+02	0.000E+00	0.0
	14	1	6	6	0	0	1.8274937789E+02	1.7843518597E+02	-3.2943999458E+02	5.2857559605E+02	3.2500000000E+02	0.000E+00	0.0
	-14	1	6	6	0	0	-2.4333131878E+02	-6.9850280533E+01	-7.9655662296E+02	8.9678126986E+02	3.2500000000E+02	0.000E+00	0.0
	25	2	5	5	0	0	6.0581940888E+01	-1.0858490544E+02	-2.3760125234E+02	2.9594839530E+02	1.2518084644E+02	0.000E+00	0.0
	-5	1	9	9	0	501	4.8454105760E-02	2.6139519631E+01	-5.5116757995E+01	6.1144143188E+01	4.1800000000E+00	0.000E+00	0.0
	5	1	9	9	501	0	6.0533486782E+01	-1.3472442507E+02	-1.8248449434E+02	2.3480425211E+02	4.1800000000E+00	0.000E+00	0.0
</event>
<event>
    11  -1  1.0000000E+00  1.0000000E+00  -1.0000000E+00  -1.0000000E+00
	2212	-1	0	0	0	0	0.0000000000E+00	0.0000000000E+00	6.5000000000E+03	6.5000000000E+03	9.3827000000E-01	0.000E+00	0.0
	2212	-1	0	0	0	0	0.0000000000E+00	0.0000000000E+00	-6.5000000000E+03	6.5000000000E+03	9.3827000000E-01	0.000E+00	0.0
	2212	1	0	0	0	0	0.0000000000E+00	0.0000000000E+00	6.2457685344E+03	6.2457685344E+03	9.3827000000E-01	0.000E+00	0.0
	2212	1	0	0	0	0	0.0000000000E+00	0.0000000000E+00	-5.4165541403E+03	5.4165541403E+03	9.3827000000E-01	0.000E+00	0.0
	51	2	1	2	0	0	2.9190380861E+01	1.0939373735E+02	-7.2429008845E+02	1.2803121945E+03	1.0496590470E+03	0.000E+00	0.0
	1000022	2	5	5	0	0	-2.9190380861E+01	-1.0939373735E+02	-7.9133717956E+02	1.1646769957E+03	8.4701765297E+02	0.000E+00	0.0
	14	1	6	6	0	0	1.5532827445E+02	1.3566673078E+02	-5.0079696746E+02	6.3162879708E+02	3.2500000000E+02	0.000E+00	0.0
	-14	1	6	6	0	0	-1.8451865531E+02	-2.4506046813E+02	-2.9054021210E+02	5.3304819862E+02	3.2500000000E+02	0.000E+00	0.0
	25	2	5	5	0	0	2.9190380861E+01	1.0939373735E+02	-3.7877214529E+01	1.7300032953E+02	1.2520128805E+02	0.000E+00	0.0
	-5	1	9	9	0	501	-4.8663754095E+00	5.3984247830E+01	-7.9029230346E+01	9.5922219910E+01	4.1800000000E+00	0.000E+00	0.0
	5	1	9	9	501	0	3.4056756271E+01	5.5409489517E+01	4.1152015817E+01	7.7078109616E+01	4.1800000000E+00	0.000E+00	0.0
</event>
<event>
    11  -1  1.0000000E+00  1.0000000E+00  -1.0000000E+00  -1.0000000E+00
	2212	-1	0	0	0	0	0.0000000000E+00	0.0000000000E+00	6.5000000000E+03	6.5000000000E+03	9.3827000000E-01	0.000E+00	0.0
	2212	-1	0	0	0	0	0.0000000000E+00	0.0000000000E+00	-6.5000000000E+03	6.5000000000E+03	9.3827000000E-01	0.000E+00	0.0
	2212	1	0	0	0	0	0.0000000000E+00	0.0000000000E+00	6.1527931979E+03	6.1527931979E+03	9.3827000000E-01	0.000E+00	0.0
	2212	1	0	0	0	0	0.0000000000E+00	0.0000000000E+00	-5.6994020632E+03	5.6994020632E+03	9.3827000000E-01	0.000E+00	0.0
	51	2	1	2	0	0	1.4020912750E+02	3.4443196245E+01	-4.5909704139E+02	1.1590975905E+03	1.0544629902E+03	0.000E+00	0.0
	1000022	2	5	5	0	0	-1.4020912750E+02	-3.4443196245E+01	-3.6975175329E+02	9.3921554686E+02	8.5121357555E+02	0.000E+00	0.0
	14	1	6	6	0	0	-2.9395660448E+02	-1.7660110479E+02	-1.5664610613E+02	4.9775640437E+02	3.2500000000E+02	0.000E+00	0.0
	-14	1	6	6	0	0	1.5374747698E+02	1.4215790854E+02	-2.1310564716E+02	4.4145914249E+02	3.2500000000E+02	0.000E+00	0.0
	25	2	5	5	0	0	1.4020912750E+02	3.4443196245E+01	-8.3639381449E+01	2.0858919205E+02	1.2517576327E+02	0.000E+00	0.0
	-5	1	9	9	0	501	1.6168168993E+02	1.7235650807E+01	-7.7095469511E+01	1.7999783425E+02	4.1800000000E+00	0.000E+00	0.0
	5	1	9	9	501	0	-2.1472562428E+01	1.7207545438E+01	-6.5439119382E+00	2.8591357797E+01	4.1800000000E+00	0.000E+00	0.0
</event>
<event>
    11  -1  1.0000000E+00  1.0000000E+00  -1.0000000E+00  -1.0000000E+00
	2212	-1	0	0	0	0	0.0000000000E+00	0.0000000000E+00	6.5000000000E+03	6.5000000000E+03	9.3827000000E-01	0.000E+00	0.0
	2212	-1	0	0	0	0	0.0000000000E+00	0.0000000000E+00	-6.5000000000E+03	6.5000000000E+03	9.3827000000E-01	0.000E+00	0.0
	2212	1	0	0	0	0	0.0000000000E+00	0.0000000000E+00	6.3186005969E+03	6.3186005969E+03	9.3827000000E-01	0.000E+00	0.0
	2212	1	0	0	0	0	0.0000000000E+00	0.0000000000E+00	-5.1180070062E+03	5.1180070062E+03	9.3827000000E-01	0.000E+00	0.0
	51	2	1	2	0	0	5.1361192564E+01	-8.4402152901E+01	-1.0242338083E+03	1.4358229021E+03	1.0013844500E+03	0.000E+00	0.0
	1000022	2	5	5	0	0	-5.1361192564E+01	8.4402152901E+01	-1.1513913131E+03	1.3972388431E+03	7.8537426306E+02	0.000E+00	0.0
	14	1	6	6	0	0	-6.0479319080E+01	-1.3231570047E+02	-3.2055927147E+02	4.7911213630E+02	3.2500000000E+02	0.000E+00	0.0
	-14	1	6	6	0	0	9.1181265163E+00	2.1671785337E+02	-8.3083204168E+02	9.1812670677E+02	3.2500000000E+02	0.000E+00	0.0
	25	2	5	5	0	0	5.1361192564E+01	-8.4402152901E+01	-4.9202277587E+01	1.6615355388E+02	1.2419518441E+02	0.000E+00	0.0
	-5	1	9	9	0	501	-2.3546130774E+01	-3.3686656635E+01	-6.2198673880E+01	7.4668323552E+01	4.1800000000E+00	0.000E+00	0.0
	5	1	9	9	501	0	7.4907323338E+01	-5.0715496266E+01	1.2996396293E+01	9.1485230326E+01	4.1800000000E+00	0.000E+00	0.0
</event>
<event>
    11  -1  1.0000000E+00  1.0000000E+00  -1.0000000E+00  -1.0000000E+00
	2212	-1	0	0	0	0	0.0000000000E+00	0.0000000000E+00	6.5000000000E+03	6.5000000000E+03	9.3827000000E-01	0.000E+00	0.0
	2212	-1	0	0	0	0	0.0000000000E+00	0.0000000000E+00	-6.5000000000E+03	6.5000000000E+03	9.3827000000E-01	0.000E+00	0.0
	2212	1	0	0	0	0	0.0000000000E+00	0.0000000000E+00	5.3470734733E+03	5.3470734733E+03	9.3827000000E-01	0.000E+00	0.0
	2212	1	0	0	0	0	0.0000000000E+00	0.0000000000E+00	-6.2637618559E+03	6.2637618559E+03	9.3827000000E-01	0.000E+00	0.0
	51	2	1	2	0	0	-9.0389202769E+01	1.3212252752E+01	1.0456454219E+03	1.4802634940E+03	1.0437724329E+03	0.000E+00	0.0
	1000022	2	5	5	0	0	9.0389202769E+01	-1.3212252752E+01	6.3664660618E+02	1.0691095488E+03	8.5400910688E+02	0.000E+00	0.0
	14	1	6	6	0	0	1.0661343446E+01	-2.6909521114E+02	4.1986284341E+02	5.9534502952E+02	3.2500000000E+02	0.000E+00	0.0
	-14	1	6	6	0	0	7.9727859323E+01	2.5588295839E+02	2.1678376278E+02	4.7376451930E+02	3.2500000000E+02	0.000E+00	0.0
	25	2	5	5	0	0	-9.0389202769E+01	1.3212252752E+01	2.8004177644E+02	3.2005512192E+02	1.2516833832E+02	0.000E+00	0.0
	-5	1	9	9	0	501	-9.1680174353E+01	4.4686768583E+01	2.6674350314E+02	2.8560765138E+02	4.1800000000E+00	0.000E+00	0.0
	5	1	9	9	501	0	1.2909715843E+00	-3.1474515830E+01	1.3298273298E+01	3.4447470547E+01	4.1800000000E+00	0.000E+00	0.0
</event>
<event>
    11  -1  1.0000000E+00  1.0000000E+00  -1.0000000E+00  -1.0000000E+00
	2212	-1	0	0	0	0	0.0000000000E+00	0.0000000000E+00	6.5000000000E+03	6.5000000000E+03	9.3827000000E-01	0.000E+00	0.0
	2212	-1	0	0	0	0	0.0000000000E+00	0.0000000000E+00	-6.5000000000E+03	6.5000000000E+03	9.3827000000E-01	0.000E+00	0.0
	2212	1	0	0	0	0	0.0000000000E+00	0.0000000000E+00	6.2879639150E+03	6.2879639150E+03	9.3827000000E-01	0.000E+00	0.0
	2212	1	0	0	0	0	0.0000000000E+00	0.0000000000E+00	-5.2065387250E+03	5.2065387250E+03	9.3827000000E-01	0.000E+00	0.0
	51	2	1	2	0	0	-5.9838712239E+01	-9.7455145764E+01	-1.1679786169E+03	1.5729889021E+03	1.0473976607E+03	0.000E+00	0.0
	1000022	2	5	5	0	0	5.9838712239E+01	9.7455145764E+01	-8.1876154089E+02	1.1928353920E+03	8.5988815245E+02	0.000E+00	0.0
	14	1	6	6	0	0	-6.2079545334E+01	-1.9005259840E+01	-7.5046492198E+02	8.2038873041E+02	3.2500000000E+02	0.000E+00	0.0
	-14	1	6	6	0	0	1.2191825757E+02	1.1646040560E+02	-6.8296618912E+01	3.7244666163E+02	3.2500000000E+02	0.000E+00	0.0
	25	2	5	5	0	0	-5.9838712239E+01	-9.7455145764E+01	-2.6266364908E+02	3.1266196802E+02	1.2524830050E+02	0.000E+00	0.0
	-5	1	9	9	0	501	-4.5810227745E+01	-1.0697366189E+02	-1.1393825888E+02	1.6291513294E+02	4.1800000000E+00	0.000E+00	0.0
	5	1	9	9	501	0	-1.4028484494E+01	9.5185161258E+00	-1.4872539019E+02	1.4974683508E+02	4.1800000000E+00	0.000E+00	0.0
</event>
<event>
    11  -1  1.0000000E+00  1.0000000E+00  -1.0000000E+00  -1.0000000E+00
	2212	-1	0	0	0	0	0.0000000000E+00	0.0000000000E+00	6.5000000000E+03	6.5000000000E+03	9.3827000000E-01	0.000E+00	0.0
	2212	-1	0	0	0	0	0.0000000000E+00	0.0000000000E+00	-6.5000000000E+03	6.5000000000E+03	9.3827000000E-01	0.000E+00	0.0
	2212	1	0	0	0	0	0.0000000000E+00	0.0000000000E+00	6.0176953196E+03	6.0176953196E+03	9.3827000000E-01	0.000E+00	0.0
	2212	1	0	0	0	0	0.0000000000E+00	0.0000000000E+00	-5.9332436442E+03	5.9332436442E+03	9.3827000000E-01	0.000E+00	0.0
	51	2	1	2	0	0	1.1062103507E+02	8.7212288962E+01	-9.8675269670E+01	1.0597059865E+03	1.0456562400E+03	0.000E+00	0.0
	1000022	2	5	5	0	0	-1.1062103507E+02	-8.7212288962E+01	-5.5739421218E+01	8.5843755338E+02	8.4496458696E+02	0.000E+00	0.0
	14	1	6	6	0	0	1.7576696931E+02	5.6783275371E-01	1.1139152901E+02	3.8591115904E+02	3.2500000000E+02	0.000E+00	0.0
	-14	1	6	6	0	0	-2.8638800438E+02	-8.7780121716E+01	-1.6713095023E+02	4.7252639434E+02	3.2500000000E+02	0.000E+00	0.0
	25	2	5	5	0	0	1.1062103507E+02	8.7212288962E+01	-2.8712254197E+01	1.9062348283E+02	1.2517955871E+02	0.000E+00	0.0
	-5	1	9	9	0	501	3.7789644589E+00	5.2456530945E+01	3.3138873312E+01	6.2302692843E+01	4.1800000000E+00	0.000E+00	0.0
	5	1	9	9	501	0	1.0684207061E+02	3.4755758017E+01	-6.1851127509E+01	1.2832078998E+02	4.1800000000E+00	0.000E+00	0.0
</event>
<event>
    11  -1  1.0000000E+00  1.0000000E+00  -1.0000000E+00  -1.0000000E+00
	2212	-1	0	0	0	0	0.0000000000E+00	0.0000000000E+00	6.5000000000E+03	6.5000000000E+03	9.3827000000E-01	0.000E+00	0.0
	2212	-1	0	0	0	0	0.0000000000E+00	0.0000000000E+00	-6.5000000000E+03	6.5000000000E+03	9.3827000000E-01	0.000E+00	0.0
	2212	1	0	0	0	0	0.0000000000E+00	0.0000000000E+00	4.9069902010E+03	4.9069902010E+03	9.3827000000E-01	0.000E+00	0.0
	2212	1	0	0	0	0	0.0000000000E+00	0.0000000000E+00	-6.3212106533E+03	6.3212106533E+03	9.3827000000E-01	0.000E+00	0.0
	51	2	1	2	0	0	-9.3922225111E+01	-8.3923376829E+01	1.2654662940E+03	1.6602777430E+03	1.0673578242E+03	0.000E+00	0.0
	1000022	2	5	5	0	0	9.3922225111E+01	8.3923376829E+01	1.3093578535E+03	1.5655780403E+03	8.4897119749E+02	0.000E+00	0.0
	14	1	6	6	0	0	9.0371003895E+01	2.7929987241E+02	4.5858143903E+02	6.3411140448E+02	3.2500000000E+02	0.000E+00	0.0
	-14	1	6	6	0	0	3.5512212156E+00	-1.9537649558E+02	8.5077641448E+02	9.3146663582E+02	3.2500000000E+02	0.000E+00	0.0
	25	2	5	5	0	0	-9.3922225111E+01	-8.3923376829E+01	1.0486259880E+02	2.0622110537E+02	1.2516573863E+02	0.000E+00	0.0
	-5	1	9	9	0	501	-5.6420001133E+01	-5.6116393795E+01	-1.1744046680E+01	8.0546019224E+01	4.1800000000E+00	0.000E+00	0.0
	5	1	9	9	501	0	-3.7502223978E+01	-2.7806983033E+01	1.1660664548E+02	1.2567508615E+02	4.1800000000E+00	0.000E+00	0.0
</event>
<event>
    11  -1  1.0000000E+00  1.0000000E+00  -1.0000000E+00  -1.0000000E+00
	2212	-1	0	0	0	0	0.0000000000E+00	0.0000000000E+00	6.5000000000E+03	6.5000000000E+03	9.3827000000E-01	0.000E+00	0.0
	2212	-1	0	0	0	0	0.0000000000E+00	0.0000000000E+00	-6.5000000000E+03	6.5000000000E+03	9.3827000000E-01	0.000E+00	0.0
	2212	1	0	0	0	0	0.0000000000E+00	0.0000000000E+00	5.3930408900E+03	5.3930408900E+03	9.3827000000E-01	0.000E+00	0.0
	2212	1	0	0	0	0	0.0000000000E+00	0.0000000000E+00	-6.2507170980E+03	6.2507170980E+03	9.3827000000E-01	0.000E+00	0.0
	51	2	1	2	0	0	9.7019505892E+01	3.1791912518E+01	7.3351148240E+02	1.2853974180E+03	1.0506112113E+03	0.000E+00	0.0
	1000022	2	5	5	0	0	-9.7019505892E+01	-3.1791912518E+01	8.3377263026E+02	1.1929464353E+03	8.4706604717E+02	0.000E+00	0.0
	14	1	6	6	0	0	-3.1901731092E+01	-2.8707679626E+02	4.2099699876E+02	6.0522250484E+02	3.2500000000E+02	0.000E+00	0.0
	-14	1	6	6	0	0	-6.5117774800E+01	2.5528488374E+02	4.1277563150E+02	5.8772393045E+02	3.2500000000E+02	0.000E+00	0.0
	25	2	5	5	0	0	9.7019505892E+01	3.1791912518E+01	2.3903577762E+01	1.6329557668E+02	1.2518208382E+02	0.000E+00	0.0
	-5	1	9	9	0	501	5.5343981736E+01	-4.1073234036E+01	3.6840471561E+01	7.8260204532E+01	4.1800000000E+00	0.000E+00	0.0
	5	1	9	9	501	0	4.1675524156E+01	7.2865146554E+01	-1.2936893799E+01	8.5035372153E+01	4.1800000000E+00	0.000E+00	0.0
</event>
<event>
    11  -1  1.0000000E+00  1.0000000E+00  -1.0000000E+00  -1.0000000E+00
	2212	-1	0	0	0	0	0.0000000000E+00	0.0000000000E+00	6.5000000000E+03	6.5000000000E+03	9.3827000000E-01	0.000E+00	0.0
	2212	-1	0	0	0	0	0.0000000000E+00	0.0000000000E+00	-6.5000000000E+03	6.5000000000E+03	9.3827000000E-01	0.000E+00	0.0
	2212	1	0	0	0	0	0.0000000000E+00	0.0000000000E+00	5.7169632880E+03	5.7169632880E+03	9.3827000000E-01	0.000E+00	0.0
	2212	1	0	0	0	0	0.0000000000E+00	0.0000000000E+00	-6.1539689867E+03	6.1539689867E+03	9.3827000000E-01	0.000E+00	0.0
	51	2	1	2	0	0	9.0340311806E+01	6.3709035143E+01	5.3370485896E+02	1.1751089469E+03	1.0410667354E+03	0.000E+00	0.0
	1000022	2	5	5	0	0	-9.0340311806E+01	-6.3709035143E+01	2.6547031106E+02	8.8967623558E+02	8.4191989227E+02	0.000E+00	0.0
	14	1	6	6	0	0	1.9749429894E+00	2.2627261430E+02	1.8552296654E+02	4.3731792496E+02	3.2500000000E+02	0.000E+00	0.0
	-14	1	6	6	0	0	-9.2315254796E+01	-2.8998164944E+02	7.9947344524E+01	4.5235831061E+02	3.2500000000E+02	0.000E+00	0.0
	25	2	5	5	0	0	9.0340311806E+01	6.3709035143E+01	1.7153538762E+02	2.3939148968E+02	1.2515463648E+02	0.000E+00	0.0
	-5	1	9	9	0	501	4.2614189857E+01	9.8510720622E+01	1.1794620820E+02	1.5952777715E+02	4.1800000000E+00	0.000E+00	0.0
	5	1	9	9	501	0	4.7726121949E+01	-3.4801685479E+01	5.3589179423E+01	7.9863712534E+01	4.1800000000E+00	0.000E+00	0.0
</event>
<event>
    11  -1  1.0000000E+00  1.0000000E+00  -1.0000000E+00  -1.0000000E+00
	2212	-1	0	0	0	0	0.0000000000E+00	0.0000000000E+00	6.5000000000E+03	6.5000000000E+03	9.3827000000E-01	0.000E+00	0.0
	2212	-1	0	0	0	0	0.0000000000E+00	0.0000000000E+00	-6.5000000000E+03	6.5000000000E+03	9.3827000000E-01	0.000E+00	0.0
	2212	1	0	0	0	0	0.0000000000E+00	0.0000000000E+00	6.0789063732E+03	6.0789063732E+03	9.3827000000E-01	0.000E+00	0.0
	2212	1	0	0	0	0	0.0000000000E+00	0.0000000000E+00	-5.8403830688E+03	5.8403830688E+03	9.3827000000E-01	0.000E+00	0.0
	51	2	1	2	0	0	-1.3380337411E+02	-5.2709814230E+01	-2.7121877111E+02	1.0978539213E+03	1.0540597437E+03	0.000E+00	0.0
	1000022	2	5	5	0	0	1.3380337411E+02	5.2709814230E+01	-1.6446790434E+02	8.7617201790E+02	8.4849634410E+02	0.000E+00	0.0
	14	1	6	6	0	0	2.6936091153E+02	-1.4818570615E+02	-2.7372660857E+01	4.4820594232E+02	3.2500000000E+02	0.000E+00	0.0
	-14	1	6	6	0	0	-1.3555753742E+02	2.0089552038E+02	-1.3709524348E+02	4.2796607558E+02	3.2500000000E+02	0.000E+00	0.0
	25	2	5	5	0	0	-1.3380337411E+02	-5.2709814230E+01	-7.4055400126E+01	2.0453854006E+02	1.2518044832E+02	0.000E+00	0.0
	-5	1	9	9	0	501	-7.8083389255E+01	-9.0552218498E+01	-2.8116142508E+01	1.2290121977E+02	4.1800000000E+00	0.000E+00	0.0
	5	1	9	9	501	0	-5.5719984860E+01	3.7842404268E+01	-4.5939257618E+01	8.1637320289E+01	4.1800000000E+00	0.000E+00	0.0
</event>
<event>
    11  -1  1.0000000E+00  1.0000000E+00  -1.0000000E+00  -1.0000000E+00
	2212	-1	0	0	0	0	0.0000000000E+00	0.0000000000E+00	6.5000000000E+03	6.5000000000E+03	9.3827000000E-01	0.000E+00	0.0
	2212	-1	0	0	0	0	0.0000000000E+00	0.0000000000E+00	-6.5000000000E+03	6.5000000000E+03	9.3827000000E-01	0.000E+00	0.0
	2212	1	0	0	0	0	0.0000000000E+00	0.0000000000E+00	5.5261846240E+03	5.5261846240E+03	9.3827000000E-01	0.000E+00	0.0
	2212	1	0	0	0	0	0.0000000000E+00	0.0000000000E+00	-6.2140145953E+03	6.2140145953E+03	9.3827000000E-01	0.000E+00	0.0
	51	2	1	2	0	0	-1.0148921862E+02	-1.1849912191E+02	6.6544591119E+02	1.2574371960E+03	1.0554562699E+03	0.000E+00	0.0
	1000022	2	5	5	0	0	1.0148921862E+02	1.1849912191E+02	5.8649358671E+02	1.0355631423E+03	8.3909128885E+02	0.000E+00	0.0
	14	1	6	6	0	0	1.2952346360E+02	-1.4874048274E+02	1.0272260188E+02	3.9379816120E+02	3.2500000000E+02	0.000E+00	0.0
	-14	1	6	6	0	0	-2.8034244981E+01	2.6723960465E+02	4.8377098483E+02	6.4176498108E+02	3.2500000000E+02	0.000E+00	0.0
	25	2	5	5	0	0	-1.0148921862E+02	-1.1849912191E+02	1.0133638461E+02	2.2423763845E+02	1.2518527175E+02	0.000E+00	0.0
	-5	1	9	9	0	501	-7.0418609811E+01	-6.4034191190E+01	1.2492953270E+02	1.5711148522E+02	4.1800000000E+00	0.000E+00	0.0
	5	1	9	9	501	0	-3.1070608806E+01	-5.4464930724E+01	-2.3593148090E+01	6.7126153227E+01	4.1800000000E+00	0.000E+00	0.0
</event>
<event>
    11  -1  1.0000000E+00  1.0000000E+00  -1.0000000E+00  -1.0000000E+00
	2212	-1	0	0	0	0	0.0000000000E+00	0.0000000000E+00	6.5000000000E+03	6.5000000000E+03	9.3827000000E-01	0.000E+00	0.0
	2212	-1	0	0	0	0	0.0000000000E+00	0.0000000000E+00	-6.5000000000E+03	6.5000000000E+03	9.3827000000E-01	0.000E+00	0.0
	2212	1	0	0	0	0	0.0000000000E+00	0.0000000000E+00	6.0319531724E+03	6.0319531724E+03	9.3827000000E-01	0.000E+00	0.0
	2212	1	0	0	0	0	0.0000000000E+00	0.0000000000E+00	-5.8166551158E+03	5.8166551158E+03	9.3827000000E-01	0.000E+00	0.0
	51	2	1	2	0	0	-1.9616934939E+01	-5.4718263483E+01	-4.3681676291E+02	1.2138934952E+03	1.1310833836E+03	0.000E+00	0.0
	1000022	2	5	5	0	0	1.9616934939E+01	5.4718263483E+01	5.0543343811E+01	8.5185675007E+02	8.4836689029E+02	0.000E+00	0.0
	14	1	6	6	0	0	-1.6176998571E+01	-1.2193279937E+02	-2.0255552651E+02	4.0222263010E+02	3.2500000000E+02	0.000E+00	0.0
	-14	1	6	6	0	0	3.5793933509E+01	1.7665106286E+02	2.5309887032E+02	4.4963411997E+02	3.2500000000E+02	0.000E+00	0.0
	25	2	5	5	0	0	-1.9616934939E+01	-5.4718263483E+01	-2.6584140041E+02	2.9953496169E+02	1.2518238937E+02	0.000E+00	0.0
	-5	1	9	9	0	501	-5.3320825220E+00	3.5282724546E+01	-3.0485266759E+01	4.7118209269E+01	4.1800000000E+00	0.000E+00	0.0
	5	1	9	9	501	0	-1.4284852417E+01	-9.0000988029E+01	-2.3535613366E+02	2.5241675242E+02	4.1800000000E+00	0.000E+00	0.0
</event>
<event>
    11  -1  1.0000000E+00  1.0000000E+00  -1.0000000E+00  -1.0000000E+00
	2212	-1	0	0	0	0	0.0000000000E+00	0.0000000000E+00	6.5000000000E+03	6.5000000000E+03	9.3827000000E-01	0.000E+00	0.0
	2212	-1	0	0	0	0	0.0000000000E+00	0.0000000000E+00	-6.5000000000E+03	6.5000000000E+03	9.3827000000E-01	0.000E+00	0.0
	2212	1	0	0	0	0	0.0000000000E+00	0.0000000000E+00	6.3202692285E+03	6.3202692285E+03	9.3827000000E-01	0.000E+00	0.0
	2212	1	0	0	0	0	0.0000000000E+00	0.0000000000E+00	-4.9816899315E+03	4.9816899315E+03	9.3827000000E-01	0.000E+00	0.0
	51	2	1	2	0	0	4.7013459862E+01	-7.1522663205E+01	-1.1696334892E+03	1.5706420393E+03	1.0447718219E+03	0.000E+00	0.0
	1000022	2	5	5	0	0	-4.7013459862E+01	7.1522663205E+01	-1.2784729085E+03	1.5348778602E+03	8.4500373431E+02	0.000E+00	0.0
	14	1	6	6	0	0	1.2486418995E+02	5.9582713614E+01	-2.2442676075E+02	4.1848958964E+02	3.2500000000E+02	0.000E+00	0.0
	-14	1	6	6	0	0	-1.7187764982E+02	1.1939949591E+01	-1.0540461478E+03	1.1163882705E+03	3.2500000000E+02	0.000E+00	0.0
	25	2	5	5	0	0	4.7013459862E+01	-7.1522663205E+01	-6.0106388525E+01	1.6316297982E+02	1.2523427360E+02	0.000E+00	0.0
	-5	1	9	9	0	501	-1.0141155820E+01	-3.9124654285E+01	-8.3853358347E+01	9.3179610003E+01	4.1800000000E+00	0.000E+00	0.0
	5	1	9	9	501	0	5.7154615682E+01	-3.2398008920E+01	2.3746969822E+01	6.9983369821E+01	4.1800000000E+00	0.000E+00	0.0
</event>
<event>
    11  -1  1.0000000E+00  1.0000000E+00  -1.0000000E+00  -1.0000000E+00
	2212	-1	0	0	0	0	0.0000000000E+00	0.0000000000E+00	6.5000000000E+03	6.5000000000E+03	9.3827000000E-01	0.000E+00	0.0
	2212	-1	0	0	0	0	0.0000000000E+00	0.0000000000E+00	-6.5000000000E+03	6.5000000000E+03	9.3827000000E-01	0.000E+00	0.0
	2212	1	0	0	0	0	0.0000000000E+00	0.0000000000E+00	6.1524335414E+03	6.1524335414E+03	9.3827000000E-01	0.000E+00	0.0
	2212	1	0	0	0	0	0.0000000000E+00	0.0000000000E+00	-5.7035969764E+03	5.7035969764E+03	9.3827000000E-01	0.000E+00	0.0
	51	2	1	2	0	0	3.5614657229E+01	1.2396807046E+02	-4.3226913139E+02	1.1448602545E+03	1.0522413764E+03	0.000E+00	0.0
	1000022	2	5	5	0	0	-3.5614657229E+01	-1.2396807046E+02	-3.9176643222E+02	9.5539540756E+02	8.6177895139E+02	0.000E+00	0.0
	14	1	6	6	0	0	-2.8433731443E+02	1.8608057179E+01	-1.4072017499E+02	4.5455597655E+02	3.2500000000E+02	0.000E+00	0.0
	-14	1	6	6	0	0	2.4872265720E+02	-1.4257612764E+02	-2.5104625722E+02	5.0083943100E+02	3.2500000000E+02	0.000E+00	0.0
	25	2	5	5	0	0	3.5614657229E+01	1.2396807046E+02	-5.7070132798E+01	1.8857407465E+02	1.2516666995E+02	0.000E+00	0.0
	-5	1	9	9	0	501	6.2048890426E+01	1.3119976629E+02	-2.7012701944E+01	1.4768412895E+02	4.1800000000E+00	0.000E+00	0.0
	5	1	9	9	501	0	-2.6434233197E+01	-7.2316958292E+00	-3.0057430855E+01	4.0889945694E+01	4.1800000000E+00	0.000E+00	0.0
</event>
<event>
    11  -1  1.0000000E+00  1.0000000E+00  -1.0000000E+00  -1.0000000E+00
	2212	-1	0	0	0	0	0.0000000000E+00	0.0000000000E+00	6.5000000000E+03	6.5000000000E+03	9.3827000000E-01	0.000E+00	0.0
	2212	-1	0	0	0	0	0.0000000000E+00	0.0000000000E+00	-6.5000000000E+03	6.5000000000E+03	9.3827000000E-01	0.000E+00	0.0
	2212	1	0	0	0	0	0.0000000000E+00	0.0000000000E+00	5.5512000347E+03	5.5512000347E+03	9.3827000000E-01	0.000E+00	0.0
	2212	1	0	0	0	0	0.0000000000E+00	0.0000000000E+00	-6.2036187673E+03	6.2036187673E+03	9.3827000000E-01	0.000E+00	0.0
	51	2	1	2	0	0	-4.1753159605E+01	-4.7328240575E+01	7.5617807649E+02	1.3040761424E+03	1.0605781504E+03	0.000E+00	0.0
	1000022	2	5	5	0	0	4.1753159605E+01	4.7328240575E+01	4.5089387132E+02	9.9969476243E+02	8.9000058772E+02	0.000E+00	0.0
	14	1	6	6	0	0	6.7499106364E+01	-2.5526691906E+02	3.4475734898E+02	5.4240202710E+02	3.2500000000E+02	0.000E+00	0.0
	-14	1	6	6	0	0	-2.5745946758E+01	3.0259515964E+02	1.0613652234E+02	4.5729273533E+02	3.2500000000E+02	0.000E+00	0.0
	25	2	5	5	0	0	-4.1753159605E+01	-4.7328240575E+01	2.0152486133E+02	2.4548643556E+02	1.2517200813E+02	0.000E+00	0.0
	-5	1	9	9	0	501	-7.7796721084E+00	3.3839082624E+01	1.2846439068E+01	3.7257351056E+01	4.1800000000E+00	0.000E+00	0.0
	5	1	9	9	501	0	-3.3973487497E+01	-8.1167323199E+01	1.8867842226E+02	2.0822908451E+02	4.1800000000E+00	0.000E+00	0.0
</event>
<event>
    11  -1  1.0000000E+00  1.0000000E+00  -1.0000000E+00  -1.0000000E+00
	2212	-1	0	0	0	0	0.0000000000E+00	0.0000000000E+00	6.5000000000E+03	6.5000000000E+03	9.3827000000E-01	0.000E+00	0.0
	2212	-1	0	0	0	0	0.0000000000E+00	0.0000000000E+00	-6.5000000000E+03	6.5000000000E+03	9.3827000000E-01	0.000E+00	0.0
	2212	1	0	0	0	0	0.0000000000E+00	0.0000000000E+00	5.3438498947E+03	5.3438498947E+03	9.3827000000E-01	0.000E+00	0.0
	2212	1	0	0	0	0	0.0000000000E+00	0.0000000000E+00	-6.2610080216E+03	6.2610080216E+03	9.3827000000E-01	0.000E+00	0.0
	51	2	1	2	0	0	-3.9251482239E+01	-9.6212070032E+01	1.0295527694E+03	1.4751334686E+03	1.0513050956E+03	0.000E+00	0.0
	1000022	2	5	5	0	0	3.9251482239E+01	9.6212070032E+01	6.5392007383E+02	1.0856940938E+03	8.6042010735E+02	0.000E+00	0.0
	14	1	6	6	0	0	-2.5414963770E+02	8.6301277712E+00	3.8544972607E+02	5.6467956292E+02	3.2500000000E+02	0.000E+00	0.0
	-14	1	6	6	0	0	2.9340111994E+02	8.7581942260E+01	2.6847034776E+02	5.2101453091E+02	3.2500000000E+02	0.000E+00	0.0
	25	2	5	5	0	0	-3.9251482239E+01	-9.6212070032E+01	2.6323805300E+02	3.0944798986E+02	1.2516526916E+02	0.000E+00	0.0
	-5	1	9	9	0	501	3.1183814470E+01	-3.2578375205E+01	1.7147709477E+02	1.7735739975E+02	4.1800000000E+00	0.000E+00	0.0
	5	1	9	9	501	0	-7.0435296710E+01	-6.3633694827E+01	9.1760958234E+01	1.3209059011E+02	4.1800000000E+00	0.000E+00	0.0
</event>
<event>
    11  -1  1.0000000E+00  1.0000000E+00  -1.0000000E+00  -1.0000000E+00
	2212	-1	0	0	0	0	0.0000000000E+00	0.0000000000E+00	6.5000000000E+03	6.5000000000E+03	9.3827000000E-01	0.000E+00	0.0
	2212	-1	0	0	0	0	0.0000000000E+00	0.0000000000E+00	-6.5000000000E+03	6.5000000000E+03	9.3827000000E-01	0.000E+00	0.0
	2212	1	0	0	0	0	0.0000000000E+00	0.0000000000E+00	6.2392012852E+03	6.2392012852E+03	9.3827000000E-01	0.000E+00	0.0
	2212	1	0	0	0	0	0.0000000000E+00	0.0000000000E+00	-5.4338919895E+03	5.4338919895E+03	9.3827000000E-01	0.000E+00	0.0
	51	2	1	2	0	0	-7.2071035954E+01	1.0051309333E+02	-8.7604445340E+02	1.3765570807E+03	1.0545892073E+03	0.000E+00	0.0
	1000022	2	5	5	0	0	7.2071035954E+01	-1.0051309333E+02	-6.0113462015E+02	1.0573883087E+03	8.6105173341E+02	0.000E+00	0.0
	14	1	6	6	0	0	2.3177437376E+02	-2.3668718663E+02	-4.3594541201E+02	6.3672096470E+02	3.2500000000E+02	0.000E+00	0.0
	-14	1	6	6	0	0	-1.5970333780E+02	1.3617409330E+02	-1.6518920814E+02	4.2066734396E+02	3.2500000000E+02	0.000E+00	0.0
	25	2	5	5	0	0	-7.2071035954E+01	1.0051309333E+02	-2.0417467551E+02	2.6951841667E+02	1.2512299010E+02	0.000E+00	0.0
	-5	1	9	9	0	501	3.5069108077E+01	1.8377105091E+01	-3.4752961407E+01	5.2846958848E+01	4.1800000000E+00	0.000E+00	0.0
	5	1	9	9	501	0	-1.0714014403E+02	8.2135988236E+01	-1.6942171410E+02	2.1667145782E+02	4.1800000000E+00	0.000E+00	0.0
</event>
<event>
    11  -1  1.0000000E+00  1.0000000E+00  -1.0000000E+00  -1.0000000E+00
	2212	-1	0	0	0	0	0.0000000000E+00	0.0000000000E+00	6.5000000000E+03	6.5000000000E+03	9.3827000000E-01	0.000E+00	0.0
	2212	-1	0	0	0	0	0.0000000000E+00	0.0000000000E+00	-6.5000000000E+03	6.5000000000E+03	9.3827000000E-01	0.000E+00	0.0
	2212	1	0	0	0	0	0.0000000000E+00	0.0000000000E+00	5.7875959952E+03	5.7875959952E+03	9.3827000000E-01	0.000E+00	0.0
	2212	1	0	0	0	0	0.0000000000E+00	0.0000000000E+00	-6.1256959517E+03	6.1256959517E+03	9.3827000000E-01	0.000E+00	0.0
	51	2	1	2	0	0	-8.5092920645E+01	2.9527482097E+01	3.3767586141E+02	1.0903029289E+03	1.0327743278E+03	0.000E+00	0.0
	1000022	2	5	5	0	0	8.5092920645E+01	-2.9527482097E+01	2.8931903577E+02	9.2496028212E+02	8.7391838389E+02	0.000E+00	0.0
	14	1	6	6	0	0	1.8651908230E+02	-1.0179315802E+02	-1.0178459195E+02	4.0141788480E+02	3.2500000000E+02	0.000E+00	0.0
	-14	1	6	6	0	0	-1.0142616165E+02	7.2265675920E+01	3.9110362771E+02	5.2354239732E+02	3.2500000000E+02	0.000E+00	0.0
	25	2	5	5	0	0	-8.5092920645E+01	2.9527482097E+01	4.8780920743E+01	1.6174777098E+02	1.2518021347E+02	0.000E+00	0.0
	-5	1	9	9	0	501	-9.4621200725E+01	2.0065022530E+01	-1.3631392841E+01	9.7770466024E+01	4.1800000000E+00	0.000E+00	0.0
	5	1	9	9	501	0	9.5282800800E+00	9.4624595669E+00	6.2412313584E+01	6.3977304955E+01	4.1800000000E+00	0.000E+00	0.0
</event>
<event>
    11  -1  1.0000000E+00  1.0000000E+00  -1.0000000E+00  -1.0000000E+00
	2212	-1	0	0	0	0	0.0000000000E+00	0.0000000000E+00	6.5000000000E+03	6.5000000000E+03	9.3827000000E-01	0.000E+00	0.0
	2212	-1	0	0	0	0	0.0000000000E+00	0.0000000000E+00	-6.5000000000E+03	6.5000000000E+03	9.3827000000E-01	0.000E+00	0.0
	2212	1	0	0	0	0	0.0000000000E+00	0.0000000000E+00	6.0380223835E+03	6.0380223835E+03	9.3827000000E-01	0.000E+00	0.0
	2212	1	0	0	0	0	0.0000000000E+00	0.0000000000E+00	-5.9027440989E+03	5.9027440989E+03	9.3827000000E-01	0.000E+00	0.0
	51	2	1	2	0	0	-5.8948021809E+01	-1.0209137356E+02	-2.2189028369E+02	1.0801889864E+03	1.0505595797E+03	0.000E+00	0.0
	1000022	2	5	5	0	0	5.8948021809E+01	1.0209137356E+02	-2.5271441170E+01	8.5509563161E+02	8.4655323260E+02	0.000E+00	0.0
	14	1	6	6	0	0	-3.7313274086E+01	1.8225043337E-01	2.4587146592E+02	4.0923109778E+02	3.2500000000E+02	0.000E+00	0.0
	-14	1	6	6	0	0	9.6261295894E+01	1.0190912312E+02	-2.7114290709E+02	4.4586453383E+02	3.2500000000E+02	0.000E+00	0.0
	25	2	5	5	0	0	-5.8948021809E+01	-1.0209137356E+02	-1.1000684338E+02	2.0413788599E+02	1.2519286352E+02	0.000E+00	0.0
	-5	1	9	9	0	501	-7.1590238046E+01	-9.5581230440E+01	-1.3172262211E+02	1.7784615647E+02	4.1800000000E+00	0.000E+00	0.0
	5	1	9	9	501	0	1.2642216237E+01	-6.5101431185E+00	2.1715778735E+01	2.6291729514E+01	4.1800000000E+00	0.000E+00	0.0
</event>
<event>
    11  -1  1.0000000E+00  1.0000000E+00  -1.0000000E+00  -1.0000000E+00
	2212	-1	0	0	0	0	0.0000000000E+00	0.0000000000E+00	6.5000000000E+03	6.5000000000E+03	9.3827000000E-01	0.000E+00	0.0
	2212	-1	0	0	0	0	0.0000000000E+00	0.0000000000E+00	-6.5000000000E+03	6.5000000000E+03	9.3827000000E-01	0.000E+00	0.0
	2212	1	0	0	0	0	0.0000000000E+00	0.0000000000E+00	6.1685547357E+03	6.1685547357E+03	9.3827000000E-01	0.000E+00	0.0
	2212	1	0	0	0	0	0.0000000000E+00	0.0000000000E+00	-5.6778698092E+03	5.6778698092E+03	9.3827000000E-01	0.000E+00	0.0
	51	2	1	2	0	0	-1.9029692936E+01	1.6192173500E+02	-4.5775586498E+02	1.1515580067E+03	1.0440137133E+03	0.000E+00	0.0
	1000022	2	5	5	0	0	1.9029692936E+01	-1.6192173500E+02	-4.3180584765E+02	9.3975660683E+02	8.1859966562E+02	0.000E+00	0.0
	14	1	6	6	0	0	-1.3959988310E+02	1.0223291281E+02	-9.7461760947E+01	3.8087201350E+02	3.2500000000E+02	0.000E+00	0.0
	-14	1	6	6	0	0	1.5862957604E+02	-2.6415464781E+02	-3.3434408670E+02	5.5888459333E+02	3.2500000000E+02	0.000E+00	0.0
	25	2	5	5	0	0	-1.9029692936E+01	1.6192173500E+02	-5.8879078864E+01	2.1381884826E+02	1.2518377077E+02	0.000E+00	0.0
	-5	1	9	9	0	501	-2.9681293459E+01	6.6841941091E+01	3.3686448868E+01	8.0629234820E+01	4.1800000000E+00	0.000E+00	0.0
	5	1	9	9	501	0	1.0651600523E+01	9.5079793908E+01	-9.2565527732E+01	1.3318961344E+02	4.1800000000E+00	0.000E+00	0.0
</event>
<event>
    11  -1  1.0000000E+00  1.0000000E+00  -1.0000000E+00  -1.0000000E+00
	2212	-1	0	0	0	0	0.0000000000E+00	0.0000000000E+00	6.5000000000E+03	6.5000000000E+03	9.3827000000E-01	0.000E+00	0.0
	2212	-1	0	0	0	0	0.0000000000E+00	0.0000000000E+00	-6.5000000000E+03	6.5000000000E+03	9.3827000000E-01	0.000E+00	0.0
	2212	1	0	0	0	0	0.0000000000E+00	0.0000000000E+00	5.6987055038E+03	5.6987055038E+03	9.3827000000E-01	0.000E+00	0.0
	2212	1	0	0	0	0	0.0000000000E+00	0.0000000000E+00	-6.1532880758E+03	6.1532880758E+03	9.3827000000E-01	0.000E+00	0.0
	51	2	1	2	0	0	1.6274037731E+02	-2.2822880383E+01	4.6085886202E+02	1.1621831316E+03	1.0541695435E+03	0.000E+00	0.0
	1000022	2	5	5	0	0	-1.6274037731E+02	2.2822880383E+01	3.6471404494E+02	9.2272521306E+02	8.3150476245E+02	0.000E+00	0.0
	14	1	6	6	0	0	-2.2201399159E+02	9.8623914856E+01	4.1461361384E+02	5.8012613958E+02	3.2500000000E+02	0.000E+00	0.0
	-14	1	6	6	0	0	5.9273614284E+01	-7.5801034473E+01	-4.9899568893E+01	3.4259907349E+02	3.2500000000E+02	0.000E+00	0.0
	25	2	5	5	0	0	1.6274037731E+02	-2.2822880383E+01	8.9868527041E+01	2.2528120731E+02	1.2517969459E+02	0.000E+00	0.0
	-5	1	9	9	0	501	4.6112947767E+01	2.5655523632E+01	8.3354800795E+01	9.8742620282E+01	4.1800000000E+00	0.000E+00	0.0
	5	1	9	9	501	0	1.1662742954E+02	-4.8478404015E+01	6.5137262469E+00	1.2653858702E+02	4.1800000000E+00	0.000E+00	0.0
</event>
<event>
    11  -1  1.0000000E+00  1.0000000E+00  -1.0000000E+00  -1.0000000E+00
	2212	-1	0	0	0	0	0.0000000000E+00	0.0000000000E+00	6.5000000000E+03	6.5000000000E+03	9.3827000000E-01	0.000E+00	0.0
	2212	-1	0	0	0	0	0.0000000000E+00	0.0000000000E+00	-6.5000000000E+03	6.5000000000E+03	9.3827000000E-01	0.000E+00	0.0
	2212	1	0	0	0	0	0.0000000000E+00	0.0000000000E+00	5.9444311476E+03	5.9444311476E+03	9.3827000000E-01	0.000E+00	0.0
	2212	1	0	0	0	0	0.0000000000E+00	0.0000000000E+00	-5.9999863124E+03	5.9999863124E+03	9.3827000000E-01	0.000E+00	0.0
	51	2	1	2	0	0	-3.7949207782E+01	1.8097579051E+01	-4.9831594006E+01	1.0561339759E+03	1.0541195959E+03	0.000E+00	0.0
	1000022	2	5	5	0	0	3.7949207782E+01	-1.8097579051E+01	1.5235317669E+02	8.9183959274E+02	8.7772359202E+02	0.000E+00	0.0
	14	1	6	6	0	0	2.1644060759E+02	7.1453959895E+01	-1.2950742326E+02	4.1755164672E+02	3.2500000000E+02	0.000E+00	0.0
	-14	1	6	6	0	0	-1.7849139981E+02	-8.9551538946E+01	2.8186059995E+02	4.7428794602E+02	3.2500000000E+02	0.000E+00	0.0
	25	2	5	5	0	0	-3.7949207782E+01	1.8097579051E+01	-9.6798011875E+01	1.6374294729E+02	1.2519677690E+02	0.000E+00	0.0
	-5	1	9	9	0	501	9.4561446180E-01	6.2905558562E+01	-8.0145709827E+01	1.0197455903E+02	4.1800000000E+00	0.000E+00	0.0
	5	1	9	9	501	0	-3.8894822244E+01	-4.4807979511E+01	-1.6652302048E+01	6.1768388264E+01	4.1800000000E+00	0.000E+00	0.0
</event>
<event>
    11  -1  1.0000000E+00  1.0000000E+00  -1.0000000E+00  -1.0000000E+00
	2212	-1	0	0	0	0	0.0000000000E+00	0.0000000000E+00	6.5000000000E+03	6.5000000000E+03	9.3827000000E-01	0.000E+00	0.0
	2212	-1	0	0	0	0	0.0000000000E+00	0.0000000000E+00	-6.5000000000E+03	6.5000000000E+03	9.3827000000E-01	0.000E+00	0.0
	2212	1	0	0	0	0	0.0000000000E+00	0.0000000000E+00	5.9407753985E+03	5.9407753985E+03	9.3827000000E-01	0.000E+00	0.0
	2212	1	0	0	0	0	0.0000000000E+00	0.0000000000E+00	-6.0041264933E+03	6.0041264933E+03	9.3827000000E-01	0.000E+00	0.0
	51	2	1	2	0	0	2.8266493699E+01	-4.1269114983E+01	1.9597716547E+02	1.0724401338E+03	1.0531945009E+03	0.000E+00	0.0
	1000022	2	5	5	0	0	-2.8266493699E+01	4.1269114983E+01	-8.0051154491E+01	8.5828127535E+02	8.5307468944E+02	0.000E+00	0.0
	14	1	6	6	0	0	3.5333956786E+01	2.7831670988E+02	-1.2847567432E+02	4.4815140120E+02	3.2500000000E+02	0.000E+00	0.0
	-14	1	6	6	0	0	-6.3600450485E+01	-2.3704759490E+02	4.8424519825E+01	4.1012987415E+02	3.2500000000E+02	0.000E+00	0.0
	25	2	5	5	0	0	2.8266493699E+01	-4.1269114983E+01	1.4340224921E+02	1.9681683285E+02	1.2518197194E+02	0.000E+00	0.0
	-5	1	9	9	0	501	-2.9910042909E+01	-4.3951936855E+01	1.2450786820E+02	1.3544764695E+02	4.1800000000E+00	0.000E+00	0.0
	5	1	9	9	501	0	5.8176536608E+01	2.6828218728E+00	1.8894381015E+01	6.1369185906E+01	4.1800000000E+00	0.000E+00	0.0
</event>
<event>
    11  -1  1.0000000E+00  1.0000000E+00  -1.0000000E+00  -1.0000000E+00
	2212	-1	0	0	0	0	0.0000000000E+00	0.0000000000E+00	6.5000000000E+03	6.5000000000E+03	9.3827000000E-01	0.000E+00	0.0
	2212	-1	0	0	0	0	0.0000000000E+00	0.0000000000E+00	-6.5000000000E+03	6.5000000000E+03	9.3827000000E-01	0.000E+00	0.0
	2212	1	0	0	0	0	0.0000000000E+00	0.0000000000E+00	5.6153229516E+03	5.6153229516E+03	9.3827000000E-01	0.000E+00	0.0
	2212	1	0	0	0	0	0.0000000000E+00	0.0000000000E+00	-6.1853866022E+03	6.1853866022E+03	9.3827000000E-01	0.000E+00	0.0
	51	2	1	2	0	0	7.9210618244E+01	7.8960522782E+01	6.0055808557E+02	1.2192227479E+03	1.0551421746E+03	0.000E+00	0.0
	1000022	2	5	5	0	0	-7.9210618244E+01	-7.8960522782E+01	4.5130692904E+02	9.9367341093E+02	8.7817983191E+02	0.000E+00	0.0
	14	1	6	6	0	0	-3.7516624406E+01	-3.2395891988E+02	1.4541246144E+02	4.8283191984E+02	3.2500000000E+02	0.000E+00	0.0
	-14	1	6	6	0	0	-4.1693993838E+01	2.4499839710E+02	3.0589446760E+02	5.1084149108E+02	3.2500000000E+02	0.000E+00	0.0
	25	2	5	5	0	0	7.9210618244E+01	7.8960522782E+01	1.1875672156E+02	2.0561703525E+02	1.2516437220E+02	0.000E+00	0.0
	-5	1	9	9	0	501	9.8718975263E+01	5.7469857328E+01	1.3098375865E+02	1.7384601810E+02	4.1800000000E+00	0.000E+00	0.0
	5	1	9	9	501	0	-1.9508357019E+01	2.1490665454E+01	-1.2227037085E+01	3.1771017156E+01	4.1800000000E+00	0.000E+00	0.0
</event>
<event>
    11  -1  1.0000000E+00  1.0000000E+00  -1.0000000E+00  -1.0000000E+00
	2212	-1	0	0	0	0	0.0000000000E+00	0.0000000000E+00	6.5000000000E+03	6.5000000000E+03	9.3827000000E-01	0.000E+00	0.0
	2212	-1	0	0	0	0	0.0000000000E+00	0.0000000000E+00	-6.5000000000E+03	6.5000000000E+03	9.3827000000E-01	0.000E+00	0.0
	2212	1	0	0	0	0	0.0000000000E+00	0.0000000000E+00	6.0709625165E+03	6.0709625165E+03	9.3827000000E-01	0.000E+00	0.0
	2212	1	0	0	0	0	0.0000000000E+00	0.0000000000E+00	-5.8732679765E+03	5.8732679765E+03	9.3827000000E-01	0.000E+00	0.0
	51	2	1	2	0	0	-1.0850138924E+02	7.2579332209E+01	-1.3498489607E+02	1.0539579469E+03	1.0370950394E+03	0.000E+00	0.0
	1000022	2	5	5	0	0	1.0850138924E+02	-7.2579332209E+01	-2.2579306949E+02	8.7274359374E+02	8.3286166873E+02	0.000E+00	0.0
	14	1	6	6	0	0	6.3147657488E+01	-1.9441061036E+02	9.7639353564E+01	3.9615849787E+02	3.2500000000E+02	0.000E+00	0.0
	-14	1	6	6	0	0	4.5353731749E+01	1.2183127815E+02	-3.2343242306E+02	4.7658509587E+02	3.2500000000E+02	0.000E+00	0.0
	25	2	5	5	0	0	-1.0850138924E+02	7.2579332209E+01	2.8098529471E+01	1.8302591330E+02	1.2517446485E+02	0.000E+00	0.0
	-5	1	9	9	0	501	-4.8175279536E+01	9.7306932055E+01	4.1534352088E+01	1.1632743179E+02	4.1800000000E+00	0.000E+00	0.0
	5	1	9	9	501	0	-6.0326109701E+01	-2.4727599846E+01	-1.3435822618E+01	6.6698481506E+01	4.1800000000E+00	0.000E+00	0.0
</event>
<event>
    11  -1  1.0000000E+00  1.0000000E+00  -1.0000000E+00  -1.0000000E+00
	2212	-1	0	0	0	0	0.0000000000E+00	0.0000000000E+00	6.5000000000E+03	6.5000000000E+03	9.3827000000E-01	0.000E+00	0.0
	2212	-1	0	0	0	0	0.0000000000E+00	0.0000000000E+00	-6.5000000000E+03	6.5000000000E+03	9.3827000000E-01	0.000E+00	0.0
	2212	1	0	0	0	0	0.0000000000E+00	0.0000000000E+00	5.6585075338E+03	5.6585075338E+03	9.3827000000E-01	0.000E+00	0.0
	2212	1	0	0	0	0	0.0000000000E+00	0.0000000000E+00	-6.1744989235E+03	6.1744989235E+03	9.3827000000E-01	0.000E+00	0.0
	51	2	1	2	0	0	2.0367786055E+01	-1.1721252432E+02	4.8393908696E+02	1.1593004257E+03	1.0467219375E+03	0.000E+00	0.0
	1000022	2	5	5	0	0	-2.0367786055E+01	1.1721252432E+02	4.6503613957E+02	9.8695236764E+02	8.6235882457E+02	0.000E+00	0.0
	14	1	6	6	0	0	1.2717119779E+02	2.7041470935E+02	9.7339547059E+01	4.5210243972E+02	3.2500000000E+02	0.000E+00	0.0
	-14	1	6	6	0	0	-1.4753898384E+02	-1.5320218503E+02	3.6769659251E+02	5.3484992792E+02	3.2500000000E+02	0.000E+00	0.0
	25	2	5	5	0	0	2.0367786055E+01	-1.1721252432E+02	5.0955250184E+01	1.8004117509E+02	1.2515895749E+02	0.000E+00	0.0
	-5	1	9	9	0	501	2.9559441931E+00	-5.3588025720E+01	-4.0383655623E+01	6.7295810777E+01	4.1800000000E+00	0.000E+00	0.0
	5	1	9	9	501	0	1.7411841862E+01	-6.3624498601E+01	9.1338905807E+01	1.1274536431E+02	4.1800000000E+00	0.000E+00	0.0
</event>
<event>
    11  -1  1.0000000E+00  1.0000000E+00  -1.0000000E+00  -1.0000000E+00
	2212	-1	0	0	0	0	0.0000000000E+00	0.0000000000E+00	6.5000000000E+03	6.5000000000E+03	9.3827000000E-01	0.000E+00	0.0
	2212	-1	0	0	0	0	0.0000000000E+00	0.0000000000E+00	-6.5000000000E+03	6.5000000000E+03	9.3827000000E-01	0.000E+00	0.0
	2212	1	0	0	0	0	0.0000000000E+00	0.0000000000E+00	5.0672421777E+03	5.0672421777E+03	9.3827000000E-01	0.000E+00	0.0
	2212	1	0	0	0	0	0.0000000000E+00	0.0000000000E+00	-6.3029253209E+03	6.3029253209E+03	9.3827000000E-01	0.000E+00	0.0
	51	2	1	2	0	0	1.3873829768E+02	5.6564356731E+01	1.2595344097E+03	1.6547857636E+03	1.0627516889E+03	0.000E+00	0.0
	1000022	2	5	5	0	0	-1.3873829768E+02	-5.6564356731E+01	9.9692521605E+02	1.3214231914E+03	8.5431348037E+02	0.000E+00	0.0
	14	1	6	6	0	0	-1.1970636775E+01	-1.6466977669E+02	8.5523975075E+02	9.2968783081E+02	3.2500000000E+02	0.000E+00	0.0
	-14	1	6	6	0	0	-1.2676766091E+02	1.0810541996E+02	1.4168546530E+02	3.9173536061E+02	3.2500000000E+02	0.000E+00	0.0
	25	2	5	5	0	0	1.3873829768E+02	5.6564356731E+01	2.3875792709E+02	3.0840930996E+02	1.2515235924E+02	0.000E+00	0.0
	-5	1	9	9	0	501	1.1553712700E+02	9.5319806978E+01	1.8152552686E+02	2.3537986876E+02	4.1800000000E+00	0.000E+00	0.0
	5	1	9	9	501	0	2.3201170686E+01	-3.8755450246E+01	5.7232400232E+01	7.3029441196E+01	4.1800000000E+00	0.000E+00	0.0
</event>
<event>
    11  -1  1.0000000E+00  1.0000000E+00  -1.0000000E+00  -1.0000000E+00
	2212	-1	0	0	0	0	0.0000000000E+00	0.0000000000E+00	6.5000000000E+03	6.5000000000E+03	9.3827000000E-01	0.000E+00	0.0
	2212	-1	0	0	0	0	0.0000000000E+00	0.0000000000E+00	-6.5000000000E+03	6.5000000000E+03	9.3827000000E-01	0.000E+00	0.0
	2212	1	0	0	0	0	0.0000000000E+00	0.0000000000E+00	5.5419665404E+03	5.5419665404E+03	9.3827000000E-01	0.000E+00	0.0
	2212	1	0	0	0	0	0.0000000000E+00	0.0000000000E+00	-6.2165124245E+03	6.2165124245E+03	9.3827000000E-01	0.000E+00	0.0
	51	2	1	2	0	0	8.5414040147E+01	-2.7526831698E+01	6.2857417839E+02	1.2204593861E+03	1.0422870673E+03	0.000E+00	0.0
	1000022	2	5	5	0	0	-8.5414040147E+01	2.7526831698E+01	6.2035993594E+02	1.0782396510E+03	8.7732605694E+02	0.000E+00	0.0
	14	1	6	6	0	0	1.0491238528E+02	-1.9210385783E+02	4.8125247632E+02	6.2059604151E+02	3.2500000000E+02	0.000E+00	0.0
	-14	1	6	6	0	0	-1.9032642542E+02	2.1963068952E+02	1.3910745962E+02	4.5764360950E+02	3.2500000000E+02	0.000E+00	0.0
	25	2	5	5	0	0	8.5414040147E+01	-2.7526831698E+01	5.4185948193E+01	1.6328138406E+02	1.2518549709E+02	0.000E+00	0.0
	-5	1	9	9	0	501	-1.3621240212E+01	-4.8233149265E+01	4.5256241958E+00	5.0496817200E+01	4.1800000000E+00	0.000E+00	0.0
	5	1	9	9	501	0	9.9035280359E+01	2.0706317567E+01	4.9660323997E+01	1.1278456686E+02	4.1800000000E+00	0.000E+00	0.0
</event>
<event>
    11  -1  1.0000000E+00  1.0000000E+00  -1.0000000E+00  -1.0000000E+00
	2212	-1	0	0	0	0	0.0000000000E+00	0.0000000000E+00	6.5000000000E+03	6.5000000000E+03	9.3827000000E-01	0.000E+00	0.0
	2212	-1	0	0	0	0	0.0000000000E+00	0.0000000000E+00	-6.5000000000E+03	6.5000000000E+03	9.3827000000E-01	0.000E+00	0.0
	2212	1	0	0	0	0	0.0000000000E+00	0.0000000000E+00	6.3046270024E+03	6.3046270024E+03	9.3827000000E-01	0.000E+00	0.0
	2212	1	0	0	0	0	0.0000000000E+00	0.0000000000E+00	-5.1082661163E+03	5.1082661163E+03	9.3827000000E-01	0.000E+00	0.0
	51	2	1	2	0	0	-7.1276284717E+01	-8.7620071430E+01	-1.3115224061E+03	1.6794277270E+03	1.0428944735E+03	0.000E+00	0.0
	1000022	2	5	5	0	0	7.1276284717E+01	8.7620071430E+01	-8.8168538191E+02	1.2301083610E+03	8.5031751808E+02	0.000E+00	0.0
	14	1	6	6	0	0	2.2247499129E+02	-1.3717001324E+02	-3.1375567944E+02	5.2189880309E+02	3.2500000000E+02	0.000E+00	0.0
	-14	1	6	6	0	0	-1.5119870657E+02	2.2479008467E+02	-5.6792970246E+02	7.0820955795E+02	3.2500000000E+02	0.000E+00	0.0
	25	2	5	5	0	0	-7.1276284717E+01	-8.7620071430E+01	-3.1467550419E+02	3.5699852026E+02	1.2517861180E+02	0.000E+00	0.0
	-5	1	9	9	0	501	-1.0578586620E+02	-7.3697722538E+01	-2.6560859598E+02	2.9527513009E+02	4.1800000000E+00	0.000E+00	0.0
	5	1	9	9	501	0	3.4509581479E+01	-1.3922348892E+01	-4.9066908213E+01	6.1723390170E+01	4.1800000000E+00	0.000E+00	0.0
</event>
<event>
    11  -1  1.0000000E+00  1.0000000E+00  -1.0000000E+00  -1.0000000E+00
	2212	-1	0	0	0	0	0.0000000000E+00	0.0000000000E+00	6.5000000000E+03	6.5000000000E+03	9.3827000000E-01	0.000E+00	0.0
	2212	-1	0	0	0	0	0.0000000000E+00	0.0000000000E+00	-6.5000000000E+03	6.5000000000E+03	9.3827000000E-01	0.000E+00	0.0
	2212	1	0	0	0	0	0.0000000000E+00	0.0000000000E+00	5.3709727628E+03	5.3709727628E+03	9.3827000000E-01	0.000E+00	0.0
	2212	1	0	0	0	0	0.0000000000E+00	0.0000000000E+00	-6.2681784732E+03	6.2681784732E+03	9.3827000000E-01	0.000E+00	0.0
	51	2	1	2	0	0	1.0640518140E+01	1.1324263126E+02	8.9748985328E+02	1.3657805178E+03	1.0231965949E+03	0.000E+00	0.0
	1000022	2	5	5	0	0	-1.0640518140E+01	-1.1324263126E+02	7.5410095878E+02	1.1392919413E+03	8.4639279144E+02	0.000E+00	0.0
	14	1	6	6	0	0	-2.3095811382E+02	8.0373015147E+01	2.7884420128E+02	4.9313341044E+02	3.2500000000E+02	0.000E+00	0.0
	-14	1	6	6	0	0	2.2031759568E+02	-1.9361564641E+02	4.7525675750E+02	6.4615853090E+02	3.2500000000E+02	0.000E+00	0.0
	25	2	5	5	0	0	1.0640518140E+01	1.1324263126E+02	1.4310475163E+02	2.2155682271E+02	1.2518522912E+02	0.000E+00	0.0
	-5	1	9	9	0	501	-1.4602630399E+01	3.6634092768E+01	-1.6284532496E+01	4.2871342015E+01	4.1800000000E+00	0.000E+00	0.0
	5	1	9	9	501	0	2.5243148540E+01	7.6608538491E+01	1.5938928413E+02	1.7868548070E+02	4.1800000000E+00	0.000E+00	0.0
</event>
<event>
    11  -1  1.0000000E+00  1.0000000E+00  -1.0000000E+00  -1.0000000E+00
	2212	-1	0	0	0	0	0.0000000000E+00	0.0000000000E+00	6.5000000000E+03	6.5000000000E+03	9.3827000000E-01	0.000E+00	0.0
	2212	-1	0	0	0	0	0.0000000000E+00	0.0000000000E+00	-6.5000000000E+03	6.5000000000E+03	9.3827000000E-01	0.000E+00	0.0
	2212	1	0	0	0	0	0.0000000000E+00	0.0000000000E+00	5.6463441780E+03	5.6463441780E+03	9.3827000000E-01	0.000E+00	0.0
	2212	1	0	0	0	0	0.0000000000E+00	0.0000000000E+00	-6.1878297856E+03	6.1878297856E+03	9.3827000000E-01	0.000E+00	0.0
	51	2	1	2	0	0	-2.6950315134E+01	8.9635606993E+00	5.1471098096E+02	1.1539834239E+03	1.0324454871E+03	0.000E+00	0.0
	1000022	2	5	5	0	0	2.6950315134E+01	-8.9635606993E+00	5.0012366629E+02	1.0309696713E+03	9.0109273474E+02	0.000E+00	0.0
	14	1	6	6	0	0	2.0693671688E+02	2.3356110924E+02	3.1751950289E+02	5.5119618219E+02	3.2500000000E+02	0.000E+00	0.0
	-14	1	6	6	0	0	-1.7998640174E+02	-2.4252466994E+02	1.8260416340E+02	4.7977348909E+02	3.2500000000E+02	0.000E+00	0.0
	25	2	5	5	0	0	-2.6950315134E+01	8.9635606993E+00	4.1361941335E+01	1.3485636509E+02	1.2517493403E+02	0.000E+00	0.0
	-5	1	9	9	0	501	3.7674810876E+01	3.1186015723E+01	4.4587573094E+01	6.6313520685E+01	4.1800000000E+00	0.000E+00	0.0
	5	1	9	9	501	0	-6.4625126010E+01	-2.2222455023E+01	-3.2256317584E+00	6.8542844406E+01	4.1800000000E+00	0.000E+00	0.0
</event>
<event>
    11  -1  1.0000000E+00  1.0000000E+00  -1.0000000E+00  -1.0000000E+00
	2212	-1	0	0	0	0	0.0000000000E+00	0.0000000000E+00	6.5000000000E+03	6.5000000000E+03	9.3827000000E-01	0.000E+00	0.0
	2212	-1	0	0	0	0	0.0000000000E+00	0.0000000000E+00	-6.5000000000E+03	6.5000000000E+03	9.3827000000E-01	0.000E+00	0.0
	2212	1	0	0	0	0	0.0000000000E+00	0.0000000000E+00	5.8558193228E+03	5.8558193228E+03	9.3827000000E-01	0.000E+00	0.0
	2212	1	0	0	0	0	0.0000000000E+00	0.0000000000E+00	-6.0735837600E+03	6.0735837600E+03	9.3827000000E-01	0.000E+00	0.0
	51	2	1	2	0	0	3.5779789675E+01	-2.7017321039E+01	3.5245936038E+02	1.1067945332E+03	1.0482158218E+03	0.000E+00	0.0
	1000022	2	5	5	0	0	-3.5779789675E+01	2.7017321039E+01	4.6288268224E+01	8.5357138979E+02	8.5113535040E+02	0.000E+00	0.0
	14	1	6	6	0	0	-1.8890445106E+02	2.1471312653E+02	-5.3287830423E+01	4.3617795818E+02	3.2500000000E+02	0.000E+00	0.0
	-14	1	6	6	0	0	1.5312466139E+02	-1.8769580549E+02	9.9576098647E+01	4.1739343160E+02	3.2500000000E+02	0.000E+00	0.0
	25	2	5	5	0	0	3.5779789675E+01	-2.7017321039E+01	1.7147616897E+02	2.1702552742E+02	1.2524325946E+02	0.000E+00	0.0
	-5	1	9	9	0	501	-4.4062222800E+01	4.0151783872E+00	8.0803198348E+01	9.2218384278E+01	4.1800000000E+00	0.000E+00	0.0
	5	1	9	9	501	0	7.9842012475E+01	-3.1032499426E+01	9.0672970627E+01	1.2480714314E+02	4.1800000000E+00	0.000E+00	0.0
</event>
<event>
    11  -1  1.0000000E+00  1.0000000E+00  -1.0000000E+00  -1.0000000E+00
	2212	-1	0	0	0	0	0.0000000000E+00	0.0000000000E+00	6.5000000000E+03	6.5000000000E+03	9.3827000000E-01	0.000E+00	0.0
	2212	-1	0	0	0	0	0.0000000000E+00	0.0000000000E+00	-6.5000000000E+03	6.5000000000E+03	9.3827000000E-01	0.000E+00	0.0
	2212	1	0	0	0	0	0.0000000000E+00	0.0000000000E+00	6.3036003596E+03	6.3036003596E+03	9.3827000000E-01	0.000E+00	0.0
	2212	1	0	0	0	0	0.0000000000E+00	0.0000000000E+00	-5.1239557154E+03	5.1239557154E+03	9.3827000000E-01	0.000E+00	0.0
	51	2	1	2	0	0	3.9288364994E+01	7.0898245810E+01	-1.3358032020E+03	1.6946854404E+03	1.0397203521E+03	0.000E+00	0.0
	1000022	2	5	5	0	0	-3.9288364994E+01	-7.0898245810E+01	-8.3008321214E+02	1.1924000482E+03	8.5217932331E+02	0.000E+00	0.0
	14	1	6	6	0	0	-2.6925827764E+01	-6.4594426931E+01	-3.6148985869E+01	3.3440871605E+02	3.2500000000E+02	0.000E+00	0.0
	-14	1	6	6	0	0	-1.2362537230E+01	-6.3038188790E+00	-7.9393422627E+02	8.5799133218E+02	3.2500000000E+02	0.000E+00	0.0
	25	2	5	5	0	0	3.9288364994E+01	7.0898245810E+01	-3.4956143212E+02	3.8004387680E+02	1.2517993684E+02	0.000E+00	0.0
	-5	1	9	9	0	501	-3.9673347500E+01	-1.1360359450E+00	-1.2680574073E+02	1.3293770482E+02	4.1800000000E+00	0.000E+00	0.0
	5	1	9	9	501	0	7.8961712494E+01	7.2034281755E+01	-2.2275569139E+02	2.4710617199E+02	4.1800000000E+00	0.000E+00	0.0
</event>
<event>
    11  -1  1.0000000E+00  1.0000000E+00  -1.0000000E+00  -1.0000000E+00
	2212	-1	0	0	0	0	0.0000000000E+00	0.0000000000E+00	6.5000000000E+03	6.5000000000E+03	9.3827000000E-01	0.000E+00	0.0
	2212	-1	0	0	0	0	0.0000000000E+00	0.0000000000E+00	-6.5000000000E+03	6.5000000000E+03	9.3827000000E-01	0.000E+00	0.0
	2212	1	0	0	0	0	0.0000000000E+00	0.0000000000E+00	6.3077221562E+03	6.3077221562E+03	9.3827000000E-01	0.000E+00	0.0
	2212	1	0	0	0	0	0.0000000000E+00	0.0000000000E+00	-5.0769880463E+03	5.0769880463E+03	9.3827000000E-01	0.000E+00	0.0
	51	2	1	2	0	0	3.7733070021E+01	4.7006239957E+01	-1.4298241265E+03	1.7727055832E+03	1.0461618808E+03	0.000E+00	0.0
	1000022	2	5	5	0	0	-3.7733070021E+01	-4.7006239957E+01	-8.2436062268E+02	1.1858226626E+03	8.5027735455E+02	0.000E+00	0.0
	14	1	6	6	0	0	1.2296857684E+02	9.1450018869E+01	-1.1506367055E+02	3.7729169766E+02	3.2500000000E+02	0.000E+00	0.0
	-14	1	6	6	0	0	-1.6070164686E+02	-1.3845625883E+02	-7.0929695213E+02	8.0853096491E+02	3.2500000000E+02	0.000E+00	0.0
	25	2	5	5	0	0	3.7733070021E+01	4.7006239957E+01	-4.0637348720E+02	4.2946713497E+02	1.2517682595E+02	0.000E+00	0.0
	-5	1	9	9	0	501	7.8127174047E+01	5.5081568455E+01	-3.1362463956E+02	3.2789590032E+02	4.1800000000E+00	0.000E+00	0.0
	5	1	9	9	501	0	-4.0394104025E+01	-8.0753284975E+00	-9.2748847640E+01	1.0157123465E+02	4.1800000000E+00	0.000E+00	0.0
</event>
<event>
    11  -1  1.0000000E+00  1.0000000E+00  -1.0000000E+00  -1.0000000E+00
	2212	-1	0	0	0	0	0.0000000000E+00	0.0000000000E+00	6.5000000000E+03	6.5000000000E+03	9.3827000000E-01	0.000E+00	0.0
	2212	-1	0	0	0	0	0.0000000000E+00	0.0000000000E+00	-6.5000000000E+03	6.5000000000E+03	9.3827000000E-01	0.000E+00	0.0
	2212	1	0	0	0	0	0.0000000000E+00	0.0000000000E+00	5.6469763244E+03	5.6469763244E+03	9.3827000000E-01	0.000E+00	0.0
	2212	1	0	0	0	0	0.0000000000E+00	0.0000000000E+00	-6.1909120405E+03	6.1909120405E+03	9.3827000000E-01	0.000E+00	0.0
	51	2	1	2	0	0	8.1377313954E+01	-3.5000672385E+01	6.1509460514E+02	1.2003441493E+03	1.0269553979E+03	0.000E+00	0.0
	1000022	2	5	5	0	0	-8.1377313954E+01	3.5000672385E+01	3.8845609773E+02	9.4372897114E+02	8.5549922081E+02	0.000E+00	0.0
	14	1	6	6	0	0	-1.0239140573E+02	2.8850192684E+02	2.2323883277E+02	4.9917726132E+02	3.2500000000E+02	0.000E+00	0.0
	-14	1	6	6	0	0	2.1014091779E+01	-2.5350125446E+02	1.6521726497E+02	4.4455170983E+02	3.2500000000E+02	0.000E+00	0.0
	25	2	5	5	0	0	8.1377313954E+01	-3.5000672385E+01	1.5547961842E+02	2.1838266398E+02	1.2517891952E+02	0.000E+00	0.0
	-5	1	9	9	0	501	4.4237392133E+00	-6.6766769164E+01	9.0829753555E+01	1.1289325695E+02	4.1800000000E+00	0.000E+00	0.0
	5	1	9	9	501	0	7.6953574741E+01	3.1766096779E+01	6.4649864864E+01	1.0548940704E+02	4.1800000000E+00	0.000E+00	0.0
</event>
<event>
    11  -1  1.0000000E+00  1.0000000E+00  -1.0000000E+00  -1.0000000E+00
	2212	-1	0	0	0	0	0.0000000000E+00	0.0000000000E+00	6.5000000000E+03	6.5000000000E+03	9.3827000000E-01	0.000E+00	0.0
	2212	-1	0	0	0	0	0.0000000000E+00	0.0000000000E+00	-6.5000000000E+03	6.5000000000E+03	9.3827000000E-01	0.000E+00	0.0
	2212	1	0	0	0	0	0.0000000000E+00	0.0000000000E+00	6.2258272406E+03	6.2258272406E+03	9.3827000000E-01	0.000E+00	0.0
	2212	1	0	0	0	0	0.0000000000E+00	0.0000000000E+00	-5.5140453216E+03	5.5140453216E+03	9.3827000000E-01	0.000E+00	0.0
	51	2	1	2	0	0	-9.1273951756E+00	-1.3128063499E+02	-6.9373413100E+02	1.2569298382E+03	1.0398498254E+03	0.000E+00	0.0
	1000022	2	5	5	0	0	9.1273951756E+00	1.3128063499E+02	-6.1058143427E+02	1.0522097837E+03	8.4676905150E+02	0.000E+00	0.0
	14	1	6	6	0	0	8.2612127492E+01	6.2922994371E+01	-6.2467084051E+02	7.1177435034E+02	3.2500000000E+02	0.000E+00	0.0
	-14	1	6	6	0	0	-7.3484732317E+01	6.8357640620E+01	1.4089406237E+01	3.4043543335E+02	3.2500000000E+02	0.000E+00	0.0
	25	2	5	5	0	0	-9.1273951756E+00	-1.3128063499E+02	-1.0120048473E+02	2.0791765410E+02	1.2518106211E+02	0.000E+00	0.0
	-5	1	9	9	0	501	-5.9088343949E+01	-2.8824436461E+01	-5.0920108265E+01	8.3262298513E+01	4.1800000000E+00	0.000E+00	0.0
	5	1	9	9	501	0	4.9960948774E+01	-1.0245619853E+02	-5.0280376468E+01	1.2465535559E+02	4.1800000000E+00	0.000E+00	0.0
</event>
<event>
    11  -1  1.0000000E+00  1.0000000E+00  -1.0000000E+00  -1.0000000E+00
	2212	-1	0	0	0	0	0.0000000000E+00	0.0000000000E+00	6.5000000000E+03	6.5000000000E+03	9.3827000000E-01	0.000E+00	0.0
	2212	-1	0	0	0	0	0.0000000000E+00	0.0000000000E+00	-6.5000000000E+03	6.5000000000E+03	9.3827000000E-01	0.000E+00	0.0
	2212	1	0	0	0	0	0.0000000000E+00	0.0000000000E+00	5.0565090109E+03	5.0565090109E+03	9.3827000000E-01	0.000E+00	0.0
	2212	1	0	0	0	0	0.0000000000E+00	0.0000000000E+00	-6.3089931536E+03	6.3089931536E+03	9.3827000000E-01	0.000E+00	0.0
	51	2	1	2	0	0	1.6694355569E+02	5.5633133029E+01	1.2620211324E+03	1.6512205126E+03	1.0501745790E+03	0.000E+00	0.0
	1000022	2	5	5	0	0	-1.6694355569E+02	-5.5633133029E+01	1.0027969725E+03	1.3043780166E+03	8.1537417539E+02	0.000E+00	0.0
	14	1	6	6	0	0	7.2712927183E+01	1.0221700356E+02	2.2745939060E+02	4.1605079013E+02	3.2500000000E+02	0.000E+00	0.0
	-14	1	6	6	0	0	-2.3965648288E+02	-1.5785013659E+02	7.7533758188E+02	8.8832722646E+02	3.2500000000E+02	0.000E+00	0.0
	25	2	5	5	0	0	1.6694355569E+02	5.5633133029E+01	2.4968717030E+02	3.3011981891E+02	1.2518073153E+02	0.000E+00	0.0
	-5	1	9	9	0	501	4.3308272377E+01	7.6541936268E+01	7.9050902609E+01	1.1832494271E+02	4.1800000000E+00	0.000E+00	0.0
	5	1	9	9	501	0	1.2363528332E+02	-2.0908803239E+01	1.7063626769E+02	2.1179487620E+02	4.1800000000E+00	0.000E+00	0.0
</event>
<event>
    11  -1  1.0000000E+00  1.0000000E+00  -1.0000000E+00  -1.0000000E+00
	2212	-1	0	0	0	0	0.0000000000E+00	0.0000000000E+00	6.5000000000E+03	6.5000000000E+03	9.3827000000E-01	0.000E+00	0.0
	2212	-1	0	0	0	0	0.0000000000E+00	0.0000000000E+00	-6.5000000000E+03	6.5000000000E+03	9.3827000000E-01	0.000E+00	0.0
	2212	1	0	0	0	0	0.0000000000E+00	0.0000000000E+00	5.7600932046E+03	5.7600932046E+03	9.3827000000E-01	0.000E+00	0.0
	2212	1	0	0	0	0	0.0000000000E+00	0.0000000000E+00	-6.1263915822E+03	6.1263915822E+03	9.3827000000E-01	0.000E+00	0.0
	51	2	1	2	0	0	2.2726603532E+02	1.4930154112E+02	4.9296912493E+02	1.1927702997E+03	1.0515424997E+03	0.000E+00	0.0
	1000022	2	5	5	0	0	-2.2726603532E+02	-1.4930154112E+02	1.4280687589E+02	7.3993345377E+02	6.7317673104E+02	0.000E+00	0.0
	14	1	6	6	0	0	-5.3230771049E+01	-2.0105166373E+01	1.1048946876E+02	3.4795208781E+02	3.2500000000E+02	0.000E+00	0.0
	-14	1	6	6	0	0	-1.7403526428E+02	-1.2919637475E+02	3.2317407126E+01	3.9198136596E+02	3.2500000000E+02	0.000E+00	0.0
	25	2	5	5	0	0	2.2726603532E+02	1.4930154112E+02	2.2349150162E+02	3.7358175943E+02	1.2519616084E+02	0.000E+00	0.0
	-5	1	9	9	0	501	7.4550305201E+01	2.5510656268E+00	1.4698632491E+01	7.6143142426E+01	4.1800000000E+00	0.000E+00	0.0
	5	1	9	9	501	0	1.5271573012E+02	1.4675047550E+02	2.0879286913E+02	2.9743861701E+02	4.1800000000E+00	0.000E+00	0.0
</event>
<event>
    11  -1  1.0000000E+00  1.0000000E+00  -1.0000000E+00  -1.0000000E+00
	2212	-1	0	0	0	0	0.0000000000E+00	0.0000000000E+00	6.5000000000E+03	6.5000000000E+03	9.3827000000E-01	0.000E+00	0.0
	2212	-1	0	0	0	0	0.0000000000E+00	0.0000000000E+00	-6.5000000000E+03	6.5000000000E+03	9.3827000000E-01	0.000E+00	0.0
	2212	1	0	0	0	0	0.0000000000E+00	0.0000000000E+00	6.2233444901E+03	6.2233444901E+03	9.3827000000E-01	0.000E+00	0.0
	2212	1	0	0	0	0	0.0000000000E+00	0.0000000000E+00	-5.4745926113E+03	5.4745926113E+03	9.3827000000E-01	0.000E+00	0.0
	51	2	1	2	0	0	1.1393798461E+02	-1.4600231141E+01	-8.8153410940E+02	1.3874566058E+03	1.0652410131E+03	0.000E+00	0.0
	1000022	2	5	5	0	0	-1.1393798461E+02	1.4600231141E+01	-4.8433665988E+02	9.8776234644E+02	8.5316904647E+02	0.000E+00	0.0
	14	1	6	6	0	0	-4.2694267320E+01	-2.1494842705E+02	-5.1205528018E+01	3.9531333503E+02	3.2500000000E+02	0.000E+00	0.0
	-14	1	6	6	0	0	-7.1243717291E+01	2.2954865819E+02	-4.3313113186E+02	5.9244901141E+02	3.2500000000E+02	0.000E+00	0.0
	25	2	5	5	0	0	1.1393798461E+02	-1.4600231141E+01	-2.6441521886E+02	3.1430055214E+02	1.2519743617E+02	0.000E+00	0.0
	-5	1	9	9	0	501	4.9955115374E+00	-5.0272562686E+01	-5.0410933422E+01	7.1491400203E+01	4.1800000000E+00	0.000E+00	0.0
	5	1	9	9	501	0	1.0894247307E+02	3.5672331545E+01	-2.1400428544E+02	2.4280915193E+02	4.1800000000E+00	0.000E+00	0.0
</event>
<event>
    11  -1  1.0000000E+00  1.0000000E+00  -1.0000000E+00  -1.0000000E+00
	2212	-1	0	0	0	0	0.0000000000E+00	0.0000000000E+00	6.5000000000E+03	6.5000000000E+03	9.3827000000E-01	0.000E+00	0.0
	2212	-1	0	0	0	0	0.0000000000E+00	0.0000000000E+00	-6.5000000000E+03	6.5000000000E+03	9.3827000000E-01	0.000E+00	0.0
	2212	1	0	0	0	0	0.0000000000E+00	0.0000000000E+00	4.9448608164E+03	4.9448608164E+03	9.3827000000E-01	0.000E+00	0.0
	2212	1	0	0	0	0	0.0000000000E+00	0.0000000000E+00	-6.3235491518E+03	6.3235491518E+03	9.3827000000E-01	0.000E+00	0.0
	51	2	1	2	0	0	-1.3803086607E+02	-8.9601809476E+01	1.3605817118E+03	1.7250756825E+03	1.0476748120E+03	0.000E+00	0.0
	1000022	2	5	5	0	0	1.3803086607E+02	8.9601809476E+01	1.1404684512E+03	1.4161661919E+03	8.2327236733E+02	0.000E+00	0.0
	14	1	6	6	0	0	1.1723497706E+02	-2.3028096766E+01	9.7351252871E+02	1.0332598786E+03	3.2500000000E+02	0.000E+00	0.0
	-14	1	6	6	0	0	2.0795889001E+01	1.1262990624E+02	1.6695592248E+02	3.8290631338E+02	3.2500000000E+02	0.000E+00	0.0
	25	2	5	5	0	0	-1.3803086607E+02	-8.9601809476E+01	2.3821988423E+02	3.1542383978E+02	1.2514983505E+02	0.000E+00	0.0
	-5	1	9	9	0	501	-3.9127145315E+01	-4.2882087950E+01	5.7648591623E+00	5.8485151694E+01	4.1800000000E+00	0.000E+00	0.0
	5	1	9	9	501	0	-9.8903720750E+01	-4.6719721526E+01	2.3245502507E+02	2.5693868809E+02	4.1800000000E+00	0.000E+00	0.0
</event>
<event>
    11  -1  1.0000000E+00  1.0000000E+00  -1.0000000E+00  -1.0000000E+00
	2212	-1	0	0	0	0	0.0000000000E+00	0.0000000000E+00	6.5000000000E+03	6.5000000000E+03	9.3827000000E-01	0.000E+00	0.0
	2212	-1	0	0	0	0	0.0000000000E+00	0.0000000000E+00	-6.5000000000E+03	6.5000000000E+03	9.3827000000E-01	0.000E+00	0.0
	2212	1	0	0	0	0	0.0000000000E+00	0.0000000000E+00	5.9471256439E+03	5.9471256439E+03	9.3827000000E-01	0.000E+00	0.0
	2212	1	0	0	0	0	0.0000000000E+00	0.0000000000E+00	-6.0041173998E+03	6.0041173998E+03	9.3827000000E-01	0.000E+00	0.0
	51	2	1	2	0	0	5.6661128109E+01	-6.6511443668E+01	1.5321438073E+00	1.0508471326E+03	1.0472072828E+03	0.000E+00	0.0
	1000022	2	5	5	0	0	-5.6661128109E+01	6.6511443668E+01	1.0388653015E+02	8.8905743363E+02	8.7863328732E+02	0.000E+00	0.0
	14	1	6	6	0	0	-1.6758931899E+01	2.5452455956E+02	2.5147154236E+02	4.8365953917E+02	3.2500000000E+02	0.000E+00	0.0
	-14	1	6	6	0	0	-3.9902196210E+01	-1.8801311589E+02	-1.4758501221E+02	4.0539789447E+02	3.2500000000E+02	0.000E+00	0.0
	25	2	5	5	0	0	5.6661128109E+01	-6.6511443668E+01	-4.6894774184E+01	1.5969952265E+02	1.2518211578E+02	0.000E+00	0.0
	-5	1	9	9	0	501	-4.9239653680E+00	1.6118621131E+01	2.7503395868E+01	3.2526367248E+01	4.1800000000E+00	0.000E+00	0.0
	5	1	9	9	501	0	6.1585093477E+01	-8.2630064798E+01	-7.4398170051E+01	1.2717315540E+02	4.1800000000E+00	0.000E+00	0.0
</event>
<event>
    11  -1  1.0000000E+00  1.0000000E+00  -1.0000000E+00  -1.0000000E+00
	2212	-1	0	0	0	0	0.0000000000E+00	0.0000000000E+00	6.5000000000E+03	6.5000000000E+03	9.3827000000E-01	0.000E+00	0.0
	2212	-1	0	0	0	0	0.0000000000E+00	0.0000000000E+00	-6.5000000000E+03	6.5000000000E+03	9.3827000000E-01	0.000E+00	0.0
	2212	1	0	0	0	0	0.0000000000E+00	0.0000000000E+00	6.2609341495E+03	6.2609341495E+03	9.3827000000E-01	0.000E+00	0.0
	2212	1	0	0	0	0	0.0000000000E+00	0.0000000000E+00	-5.3538809770E+03	5.3538809770E+03	9.3827000000E-01	0.000E+00	0.0
	51	2	1	2	0	0	-1.0171384955E+02	-6.1731196805E+01	-8.2279929387E+02	1.3368421005E+03	1.0468962107E+03	0.000E+00	0.0
	1000022	2	5	5	0	0	1.0171384955E+02	6.1731196805E+01	-8.3781265115E+02	1.1991222911E+03	8.4959271582E+02	0.000E+00	0.0
	14	1	6	6	0	0	1.6397150919E+02	-2.1243511747E+02	-4.8957330918E+02	6.4600492260E+02	3.2500000000E+02	0.000E+00	0.0
	-14	1	6	6	0	0	-6.2257659639E+01	2.7416631427E+02	-3.4823934197E+02	5.5311736852E+02	3.2500000000E+02	0.000E+00	0.0
	25	2	5	5	0	0	-1.0171384955E+02	-6.1731196805E+01	-6.9240521434E+01	1.8606258238E+02	1.2517422620E+02	0.000E+00	0.0
	-5	1	9	9	0	501	-4.8482583957E+00	-6.3348529393E+01	-6.1923929491E+01	8.8817719118E+01	4.1800000000E+00	0.000E+00	0.0
	5	1	9	9	501	0	-9.6865591151E+01	1.6173325878E+00	-7.3165919429E+00	9.7244863264E+01	4.1800000000E+00	0.000E+00	0.0
</event>
<event>
    11  -1  1.0000000E+00  1.0000000E+00  -1.0000000E+00  -1.0000000E+00
	2212	-1	0	0	0	0	0.0000000000E+00	0.0000000000E+00	6.5000000000E+03	6.5000000000E+03	9.3827000000E-01	0.000E+00	0.0
	2212	-1	0	0	0	0	0.0000000000E+00	0.0000000000E+00	-6.5000000000E+03	6.5000000000E+03	9.3827000000E-01	0.000E+00	0.0
	2212	1	0	0	0	0	0.0000000000E+00	0.0000000000E+00	6.2721973336E+03	6.2721973336E+03	9.3827000000E-01	0.000E+00	0.0
	2212	1	0	0	0	0	0.0000000000E+00	0.0000000000E+00	-5.3188971555E+03	5.3188971555E+03	9.3827000000E-01	0.000E+00	0.0
	51	2	1	2	0	0	4.5084913391E+01	-1.0953386225E+02	-1.0248940771E+03	1.4631034464E+03	1.0374167481E+03	0.000E+00	0.0
	1000022	2	5	5	0	0	-4.5084913391E+01	1.0953386225E+02	-7.2463526428E+02	1.1225685038E+03	8.4913689307E+02	0.000E+00	0.0
	14	1	6	6	0	0	-2.3988511517E+02	3.8479948519E+01	-1.5420788568E+02	4.3408599024E+02	3.2500000000E+02	0.000E+00	0.0
	-14	1	6	6	0	0	1.9480020178E+02	7.1053913728E+01	-5.7042737860E+02	6.8848251359E+02	3.2500000000E+02	0.000E+00	0.0
	25	2	5	5	0	0	4.5084913391E+01	-1.0953386225E+02	-2.2866491378E+02	2.8633700707E+02	1.2518355497E+02	0.000E+00	0.0
	-5	1	9	9	0	501	4.8972377356E+01	1.2013748099E+00	-1.2588966028E+02	1.3514960604E+02	4.1800000000E+00	0.000E+00	0.0
	5	1	9	9	501	0	-3.8874639653E+00	-1.1073523706E+02	-1.0277525349E+02	1.5118740104E+02	4.1800000000E+00	0.000E+00	0.0
</event>
<event>
    11  -1  1.0000000E+00  1.0000000E+00  -1.0000000E+00  -1.0000000E+00
	2212	-1	0	0	0	0	0.0000000000E+00	0.0000000000E+00	6.5000000000E+03	6.5000000000E+03	9.3827000000E-01	0.000E+00	0.0
	2212	-1	0	0	0	0	0.0000000000E+00	0.0000000000E+00	-6.5000000000E+03	6.5000000000E+03	9.3827000000E-01	0.000E+00	0.0
	2212	1	0	0	0	0	0.0000000000E+00	0.0000000000E+00	6.2207512405E+03	6.2207512405E+03	9.3827000000E-01	0.000E+00	0.0
	2212	1	0	0	0	0	0.0000000000E+00	0.0000000000E+00	-5.5139550116E+03	5.5139550116E+03	9.3827000000E-01	0.000E+00	0.0
	51	2	1	2	0	0	3.5430690670E+01	1.0926479371E+02	-7.6457517215E+02	1.3035247148E+03	1.0494795659E+03	0.000E+00	0.0
	1000022	2	5	5	0	0	-3.5430690670E+01	-1.0926479371E+02	-5.3567782636E+02	1.0241645433E+03	8.6531390208E+02	0.000E+00	0.0
	14	1	6	6	0	0	2.5183157971E+02	-1.3153806070E+02	-3.3128231331E+02	5.4414554769E+02	3.2500000000E+02	0.000E+00	0.0
	-14	1	6	6	0	0	-2.8726227038E+02	2.2273266993E+01	-2.0439551305E+02	4.8001899563E+02	3.2500000000E+02	0.000E+00	0.0
	25	2	5	5	0	0	3.5430690670E+01	1.0926479371E+02	-1.7111840253E+02	2.4112920454E+02	1.2517051016E+02	0.000E+00	0.0
	-5	1	9	9	0	501	6.8240977792E+01	1.1562988485E+02	-1.2129709095E+02	1.8099049145E+02	4.1800000000E+00	0.000E+00	0.0
	5	1	9	9	501	0	-3.2810287122E+01	-6.3650911347E+00	-4.9821311573E+01	6.0138713097E+01	4.1800000000E+00	0.000E+00	0.0
</event>
<event>
    11  -1  1.0000000E+00  1.0000000E+00  -1.0000000E+00  -1.0000000E+00
	2212	-1	0	0	0	0	0.0000000000E+00	0.0000000000E+00	6.5000000000E+03	6.5000000000E+03	9.3827000000E-01	0.000E+00	0.0
	2212	-1	0	0	0	0	0.0000000000E+00	0.0000000000E+00	-6.5000000000E+03	6.5000000000E+03	9.3827000000E-01	0.000E+00	0.0
	2212	1	0	0	0	0	0.0000000000E+00	0.0000000000E+00	5.5685200302E+03	5.5685200302E+03	9.3827000000E-01	0.000E+00	0.0
	2212	1	0	0	0	0	0.0000000000E+00	0.0000000000E+00	-6.2043124644E+03	6.2043124644E+03	9.3827000000E-01	0.000E+00	0.0
	51	2	1	2	0	0	-1.3084218130E+02	-3.8060904516E+01	6.6263574972E+02	1.2487443744E+03	1.0496228213E+03	0.000E+00	0.0
	1000022	2	5	5	0	0	1.3084218130E+02	3.8060904516E+01	5.0174798233E+02	9.9867758740E+02	8.5266498518E+02	0.000E+00	0.0
	14	1	6	6	0	0	2.0412070235E+02	2.0018965713E+02	8.5152570565E+01	4.4115430432E+02	3.2500000000E+02	0.000E+00	0.0
	-14	1	6	6	0	0	-7.3278521046E+01	-1.6212875261E+02	4.1659541176E+02	5.5752328308E+02	3.2500000000E+02	0.000E+00	0.0
	25	2	5	5	0	0	-1.3084218130E+02	-3.8060904516E+01	1.3404445189E+02	2.2848991802E+02	1.2518553708E+02	0.000E+00	0.0
	-5	1	9	9	0	501	-1.0643748688E+02	-7.3442946024E+01	5.9656260778E+01	1.4247507426E+02	4.1800000000E+00	0.000E+00	0.0
	5	1	9	9	501	0	-2.4404694418E+01	3.5382041508E+01	7.4388191111E+01	8.6014843763E+01	4.1800000000E+00	0.000E+00	0.0
</event>
<event>
    11  -1  1.0000000E+00  1.0000000E+00  -1.0000000E+00  -1.0000000E+00
	2212	-1	0	0	0	0	0.0000000000E+00	0.0000000000E+00	6.5000000000E+03	6.5000000000E+03	9.3827000000E-01	0.000E+00	0.0
	2212	-1	0	0	0	0	0.0000000000E+00	0.0000000000E+00	-6.5000000000E+03	6.5000000000E+03	9.3827000000E-01	0.000E+00	0.0
	2212	1	0	0	0	0	0.0000000000E+00	0.0000000000E+00	6.3141949595E+03	6.3141949595E+03	9.3827000000E-01	0.000E+00	0.0
	2212	1	0	0	0	0	0.0000000000E+00	0.0000000000E+00	-4.9946523727E+03	4.9946523727E+03	9.3827000000E-01	0.000E+00	0.0
	51	2	1	2	0	0	9.6584745487E+01	-5.0839490432E+00	-1.5156342759E+03	1.8507583379E+03	1.0577356511E+03	0.000E+00	0.0
	1000022	2	5	5	0	0	-9.6584745487E+01	5.0839490432E+00	-8.9308278866E+02	1.2363025349E+03	8.4940722324E+02	0.000E+00	0.0
	14	1	6	6	0	0	-5.1110567421E+01	2.7434717618E+02	-4.0600832863E+02	5.9020879873E+02	3.2500000000E+02	0.000E+00	0.0
	-14	1	6	6	0	0	-4.5474178065E+01	-2.6926322713E+02	-4.8707446003E+02	6.4609373621E+02	3.2500000000E+02	0.000E+00	0.0
	25	2	5	5	0	0	9.6584745487E+01	-5.0839490432E+00	-4.2645979814E+02	4.5485013291E+02	1.2516478888E+02	0.000E+00	0.0
	-5	1	9	9	0	501	4.9554961398E+01	-1.5651099133E+01	-3.9199481993E+02	3.9544666183E+02	4.1800000000E+00	0.000E+00	0.0
	5	1	9	9	501	0	4.7029784089E+01	1.0567150090E+01	-3.4464978213E+01	5.9403471075E+01	4.1800000000E+00	0.000E+00	0.0
</event>
<event>
    11  -1  1.0000000E+00  1.0000000E+00  -1.0000000E+00  -1.0000000E+00
	2212	-1	0	0	0	0	0.0000000000E+00	0.0000000000E+00	6.5000000000E+03	6.5000000000E+03	9.3827000000E-01	0.000E+00	0.0
	2212	-1	0	0	0	0	0.0000000000E+00	0.0000000000E+00	-6.5000000000E+03	6.5000000000E+03	9.3827000000E-01	0.000E+00	0.0
	2212	1	0	0	0	0	0.0000000000E+00	0.0000000000E+00	5.1539189224E+03	5.1539189224E+03	9.3827000000E-01	0.000E+00	0.0
	2212	1	0	0	0	0	0.0000000000E+00	0.0000000000E+00	-6.2960804110E+03	6.2960804110E+03	9.3827000000E-01	0.000E+00	0.0
	51	2	1	2	0	0	1.4252441152E+02	-7.6398622448E+00	1.2809622527E+03	1.6610855092E+03	1.0478402552E+03	0.000E+00	0.0
	1000022	2	5	5	0	0	-1.4252441152E+02	7.6398622448E+00	7.9117068742E+02	1.1509576832E+03	8.2363885084E+02	0.000E+00	0.0
	14	1	6	6	0	0	1.6815331249E+01	1.2541183099E+02	1.0152097684E+02	3.6323875269E+02	3.2500000000E+02	0.000E+00	0.0
	-14	1	6	6	0	0	-1.5933974277E+02	-1.1777196875E+02	6.8964971058E+02	7.8771893055E+02	3.2500000000E+02	0.000E+00	0.0
	25	2	5	5	0	0	1.4252441152E+02	-7.6398622448E+00	3.5099080111E+02	3.9904298333E+02	1.2517661406E+02	0.000E+00	0.0
	-5	1	9	9	0	501	-2.1889477370E+01	4.8016317270E+00	6.5226214578E+01	6.9095125407E+01	4.1800000000E+00	0.000E+00	0.0
	5	1	9	9	501	0	1.6441388889E+02	-1.2441493972E+01	2.8576458653E+02	3.2994785792E+02	4.1800000000E+00	0.000E+00	0.0
</event>
<event>
    11  -1  1.0000000E+00  1.0000000E+00  -1.0000000E+00  -1.0000000E+00
	2212	-1	0	0	0	0	0.0000000000E+00	0.0000000000E+00	6.5000000000E+03	6.5000000000E+03	9.3827000000E-01	0.000E+00	0.0
	2212	-1	0	0	0	0	0.0000000000E+00	0.0000000000E+00	-6.5000000000E+03	6.5000000000E+03	9.3827000000E-01	0.000E+00	0.0
	2212	1	0	0	0	0	0.0000000000E+00	0.0000000000E+00	6.2041350424E+03	6.2041350424E+03	9.3827000000E-01	0.000E+00	0.0
	2212	1	0	0	0	0	0.0000000000E+00	0.0000000000E+00	-5.5632451593E+03	5.5632451593E+03	9.3827000000E-01	0.000E+00	0.0
	51	2	1	2	0	0	-9.8102770203E+01	-5.3062634996E+01	-7.4481151563E+02	1.2945252858E+03	1.0529063230E+03	0.000E+00	0.0
	1000022	2	5	5	0	0	9.8102770203E+01	5.3062634996E+01	-4.2843685061E+02	9.6197649839E+02	8.5404967756E+02	0.000E+00	0.0
	14	1	6	6	0	0	3.2095575793E+02	-7.0808480517E+00	-1.7276489935E+02	4.8840090848E+02	3.2500000000E+02	0.000E+00	0.0
	-14	1	6	6	0	0	-2.2285298773E+02	6.0143483047E+01	-2.5567195126E+02	4.7357558991E+02	3.2500000000E+02	0.000E+00	0.0
	25	2	5	5	0	0	-9.8102770203E+01	-5.3062634996E+01	-2.1245303243E+02	2.7064329990E+02	1.2518669273E+02	0.000E+00	0.0
	-5	1	9	9	0	501	8.3001159990E+00	-4.3926192696E+01	-1.7251843151E+01	4.8098865085E+01	4.1800000000E+00	0.000E+00	0.0
	5	1	9	9	501	0	-1.0640288620E+02	-9.1364423000E+00	-1.9520118928E+02	2.2254443481E+02	4.1800000000E+00	0.000E+00	0.0
</event>
<event>
    11  -1  1.0000000E+00  1.0000000E+00  -1.0000000E+00  -1.0000000E+00
	2212	-1	0	0	0	0	0.0000000000E+00	0.0000000000E+00	6.5000000000E+03	6.5000000000E+03	9.3827000000E-01	0.000E+00	0.0
	2212	-1	0	0	0	0	0.0000000000E+00	0.0000000000E+00	-6.5000000000E+03	6.5000000000E+03	9.3827000000E-01	0.000E+00	0.0
	2212	1	0	0	0	0	0.0000000000E+00	0.0000000000E+00	6.3122832129E+03	6.3122832129E+03	9.3827000000E-01	0.000E+00	0.0
	2212	1	0	0	0	0	0.0000000000E+00	0.0000000000E+00	-5.0080740998E+03	5.0080740998E+03	9.3827000000E-01	0.000E+00	0.0
	51	2	1	2	0	0	1.3494736223E+02	-3.7434809560E+01	-1.3916100855E+03	1.7539751800E+03	1.0584130320E+03	0.000E+00	0.0
	1000022	2	5	5	0	0	-1.3494736223E+02	3.7434809560E+01	-9.9083088293E+02	1.3142824409E+03	8.5204479956E+02	0.000E+00	0.0
	14	1	6	6	0	0	-1.1615482907E+02	2.8042090155E+02	-6.2871124459E+02	7.7008483650E+02	3.2500000000E+02	0.000E+00	0.0
	-14	1	6	6	0	0	-1.8792533161E+01	-2.4298609199E+02	-3.6211963835E+02	5.4419760444E+02	3.2500000000E+02	0.000E+00	0.0
	25	2	5	5	0	0	1.3494736223E+02	-3.7434809560E+01	-3.1337823019E+02	3.6536024636E+02	1.2518002606E+02	0.000E+00	0.0
	-5	1	9	9	0	501	-4.6846548127E+00	-1.9102639416E+01	-1.4239095301E+02	1.4380372986E+02	4.1800000000E+00	0.000E+00	0.0
	5	1	9	9	501	0	1.3963201704E+02	-1.8332170143E+01	-1.7098727718E+02	2.2155651650E+02	4.1800000000E+00	0.000E+00	0.0
</event>
<event>
    11  -1  1.0000000E+00  1.0000000E+00  -1.0000000E+00  -1.0000000E+00
	2212	-1	0	0	0	0	0.0000000000E+00	0.0000000000E+00	6.5000000000E+03	6.5000000000E+03	9.3827000000E-01	0.000E+00	0.0
	2212	-1	0	0	0	0	0.0000000000E+00	0.0000000000E+00	-6.5000000000E+03	6.5000000000E+03	9.3827000000E-01	0.000E+00	0.0
	2212	1	0	0	0	0	0.0000000000E+00	0.0000000000E+00	5.8957469276E+03	5.8957469276E+03	9.3827000000E-01	0.000E+00	0.0
	2212	1	0	0	0	0	0.0000000000E+00	0.0000000000E+00	-6.0449574999E+03	6.0449574999E+03	9.3827000000E-01	0.000E+00	0.0
	51	2	1	2	0	0	3.2988159758E+01	1.0544851753E+02	9.6652243097E+01	1.0589582521E+03	1.0487341489E+03	0.000E+00	0.0
	1000022	2	5	5	0	0	-3.2988159758E+01	-1.0544851753E+02	1.7785982685E+02	8.8989440575E+02	8.6491058893E+02	0.000E+00	0.0
	14	1	6	6	0	0	2.0392797561E+02	-4.5751961708E+01	2.7201342461E+02	4.7254223558E+02	3.2500000000E+02	0.000E+00	0.0
	-14	1	6	6	0	0	-2.3691613537E+02	-5.9696555819E+01	-9.4153597763E+01	4.1735217017E+02	3.2500000000E+02	0.000E+00	0.0
	25	2	5	5	0	0	3.2988159758E+01	1.0544851753E+02	-2.8649254608E+01	1.6940116675E+02	1.2517334770E+02	0.000E+00	0.0
	-5	1	9	9	0	501	-7.4922163319E+00	6.1736362851E+01	4.3300160109E+01	7.5893926431E+01	4.1800000000E+00	0.000E+00	0.0
	5	1	9	9	501	0	4.0480376090E+01	4.3712154676E+01	-7.1949414716E+01	9.3507240323E+01	4.1800000000E+00	0.000E+00	0.0
</event>
<event>
    11  -1  1.0000000E+00  1.0000000E+00  -1.0000000E+00  -1.0000000E+00
	2212	-1	0	0	0	0	0.0000000000E+00	0.0000000000E+00	6.5000000000E+03	6.5000000000E+03	9.3827000000E-01	0.000E+00	0.0
	2212	-1	0	0	0	0	0.0000000000E+00	0.0000000000E+00	-6.5000000000E+03	6.5000000000E+03	9.3827000000E-01	0.000E+00	0.0
	2212	1	0	0	0	0	0.0000000000E+00	0.0000000000E+00	5.9142698695E+03	5.9142698695E+03	9.3827000000E-01	0.000E+00	0.0
	2212	1	0	0	0	0	0.0000000000E+00	0.0000000000E+00	-6.0094210555E+03	6.0094210555E+03	9.3827000000E-01	0.000E+00	0.0
	51	2	1	2	0	0	1.3996209468E+02	-6.5173243419E+01	1.2171109502E+02	1.0899715624E+03	1.0720949010E+03	0.000E+00	0.0
	1000022	2	5	5	0	0	-1.3996209468E+02	6.5173243419E+01	5.1814792693E+01	8.7287825118E+02	8.5755158973E+02	0.000E+00	0.0
	14	1	6	6	0	0	-1.8181424026E+02	-2.1527015609E+02	-3.9697520669E+01	4.3197054438E+02	3.2500000000E+02	0.000E+00	0.0
	-14	1	6	6	0	0	4.1852145579E+01	2.8044339951E+02	9.1512313361E+01	4.4090770680E+02	3.2500000000E+02	0.000E+00	0.0
	25	2	5	5	0	0	1.3996209468E+02	-6.5173243419E+01	4.3336393297E+01	2.0343082380E+02	1.2517634554E+02	0.000E+00	0.0
	-5	1	9	9	0	501	1.2747418339E+02	-3.8290758770E+01	8.0579798584E+01	1.5564840500E+02	4.1800000000E+00	0.000E+00	0.0
	5	1	9	9	501	0	1.2487911290E+01	-2.6882484649E+01	-3.7243405288E+01	4.7782418804E+01	4.1800000000E+00	0.000E+00	0.0
</event>
<event>
    11  -1  1.0000000E+00  1.0000000E+00  -1.0000000E+00  -1.0000000E+00
	2212	-1	0	0	0	0	0.0000000000E+00	0.0000000000E+00	6.5000000000E+03	6.5000000000E+03	9.3827000000E-01	0.000E+00	0.0
	2212	-1	0	0	0	0	0.0000000000E+00	0.0000000000E+00	-6.5000000000E+03	6.5000000000E+03	9.3827000000E-01	0.000E+00	0.0
	2212	1	0	0	0	0	0.0000000000E+00	0.0000000000E+00	6.2853937884E+03	6.2853937884E+03	9.3827000000E-01	0.000E+00	0.0
	2212	1	0	0	0	0	0.0000000000E+00	0.0000000000E+00	-5.2176387449E+03	5.2176387449E+03	9.3827000000E-01	0.000E+00	0.0
	51	2	1	2	0	0	1.3267594565E+02	1.2057595383E+01	-1.0363901358E+03	1.4807645219E+03	1.0491952934E+03	0.000E+00	0.0
	1000022	2	5	5	0	0	-1.3267594565E+02	-1.2057595383E+01	-9.1982817715E+02	1.2618075598E+03	8.5342026590E+02	0.000E+00	0.0
	14	1	6	6	0	0	-3.2967603534E+01	-2.5256101471E+02	-6.3443851787E+02	7.5697500751E+02	3.2500000000E+02	0.000E+00	0.0
	-14	1	6	6	0	0	-9.9708342113E+01	2.4050341933E+02	-2.8538965928E+02	5.0483255226E+02	3.2500000000E+02	0.000E+00	0.0
	25	2	5	5	0	0	1.3267594565E+02	1.2057595383E+01	-1.4792686636E+02	2.3515990702E+02	1.2517800095E+02	0.000E+00	0.0
	-5	1	9	9	0	501	5.4323708192E+01	-3.3047117954E+01	-2.3784463544E+00	6.3767599013E+01	4.1800000000E+00	0.000E+00	0.0
	5	1	9	9	501	0	7.8352237455E+01	4.5104713337E+01	-1.4554842000E+02	1.7139230801E+02	4.1800000000E+00	0.000E+00	0.0
</event>
<event>
    11  -1  1.0000000E+00  1.0000000E+00  -1.0000000E+00  -1.0000000E+00
	2212	-1	0	0	0	0	0.0000000000E+00	0.0000000000E+00	6.5000000000E+03	6.5000000000E+03	9.3827000000E-01	0.000E+00	0.0
	2212	-1	0	0	0	0	0.0000000000E+00	0.0000000000E+00	-6.5000000000E+03	6.5000000000E+03	9.3827000000E-01	0.000E+00	0.0
	2212	1	0	0	0	0	0.0000000000E+00	0.0000000000E+00	5.0009776140E+03	5.0009776140E+03	9.3827000000E-01	0.000E+00	0.0
	2212	1	0	0	0	0	0.0000000000E+00	0.0000000000E+00	-6.3119991804E+03	6.3119991804E+03	9.3827000000E-01	0.000E+00	0.0
	51	2	1	2	0	0	-5.3057669656E+01	3.7924814481E+01	1.5232501393E+03	1.8579058490E+03	1.0617296026E+03	0.000E+00	0.0
	1000022	2	5	5	0	0	5.3057669656E+01	-3.7924814481E+01	8.7666602113E+02	1.2303074635E+03	8.6073209208E+02	0.000E+00	0.0
	14	1	6	6	0	0	1.3587621102E+02	-2.7413680247E+02	5.3251011721E+02	6.9484196485E+02	3.2500000000E+02	0.000E+00	0.0
	-14	1	6	6	0	0	-8.2818541363E+01	2.3621198799E+02	3.4415590392E+02	5.3546549867E+02	3.2500000000E+02	0.000E+00	0.0
	25	2	5	5	0	0	-5.3057669656E+01	3.7924814481E+01	4.3435554526E+02	4.5671574216E+02	1.2518435037E+02	0.000E+00	0.0
	-5	1	9	9	0	501	-6.3151811282E+01	7.5963811171E+01	2.6630340951E+02	2.8406624261E+02	4.1800000000E+00	0.000E+00	0.0
	5	1	9	9	501	0	1.0094141627E+01	-3.8038996690E+01	1.6805213575E+02	1.7264949955E+02	4.1800000000E+00	0.000E+00	0.0
</event>
<event>
    11  -1  1.0000000E+00  1.0000000E+00  -1.0000000E+00  -1.0000000E+00
	2212	-1	0	0	0	0	0.0000000000E+00	0.0000000000E+00	6.5000000000E+03	6.5000000000E+03	9.3827000000E-01	0.000E+00	0.0
	2212	-1	0	0	0	0	0.0000000000E+00	0.0000000000E+00	-6.5000000000E+03	6.5000000000E+03	9.3827000000E-01	0.000E+00	0.0
	2212	1	0	0	0	0	0.0000000000E+00	0.0000000000E+00	5.2128397072E+03	5.2128397072E+03	9.3827000000E-01	0.000E+00	0.0
	2212	1	0	0	0	0	0.0000000000E+00	0.0000000000E+00	-6.2802827204E+03	6.2802827204E+03	9.3827000000E-01	0.000E+00	0.0
	51	2	1	2	0	0	1.0398128987E+02	9.1448956053E+01	1.0527682467E+03	1.5029109865E+03	1.0636002218E+03	0.000E+00	0.0
	1000022	2	5	5	0	0	-1.0398128987E+02	-9.1448956053E+01	9.0315879406E+02	1.2582130778E+03	8.6500249804E+02	0.000E+00	0.0
	14	1	6	6	0	0	6.0902507363E+00	1.2959897612E+02	1.1107290620E+02	3.6714462581E+02	3.2500000000E+02	0.000E+00	0.0
	-14	1	6	6	0	0	-1.1007154061E+02	-2.2104793218E+02	7.9208588785E+02	8.9106845198E+02	3.2500000000E+02	0.000E+00	0.0
	25	2	5	5	0	0	1.0398128987E+02	9.1448956053E+01	1.6428421914E+02	2.4866449462E+02	1.2517869636E+02	0.000E+00	0.0
	-5	1	9	9	0	501	1.1852327540E+02	8.9869210483E+01	9.2327835518E+01	1.7511751316E+02	4.1800000000E+00	0.000E+00	0.0
	5	1	9	9	501	0	-1.4541985525E+01	1.5797455699E+00	7.1956383617E+01	7.3546981463E+01	4.1800000000E+00	0.000E+00	0.0
</event>
<event>
    11  -1  1.0000000E+00  1.0000000E+00  -1.0000000E+00  -1.0000000E+00
	2212	-1	0	0	0	0	0.0000000000E+00	0.0000000000E+00	6.5000000000E+03	6.5000000000E+03	9.3827000000E-01	0.000E+00	0.0
	2212	-1	0	0	0	0	0.0000000000E+00	0.0000000000E+00	-6.5000000000E+03	6.5000000000E+03	9.3827000000E-01	0.000E+00	0.0
	2212	1	0	0	0	0	0.0000000000E+00	0.0000000000E+00	5.9172952857E+03	5.9172952857E+03	9.3827000000E-01	0.000E+00	0.0
	2212	1	0	0	0	0	0.0000000000E+00	0.0000000000E+00	-6.0316321340E+03	6.0316321340E+03	9.3827000000E-01	0.000E+00	0.0
	51	2	1	2	0	0	-2.4938742074E+01	-1.1327131491E+02	3.2351231399E+01	1.0517507252E+03	1.0448352282E+03	0.000E+00	0.0
	1000022	2	5	5	0	0	2.4938742074E+01	1.1327131491E+02	1.7663302822E+02	8.6939393055E+02	8.4332333549E+02	0.000E+00	0.0
	14	1	6	6	0	0	8.2846130498E+01	2.5714541662E+02	2.6469567454E+02	4.9867428924E+02	3.2500000000E+02	0.000E+00	0.0
	-14	1	6	6	0	0	-5.7907388424E+01	-1.4387410171E+02	-8.8062646329E+01	3.7071964131E+02	3.2500000000E+02	0.000E+00	0.0
	25	2	5	5	0	0	-2.4938742074E+01	-1.1327131491E+02	-6.2296179957E+01	1.8167864970E+02	1.2519579099E+02	0.000E+00	0.0
	-5	1	9	9	0	501	-6.4864886664E+01	-9.0050415346E+01	-7.4489288607E+01	1.3372605334E+02	4.1800000000E+00	0.000E+00	0.0
	5	1	9	9	501	0	3.9926144590E+01	-2.3220899564E+01	1.2193108650E+01	4.7952596352E+01	4.1800000000E+00	0.000E+00	0.0
</event>
<event>
    11  -1  1.0000000E+00  1.0000000E+00  -1.0000000E+00  -1.0000000E+00
	2212	-1	0	0	0	0	0.0000000000E+00	0.0000000000E+00	6.5000000000E+03	6.5000000000E+03	9.3827000000E-01	0.000E+00	0.0
	2212	-1	0	0	0	0	0.0000000000E+00	0.0000000000E+00	-6.5000000000E+03	6.5000000000E+03	9.3827000000E-01	0.000E+00	0.0
	2212	1	0	0	0	0	0.0000000000E+00	0.0000000000E+00	5.0126302424E+03	5.0126302424E+03	9.3827000000E-01	0.000E+00	0.0
	2212	1	0	0	0	0	0.0000000000E+00	0.0000000000E+00	-6.3162027779E+03	6.3162027779E+03	9.3827000000E-01	0.000E+00	0.0
	51	2	1	2	0	0	1.9188281878E+01	-4.8458021162E+01	1.5162685778E+03	1.8426297753E+03	1.0457044126E+03	0.000E+00	0.0
	1000022	2	5	5	0	0	-1.9188281878E+01	4.8458021162E+01	8.7064602559E+02	1.2173709227E+03	8.4926503024E+02	0.000E+00	0.0
	14	1	6	6	0	0	-6.5401420437E+01	1.4771747105E+02	1.0404526961E+02	3.7755557892E+02	3.2500000000E+02	0.000E+00	0.0
	-14	1	6	6	0	0	4.6213138559E+01	-9.9259449886E+01	7.6660075599E+02	8.3981534378E+02	3.2500000000E+02	0.000E+00	0.0
	25	2	5	5	0	0	1.9188281878E+01	-4.8458021162E+01	4.3292650992E+02	4.5379605696E+02	1.2565479832E+02	0.000E+00	0.0
	-5	1	9	9	0	501	-5.1440866656E+00	-2.2517247670E+01	4.1128303294E+02	4.1195229537E+02	4.1800000000E+00	0.000E+00	0.0
	5	1	9	9	501	0	2.4332368544E+01	-2.5940773491E+01	2.1643476978E+01	4.1843761590E+01	4.1800000000E+00	0.000E+00	0.0
</event>
<event>
    11  -1  1.0000000E+00  1.0000000E+00  -1.0000000E+00  -1.0000000E+00
	2212	-1	0	0	0	0	0.0000000000E+00	0.0000000000E+00	6.5000000000E+03	6.5000000000E+03	9.3827000000E-01	0.000E+00	0.0
	2212	-1	0	0	0	0	0.0000000000E+00	0.0000000000E+00	-6.5000000000E+03	6.5000000000E+03	9.3827000000E-01	0.000E+00	0.0
	2212	1	0	0	0	0	0.0000000000E+00	0.0000000000E+00	5.8284155717E+03	5.8284155717E+03	9.3827000000E-01	0.000E+00	0.0
	2212	1	0	0	0	0	0.0000000000E+00	0.0000000000E+00	-6.0891418447E+03	6.0891418447E+03	9.3827000000E-01	0.000E+00	0.0
	51	2	1	2	0	0	-1.1775391713E+02	-7.9466780230E+01	2.6417347535E+02	1.0925531276E+03	1.0505730614E+03	0.000E+00	0.0
	1000022	2	5	5	0	0	1.1775391713E+02	7.9466780230E+01	2.1266017573E+02	8.8709028605E+02	8.4942561246E+02	0.000E+00	0.0
	14	1	6	6	0	0	1.1298433640E+02	-2.2843500093E+02	8.6944490151E+01	4.2205728793E+02	3.2500000000E+02	0.000E+00	0.0
	-14	1	6	6	0	0	4.7695807224E+00	3.0790178116E+02	1.2571568558E+02	4.6503299812E+02	3.2500000000E+02	0.000E+00	0.0
	25	2	5	5	0	0	-1.1775391713E+02	-7.9466780230E+01	4.8066097330E+01	1.9535229756E+02	1.2518472866E+02	0.000E+00	0.0
	-5	1	9	9	0	501	-9.3568138091E+00	4.7409419422E-01	-3.5392271448E+01	3.6849152069E+01	4.1800000000E+00	0.000E+00	0.0
	5	1	9	9	501	0	-1.0839710332E+02	-7.9940874424E+01	8.3458368778E+01	1.5850314549E+02	4.1800000000E+00	0.000E+00	0.0
</event>
<event>
    11  -1  1.0000000E+00  1.0000000E+00  -1.0000000E+00  -1.0000000E+00
	2212	-1	0	0	0	0	0.0000000000E+00	0.0000000000E+00	6.5000000000E+03	6.5000000000E+03	9.3827000000E-01	0.000E+00	0.0
	2212	-1	0	0	0	0	0.0000000000E+00	0.0000000000E+00	-6.5000000000E+03	6.5000000000E+03	9.3827000000E-01	0.000E+00	0.0
	2212	1	0	0	0	0	0.0000000000E+00	0.0000000000E+00	4.9081541532E+03	4.9081541532E+03	9.3827000000E-01	0.000E+00	0.0
	2212	1	0	0	0	0	0.0000000000E+00	0.0000000000E+00	-6.3243994945E+03	6.3243994945E+03	9.3827000000E-01	0.000E+00	0.0
	51	2	1	2	0	0	-9.4542686831E+01	9.9383462948E+01	1.4201878654E+03	1.7759123591E+03	1.0574099213E+03	0.000E+00	0.0
	1000022	2	5	5	0	0	9.4542686831E+01	-9.9383462948E+01	1.1753814939E+03	1.4633071904E+03	8.6077342257E+02	0.000E+00	0.0
	14	1	6	6	0	0	1.5682488829E+02	-1.8027847836E+02	2.4366350236E+02	4.7126561272E+02	3.2500000000E+02	0.000E+00	0.0
	-14	1	6	6	0	0	-6.2282201460E+01	8.0895015413E+01	9.3171799156E+02	9.9204157773E+02	3.2500000000E+02	0.000E+00	0.0
	25	2	5	5	0	0	-9.4542686831E+01	9.9383462948E+01	2.4086384738E+02	3.0413916190E+02	1.2517924942E+02	0.000E+00	0.0
	-5	1	9	9	0	501	1.5611842036E+01	-1.6604836959E+01	1.6025112099E+01	2.8173158147E+01	4.1800000000E+00	0.000E+00	0.0
	5	1	9	9	501	0	-1.1015452887E+02	1.1598829991E+02	2.2483873528E+02	2.7596600375E+02	4.1800000000E+00	0.000E+00	0.0
</event>
<event>
    11  -1  1.0000000E+00  1.0000000E+00  -1.0000000E+00  -1.0000000E+00
	2212	-1	0	0	0	0	0.0000000000E+00	0.0000000000E+00	6.5000000000E+03	6.5000000000E+03	9.3827000000E-01	0.000E+00	0.0
	2212	-1	0	0	0	0	0.0000000000E+00	0.0000000000E+00	-6.5000000000E+03	6.5000000000E+03	9.3827000000E-01	0.000E+00	0.0
	2212	1	0	0	0	0	0.0000000000E+00	0.0000000000E+00	5.4664426168E+03	5.4664426168E+03	9.3827000000E-01	0.000E+00	0.0
	2212	1	0	0	0	0	0.0000000000E+00	0.0000000000E+00	-6.2340425571E+03	6.2340425571E+03	9.3827000000E-01	0.000E+00	0.0
	51	2	1	2	0	0	-1.0643062050E+01	1.3498744847E+02	8.2919314777E+02	1.3436611467E+03	1.0485843384E+03	0.000E+00	0.0
	1000022	2	5	5	0	0	1.0643062050E+01	-1.3498744847E+02	5.7427111911E+02	1.0323455814E+03	8.4712171214E+02	0.000E+00	0.0
	14	1	6	6	0	0	2.2504377671E+02	-1.9243535263E+02	4.2479203112E+02	6.1135042004E+02	3.2500000000E+02	0.000E+00	0.0
	-14	1	6	6	0	0	-2.1440071466E+02	5.7447904167E+01	1.4947908798E+02	4.2099516135E+02	3.2500000000E+02	0.000E+00	0.0
	25	2	5	5	0	0	-1.0643062050E+01	1.3498744847E+02	1.9332882119E+02	2.6716924463E+02	1.2517382377E+02	0.000E+00	0.0
	-5	1	9	9	0	501	-5.8177749967E+01	7.8083149833E+01	5.9709643397E+01	1.1429935605E+02	4.1800000000E+00	0.000E+00	0.0
	5	1	9	9	501	0	4.7534687917E+01	5.6904298633E+01	1.3361917780E+02	1.5286988858E+02	4.1800000000E+00	0.000E+00	0.0
</event>
<event>
    11  -1  1.0000000E+00  1.0000000E+00  -1.0000000E+00  -1.0000000E+00
	2212	-1	0	0	0	0	0.0000000000E+00	0.0000000000E+00	6.5000000000E+03	6.5000000000E+03	9.3827000000E-01	0.000E+00	0.0
	2212	-1	0	0	0	0	0.0000000000E+00	0.0000000000E+00	-6.5000000000E+03	6.5000000000E+03	9.3827000000E-01	0.000E+00	0.0
	2212	1	0	0	0	0	0.0000000000E+00	0.0000000000E+00	6.0665815599E+03	6.0665815599E+03	9.3827000000E-01	0.000E+00	0.0
	2212	1	0	0	0	0	0.0000000000E+00	0.0000000000E+00	-5.8683707841E+03	5.8683707841E+03	9.3827000000E-01	0.000E+00	0.0
	51	2	1	2	0	0	-8.2688755117E+01	1.0841035871E+02	-1.6459906796E+02	1.0680459200E+03	1.0464411106E+03	0.000E+00	0.0
	1000022	2	5	5	0	0	8.2688755117E+01	-1.0841035871E+02	-1.9793428686E+02	8.7995765411E+02	8.4649704961E+02	0.000E+00	0.0
	14	1	6	6	0	0	1.9182181020E+02	8.4587216664E+01	8.4221405977E+01	3.9581416007E+02	3.2500000000E+02	0.000E+00	0.0
	-14	1	6	6	0	0	-1.0913305508E+02	-1.9299757537E+02	-2.8215569284E+02	4.8414349403E+02	3.2500000000E+02	0.000E+00	0.0
	25	2	5	5	0	0	-8.2688755117E+01	1.0841035871E+02	-2.7648898772E-01	1.8509000188E+02	1.2517186686E+02	0.000E+00	0.0
	-5	1	9	9	0	501	-1.0978299403E+02	5.2005263776E+01	8.0966004286E+00	1.2181904850E+02	4.1800000000E+00	0.000E+00	0.0
	5	1	9	9	501	0	2.7094238909E+01	5.6405094931E+01	-8.3730894163E+00	6.3270953388E+01	4.1800000000E+00	0.000E+00	0.0
</event>
<event>
    11  -1  1.0000000E+00  1.0000000E+00  -1.0000000E+00  -1.0000000E+00
	2212	-1	0	0	0	0	0.0000000000E+00	0.0000000000E+00	6.5000000000E+03	6.5000000000E+03	9.3827000000E-01	0.000E+00	0.0
	2212	-1	0	0	0	0	0.0000000000E+00	0.0000000000E+00	-6.5000000000E+03	6.5000000000E+03	9.3827000000E-01	0.000E+00	0.0
	2212	1	0	0	0	0	0.0000000000E+00	0.0000000000E+00	6.3144724388E+03	6.3144724388E+03	9.3827000000E-01	0.000E+00	0.0
	2212	1	0	0	0	0	0.0000000000E+00	0.0000000000E+00	-5.0179278274E+03	5.0179278274E+03	9.3827000000E-01	0.000E+00	0.0
	51	2	1	2	0	0	-1.1890034316E+02	1.6430998306E+01	-1.2415583697E+03	1.6296427208E+03	1.0487425531E+03	0.000E+00	0.0
	1000022	2	5	5	0	0	1.1890034316E+02	-1.6430998306E+01	-1.1407815809E+03	1.4344936247E+03	8.6138381377E+02	0.000E+00	0.0
	14	1	6	6	0	0	2.1870188535E+01	-2.7940420774E+02	-6.8600608877E+02	8.0918129630E+02	3.2500000000E+02	0.000E+00	0.0
	-14	1	6	6	0	0	9.7030154625E+01	2.6297320943E+02	-4.5477549210E+02	6.2531232836E+02	3.2500000000E+02	0.000E+00	0.0
	25	2	5	5	0	0	-1.1890034316E+02	1.6430998306E+01	-1.5576303058E+02	2.3310610916E+02	1.2517614438E+02	0.000E+00	0.0
	-5	1	9	9	0	501	-6.4441529612E+01	4.4594973395E+01	-1.5531861061E+01	8.0000834364E+01	4.1800000000E+00	0.000E+00	0.0
	5	1	9	9	501	0	-5.4458813548E+01	-2.8163975089E+01	-1.4023116951E+02	1.5310527479E+02	4.1800000000E+00	0.000E+00	0.0
</event>
<event>
    11  -1  1.0000000E+00  1.0000000E+00  -1.0000000E+00  -1.0000000E+00
	2212	-1	0	0	0	0	0.0000000000E+00	0.0000000000E+00	6.5000000000E+03	6.5000000000E+03	9.3827000000E-01	0.000E+00	0.0
	2212	-1	0	0	0	0	0.0000000000E+00	0.0000000000E+00	-6.5000000000E+03	6.5000000000E+03	9.3827000000E-01	0.000E+00	0.0
	2212	1	0	0	0	0	0.0000000000E+00	0.0000000000E+00	6.1000962485E+03	6.1000962485E+03	9.3827000000E-01	0.000E+00	0.0
	2212	1	0	0	0	0	0.0000000000E+00	0.0000000000E+00	-5.7989455093E+03	5.7989455093E+03	9.3827000000E-01	0.000E+00	0.0
	51	2	1	2	0	0	-1.3466989479E+02	-4.3723403528E+01	-2.7249231472E+02	1.1025956020E+03	1.0589699162E+03	0.000E+00	0.0
	1000022	2	5	5	0	0	1.3466989479E+02	4.3723403528E+01	-2.7818249505E+02	9.1058215815E+02	8.5541022300E+02	0.000E+00	0.0
	14	1	6	6	0	0	5.2741801984E+01	-2.5599851294E+02	-1.4683304175E+02	4.4215594359E+02	3.2500000000E+02	0.000E+00	0.0
	-14	1	6	6	0	0	8.1928092809E+01	2.9972191647E+02	-1.3134945330E+02	4.6842621456E+02	3.2500000000E+02	0.000E+00	0.0
	25	2	5	5	0	0	-1.3466989479E+02	-4.3723403528E+01	-2.2968244143E+01	1.9037608407E+02	1.2517106921E+02	0.000E+00	0.0
	-5	1	9	9	0	501	-9.5102777511E+01	-1.9806407309E+01	4.5740614991E+01	1.0745468031E+02	4.1800000000E+00	0.000E+00	0.0
	5	1	9	9	501	0	-3.9567117281E+01	-2.3916996219E+01	-6.8708859134E+01	8.2921403760E+01	4.1800000000E+00	0.000E+00	0.0
</event>
<event>
    11  -1  1.0000000E+00  1.0000000E+00  -1.0000000E+00  -1.0000000E+00
	2212	-1	0	0	0	0	0.0000000000E+00	0.0000000000E+00	6.5000000000E+03	6.5000000000E+03	9.3827000000E-01	0.000E+00	0.0
	2212	-1	0	0	0	0	0.0000000000E+00	0.0000000000E+00	-6.5000000000E+03	6.5000000000E+03	9.3827000000E-01	0.000E+00	0.0
	2212	1	0	0	0	0	0.0000000000E+00	0.0000000000E+00	5.5442839003E+03	5.5442839003E+03	9.3827000000E-01	0.000E+00	0.0
	2212	1	0	0	0	0	0.0000000000E+00	0.0000000000E+00	-6.2196421362E+03	6.2196421362E+03	9.3827000000E-01	0.000E+00	0.0
	51	2	1	2	0	0	3.6571992961E+01	-1.1222462816E+01	8.2653650067E+02	1.3252909634E+03	1.0352632981E+03	0.000E+00	0.0
	1000022	2	5	5	0	0	-3.6571992961E+01	1.1222462816E+01	4.1247111098E+02	9.4240189651E+02	8.4647827073E+02	0.000E+00	0.0
	14	1	6	6	0	0	-9.9914792814E+01	1.0296670157E+02	4.7501152856E+02	5.9316613164E+02	3.2500000000E+02	0.000E+00	0.0
	-14	1	6	6	0	0	6.3342799853E+01	-9.1744238751E+01	-6.2540417578E+01	3.4923576488E+02	3.2500000000E+02	0.000E+00	0.0
	25	2	5	5	0	0	3.6571992961E+01	-1.1222462816E+01	2.6288712485E+02	2.9367206696E+02	1.2518062213E+02	0.000E+00	0.0
	-5	1	9	9	0	501	2.7032106894E-02	3.8560670914E+01	2.0594742918E+02	2.0956798911E+02	4.1800000000E+00	0.000E+00	0.0
	5	1	9	9	501	0	3.6544960854E+01	-4.9783133730E+01	5.6939695669E+01	8.4104077849E+01	4.1800000000E+00	0.000E+00	0.0
</event>
<event>
    11  -1  1.0000000E+00  1.0000000E+00  -1.0000000E+00  -1.0000000E+00
	2212	-1	0	0	0	0	0.0000000000E+00	0.0000000000E+00	6.5000000000E+03	6.5000000000E+03	9.3827000000E-01	0.000E+00	0.0
	2212	-1	0	0	0	0	0.0000000000E+00	0.0000000000E+00	-6.5000000000E+03	6.5000000000E+03	9.3827000000E-01	0.000E+00	0.0
	2212	1	0	0	0	0	0.0000000000E+00	0.0000000000E+00	5.4038382576E+03	5.4038382576E+03	9.3827000000E-01	0.000E+00	0.0
	2212	1	0	0	0	0	0.0000000000E+00	0.0000000000E+00	-6.2355186747E+03	6.2355186747E+03	9.3827000000E-01	0.000E+00	0.0
	51	2	1	2	0	0	-1.3404891664E+00	-8.4944369613E+01	1.0416385177E+03	1.5006283304E+03	1.0768738281E+03	0.000E+00	0.0
	1000022	2	5	5	0	0	1.3404891664E+00	8.4944369613E+01	4.6460976007E+02	9.6361903596E+02	8.3992980330E+02	0.000E+00	0.0
	14	1	6	6	0	0	-1.6033103312E+02	-1.3267607868E+02	8.5175210486E+01	3.9520728551E+02	3.2500000000E+02	0.000E+00	0.0
	-14	1	6	6	0	0	1.6167152229E+02	2.1762044830E+02	3.7943454958E+02	5.6841175045E+02	3.2500000000E+02	0.000E+00	0.0
	25	2	5	5	0	0	-1.3404891664E+00	-8.4944369613E+01	3.6707065699E+02	3.9702403174E+02	1.2517935817E+02	0.000E+00	0.0
	-5	1	9	9	0	501	-1.6318862808E+01	-8.7479233918E+01	1.2001104026E+02	1.4946251649E+02	4.1800000000E+00	0.000E+00	0.0
	5	1	9	9	501	0	1.4978373641E+01	2.5348643052E+00	2.4705961672E+02	2.4756151524E+02	4.1800000000E+00	0.000E+00	0.0
</event>
<event>
    11  -1  1.0000000E+00  1.0000000E+00  -1.0000000E+00  -1.0000000E+00
	2212	-1	0	0	0	0	0.0000000000E+00	0.0000000000E+00	6.5000000000E+03	6.5000000000E+03	9.3827000000E-01	0.000E+00	0.0
	2212	-1	0	0	0	0	0.0000000000E+00	0.0000000000E+00	-6.5000000000E+03	6.5000000000E+03	9.3827000000E-01	0.000E+00	0.0
	2212	1	0	0	0	0	0.0000000000E+00	0.0000000000E+00	6.0974572781E+03	6.0974572781E+03	9.3827000000E-01	0.000E+00	0.0
	2212	1	0	0	0	0	0.0000000000E+00	0.0000000000E+00	-5.8418420437E+03	5.8418420437E+03	9.3827000000E-01	0.000E+00	0.0
	51	2	1	2	0	0	-1.1461172981E+01	1.0542060309E+02	-3.0125777572E+02	1.0778440936E+03	1.0294400325E+03	0.000E+00	0.0
	1000022	2	5	5	0	0	1.1461172981E+01	-1.0542060309E+02	-1.6944367685E+02	8.7537810449E+02	8.5225043512E+02	0.000E+00	0.0
	14	1	6	6	0	0	2.2269723458E+01	-1.4194174134E+02	1.7856895182E+02	3.9768740120E+02	3.2500000000E+02	0.000E+00	0.0
	-14	1	6	6	0	0	-1.0808550477E+01	3.6521138246E+01	-3.4801262867E+02	4.7769070329E+02	3.2500000000E+02	0.000E+00	0.0
	25	2	5	5	0	0	-1.1461172981E+01	1.0542060309E+02	-8.6171557530E+01	1.8532257365E+02	1.2519607396E+02	0.000E+00	0.0
	-5	1	9	9	0	501	-2.5472012657E-01	5.7554518703E+01	2.5612025887E+01	6.3135059797E+01	4.1800000000E+00	0.000E+00	0.0
	5	1	9	9	501	0	-1.1206452855E+01	4.7866084391E+01	-1.1178358342E+02	1.2218751385E+02	4.1800000000E+00	0.000E+00	0.0
</event>
<event>
    11  -1  1.0000000E+00  1.0000000E+00  -1.0000000E+00  -1.0000000E+00
	2212	-1	0	0	0	0	0.0000000000E+00	0.0000000000E+00	6.5000000000E+03	6.5000000000E+03	9.3827000000E-01	0.000E+00	0.0
	2212	-1	0	0	0	0	0.0000000000E+00	0.0000000000E+00	-6.5000000000E+03	6.5000000000E+03	9.3827000000E-01	0.000E+00	0.0
	2212	1	0	0	0	0	0.0000000000E+00	0.0000000000E+00	4.9773072706E+03	4.9773072706E+03	9.3827000000E-01	0.000E+00	0.0
	2212	1	0	0	0	0	0.0000000000E+00	0.0000000000E+00	-6.3184437858E+03	6.3184437858E+03	9.3827000000E-01	0.000E+00	0.0
	51	2	1	2	0	0	6.3356773407E+01	-1.0396536587E+02	1.4700225723E+03	1.8115205079E+03	1.0515784847E+03	0.000E+00	0.0
	1000022	2	5	5	0	0	-6.3356773407E+01	1.0396536587E+02	9.8328080485E+02	1.3060142409E+03	8.5088728871E+02	0.000E+00	0.0
	14	1	6	6	0	0	-2.3644983215E+02	1.9069702488E+02	7.1554853660E+02	8.4256073173E+02	3.2500000000E+02	0.000E+00	0.0
	-14	1	6	6	0	0	1.7309305874E+02	-8.6731659013E+01	2.6773226825E+02	4.6345350913E+02	3.2500000000E+02	0.000E+00	0.0
	25	2	5	5	0	0	6.3356773407E+01	-1.0396536587E+02	3.5785571029E+02	3.9823470273E+02	1.2532873189E+02	0.000E+00	0.0
	-5	1	9	9	0	501	8.7284367639E+01	-2.3242385284E+01	1.8710098065E+02	2.0780524216E+02	4.1800000000E+00	0.000E+00	0.0
	5	1	9	9	501	0	-2.3927594232E+01	-8.0722980587E+01	1.7075472964E+02	1.9042946057E+02	4.1800000000E+00	0.000E+00	0.0
</event>
<event>
    11  -1  1.0000000E+00  1.0000000E+00  -1.0000000E+00  -1.0000000E+00
	2212	-1	0	0	0	0	0.0000000000E+00	0.0000000000E+00	6.5000000000E+03	6.5000000000E+03	9.3827000000E-01	0.000E+00	0.0
	2212	-1	0	0	0	0	0.0000000000E+00	0.0000000000E+00	-6.5000000000E+03	6.5000000000E+03	9.3827000000E-01	0.000E+00	0.0
	2212	1	0	0	0	0	0.0000000000E+00	0.0000000000E+00	5.8097749266E+03	5.8097749266E+03	9.3827000000E-01	0.000E+00	0.0
	2212	1	0	0	0	0	0.0000000000E+00	0.0000000000E+00	-6.0935014995E+03	6.0935014995E+03	9.3827000000E-01	0.000E+00	0.0
	51	2	1	2	0	0	7.5593371113E+01	-1.3321600112E+02	2.0374422124E+02	1.0896212176E+03	1.0593874784E+03	0.000E+00	0.0
	1000022	2	5	5	0	0	-7.5593371113E+01	1.3321600112E+02	3.1023838887E+02	8.9713962458E+02	8.2773835682E+02	0.000E+00	0.0
	14	1	6	6	0	0	-2.4849175453E+02	6.3914228199E+00	3.0049911841E+02	5.0765512163E+02	3.2500000000E+02	0.000E+00	0.0
	-14	1	6	6	0	0	1.7289838341E+02	1.2682457830E+02	9.7392704574E+00	3.8948450295E+02	3.2500000000E+02	0.000E+00	0.0
	25	2	5	5	0	0	7.5593371113E+01	-1.3321600112E+02	-2.6511815881E+01	1.9958394933E+02	1.2517993344E+02	0.000E+00	0.0
	-5	1	9	9	0	501	8.4236603513E+01	-3.2397637906E+01	-3.7281595410E+01	9.7738437012E+01	4.1800000000E+00	0.000E+00	0.0
	5	1	9	9	501	0	-8.6432323999E+00	-1.0081836321E+02	1.0769779528E+01	1.0184551231E+02	4.1800000000E+00	0.000E+00	0.0
</event>
<event>
    11  -1  1.0000000E+00  1.0000000E+00  -1.0000000E+00  -1.0000000E+00
	2212	-1	0	0	0	0	0.0000000000E+00	0.0000000000E+00	6.5000000000E+03	6.5000000000E+03	9.3827000000E-01	0.000E+00	0.0
	2212	-1	0	0	0	0	0.0000000000E+00	0.0000000000E+00	-6.5000000000E+03	6.5000000000E+03	9.3827000000E-01	0.000E+00	0.0
	2212	1	0	0	0	0	0.0000000000E+00	0.0000000000E+00	3.3471916124E+03	3.3471916124E+03	9.3827000000E-01	0.000E+00	0.0
	2212	1	0	0	0	0	0.0000000000E+00	0.0000000000E+00	-3.9154208109E+03	3.9154208109E+03	9.3827000000E-01	0.000E+00	0.0
	51	2	1	2	0	0	-1.1422025427E+03	-5.5106044676E+01	-1.9251977090E+03	6.1325998831E+03	5.7091796068E+03	0.000E+00	0.0
	1000022	2	5	5	0	0	1.1422025427E+03	5.5106044676E+01	2.8479022467E+03	3.1839110703E+03	8.4798536088E+02	0.000E+00	0.0
	14	1	6	6	0	0	4.1667771319E+02	-2.3244556352E+02	1.2127351413E+03	1.3431317059E+03	3.2500000000E+02	0.000E+00	0.0
	-14	1	6	6	0	0	7.2552482952E+02	2.8755160820E+02	1.6351671055E+03	1.8407793644E+03	3.2500000000E+02	0.000E+00	0.0
	25	2	5	5	0	0	-1.1422025427E+03	-5.5106044676E+01	-2.2796730483E+03	2.5534765064E+03	1.2517881941E+02	0.000E+00	0.0
	-5	1	9	9	0	501	-7.5820417275E+02	-7.6979731415E+01	-1.6080877241E+03	1.7795401225E+03	4.1800000000E+00	0.000E+00	0.0
	5	1	9	9	501	0	-3.8399836995E+02	2.1873686739E+01	-6.7158532415E+02	7.7393638389E+02	4.1800000000E+00	0.000E+00	0.0
</event>
<event>
    11  -1  1.0000000E+00  1.0000000E+00  -1.0000000E+00  -1.0000000E+00
	2212	-1	0	0	0	0	0.0000000000E+00	0.0000000000E+00	6.5000000000E+03	6.5000000000E+03	9.3827000000E-01	0.000E+00	0.0
	2212	-1	0	0	0	0	0.0000000000E+00	0.0000000000E+00	-6.5000000000E+03	6.5000000000E+03	9.3827000000E-01	0.000E+00	0.0
	2212	1	0	0	0	0	0.0000000000E+00	0.0000000000E+00	5.6842608546E+03	5.6842608546E+03	9.3827000000E-01	0.000E+00	0.0
	2212	1	0	0	0	0	0.0000000000E+00	0.0000000000E+00	-6.1516339873E+03	6.1516339873E+03	9.3827000000E-01	0.000E+00	0.0
	51	2	1	2	0	0	6.4496956569E+01	1.6406314719E+01	3.1597647385E+02	1.1139898252E+03	1.0661628272E+03	0.000E+00	0.0
	1000022	2	5	5	0	0	-6.4496956569E+01	-1.6406314719E+01	5.3549953465E+02	1.0068158955E+03	8.4999380659E+02	0.000E+00	0.0
	14	1	6	6	0	0	2.3877548161E+02	3.5990497842E+01	2.6236874290E+02	4.8246388860E+02	3.2500000000E+02	0.000E+00	0.0
	-14	1	6	6	0	0	-3.0327243818E+02	-5.2396812561E+01	2.7313079175E+02	5.2435200689E+02	3.2500000000E+02	0.000E+00	0.0
	25	2	5	5	0	0	6.4496956569E+01	1.6406314719E+01	-6.8126401944E+01	1.5728926268E+02	1.2517859619E+02	0.000E+00	0.0
	-5	1	9	9	0	501	2.5191793630E+01	-4.0420258311E+01	-7.3693320241E+01	8.7844189314E+01	4.1800000000E+00	0.000E+00	0.0
	5	1	9	9	501	0	3.9305162940E+01	5.6826573030E+01	5.5669182968E+00	6.9445073370E+01	4.1800000000E+00	0.000E+00	0.0
</event>
<event>
    11  -1  1.0000000E+00  1.0000000E+00  -1.0000000E+00  -1.0000000E+00
	2212	-1	0	0	0	0	0.0000000000E+00	0.0000000000E+00	6.5000000000E+03	6.5000000000E+03	9.3827000000E-01	0.000E+00	0.0
	2212	-1	0	0	0	0	0.0000000000E+00	0.0000000000E+00	-6.5000000000E+03	6.5000000000E+03	9.3827000000E-01	0.000E+00	0.0
	2212	1	0	0	0	0	0.0000000000E+00	0.0000000000E+00	5.9464425868E+03	5.9464425868E+03	9.3827000000E-01	0.000E+00	0.0
	2212	1	0	0	0	0	0.0000000000E+00	0.0000000000E+00	-6.0131863183E+03	6.0131863183E+03	9.3827000000E-01	0.000E+00	0.0
	51	2	1	2	0	0	3.3976752434E+01	1.1984331418E+02	9.7044291464E+01	1.0501674740E+03	1.0382279563E+03	0.000E+00	0.0
	1000022	2	5	5	0	0	-3.3976752434E+01	-1.1984331418E+02	2.5436419821E+01	8.5900644891E+02	8.4954589527E+02	0.000E+00	0.0
	14	1	6	6	0	0	-2.5532197248E+02	-7.9769732279E+00	-1.1100771833E+02	4.2801945664E+02	3.2500000000E+02	0.000E+00	0.0
	-14	1	6	6	0	0	2.2134522004E+02	-1.1186634095E+02	1.3644413815E+02	4.3098699228E+02	3.2500000000E+02	0.000E+00	0.0
	25	2	5	5	0	0	3.3976752434E+01	1.1984331418E+02	4.1307311677E+01	1.8136464590E+02	1.2517987508E+02	0.000E+00	0.0
	-5	1	9	9	0	501	-2.3391177641E+01	1.0566675490E+02	5.3628435963E+01	1.2085566527E+02	4.1800000000E+00	0.000E+00	0.0
	5	1	9	9	501	0	5.7367930075E+01	1.4176559277E+01	-1.2321124286E+01	6.0508980637E+01	4.1800000000E+00	0.000E+00	0.0
</event>
<event>
    11  -1  1.0000000E+00  1.0000000E+00  -1.0000000E+00  -1.0000000E+00
	2212	-1	0	0	0	0	0.0000000000E+00	0.0000000000E+00	6.5000000000E+03	6.5000000000E+03	9.3827000000E-01	0.000E+00	0.0
	2212	-1	0	0	0	0	0.0000000000E+00	0.0000000000E+00	-6.5000000000E+03	6.5000000000E+03	9.3827000000E-01	0.000E+00	0.0
	2212	1	0	0	0	0	0.0000000000E+00	0.0000000000E+00	6.2946578559E+03	6.2946578559E+03	9.3827000000E-01	0.000E+00	0.0
	2212	1	0	0	0	0	0.0000000000E+00	0.0000000000E+00	-5.1572791037E+03	5.1572791037E+03	9.3827000000E-01	0.000E+00	0.0
	51	2	1	2	0	0	9.7924650640E+01	-9.5291994860E+01	-1.2168136050E+03	1.6131255072E+03	1.0501755811E+03	0.000E+00	0.0
	1000022	2	5	5	0	0	-9.7924650640E+01	9.5291994860E+01	-8.6168824739E+02	1.2158810052E+03	8.4687081762E+02	0.000E+00	0.0
	14	1	6	6	0	0	-2.4509006854E+02	7.4277297615E+01	-1.9060500741E+02	4.5556725902E+02	3.2500000000E+02	0.000E+00	0.0
	-14	1	6	6	0	0	1.4716541790E+02	2.1014697246E+01	-6.7108323997E+02	7.6031374623E+02	3.2500000000E+02	0.000E+00	0.0
	25	2	5	5	0	0	9.7924650640E+01	-9.5291994860E+01	-2.7569050485E+02	3.3218203519E+02	1.2517926567E+02	0.000E+00	0.0
	-5	1	9	9	0	501	-1.1351196462E+01	2.1309223905E+01	-4.9138566883E+01	5.4909050619E+01	4.1800000000E+00	0.000E+00	0.0
	5	1	9	9	501	0	1.0927584710E+02	-1.1660121877E+02	-2.2655193796E+02	2.7727298457E+02	4.1800000000E+00	0.000E+00	0.0
</event>
<event>
    11  -1  1.0000000E+00  1.0000000E+00  -1.0000000E+00  -1.0000000E+00
	2212	-1	0	0	0	0	0.0000000000E+00	0.0000000000E+00	6.5000000000E+03	6.5000000000E+03	9.3827000000E-01	0.000E+00	0.0
	2212	-1	0	0	0	0	0.0000000000E+00	0.0000000000E+00	-6.5000000000E+03	6.5000000000E+03	9.3827000000E-01	0.000E+00	0.0
	2212	1	0	0	0	0	0.0000000000E+00	0.0000000000E+00	6.1158921813E+03	6.1158921813E+03	9.3827000000E-01	0.000E+00	0.0
	2212	1	0	0	0	0	0.0000000000E+00	0.0000000000E+00	-5.7906802391E+03	5.7906802391E+03	9.3827000000E-01	0.000E+00	0.0
	51	2	1	2	0	0	-4.6683356546E+01	5.8174007001E+00	-1.8972437855E+02	1.0620873703E+03	1.0439449527E+03	0.000E+00	0.0
	1000022	2	5	5	0	0	4.6683356546E+01	-5.8174007001E+00	-4.0503185926E+02	9.3760202961E+02	8.4429472400E+02	0.000E+00	0.0
	14	1	6	6	0	0	2.5857343176E+02	-4.9732457179E+01	-7.2035971046E+01	4.2443812038E+02	3.2500000000E+02	0.000E+00	0.0
	-14	1	6	6	0	0	-2.1189007522E+02	4.3915056479E+01	-3.3299588822E+02	5.1316390922E+02	3.2500000000E+02	0.000E+00	0.0
	25	2	5	5	0	0	-4.6683356546E+01	5.8174007001E+00	7.9819917067E+01	1.5582554991E+02	1.2528848677E+02	0.000E+00	0.0
	-5	1	9	9	0	501	2.8428635647E+01	4.1016353682E+01	2.2446928355E+01	5.4880466349E+01	4.1800000000E+00	0.000E+00	0.0
	5	1	9	9	501	0	-7.5111992193E+01	-3.5198952981E+01	5.7372988711E+01	1.0094508356E+02	4.1800000000E+00	0.000E+00	0.0
</event>
<event>
    11  -1  1.0000000E+00  1.0000000E+00  -1.0000000E+00  -1.0000000E+00
	2212	-1	0	0	0	0	0.0000000000E+00	0.0000000000E+00	6.5000000000E+03	6.5000000000E+03	9.3827000000E-01	0.000E+00	0.0
	2212	-1	0	0	0	0	0.0000000000E+00	0.0000000000E+00	-6.5000000000E+03	6.5000000000E+03	9.3827000000E-01	0.000E+00	0.0
	2212	1	0	0	0	0	0.0000000000E+00	0.0000000000E+00	6.1002656787E+03	6.1002656787E+03	9.3827000000E-01	0.000E+00	0.0
	2212	1	0	0	0	0	0.0000000000E+00	0.0000000000E+00	-5.8625427454E+03	5.8625427454E+03	9.3827000000E-01	0.000E+00	0.0
	51	2	1	2	0	0	4.3133498201E+01	-5.7918348430E+01	-2.9954104688E+02	1.0555539042E+03	1.0095811865E+03	0.000E+00	0.0
	1000022	2	5	5	0	0	-4.3133498201E+01	5.7918348430E+01	-1.4018710160E+02	8.6299187922E+02	8.4846185913E+02	0.000E+00	0.0
	14	1	6	6	0	0	2.3000821722E+02	9.2086104341E+01	-1.5435825278E+02	4.3684677040E+02	3.2500000000E+02	0.000E+00	0.0
	-14	1	6	6	0	0	-2.7314171542E+02	-3.4167755911E+01	1.4171151186E+01	4.2614510882E+02	3.2500000000E+02	0.000E+00	0.0
	25	2	5	5	0	0	4.3133498201E+01	-5.7918348430E+01	-9.7535831697E+01	1.7419969668E+02	1.2496904460E+02	0.000E+00	0.0
	-5	1	9	9	0	501	1.9387494666E+01	-9.0790939943E+01	-3.4498432572E+01	9.9128623390E+01	4.1800000000E+00	0.000E+00	0.0
	5	1	9	9	501	0	2.3746003535E+01	3.2872591513E+01	-6.3037399126E+01	7.5071073292E+01	4.1800000000E+00	0.000E+00	0.0
</event>
<event>
    11  -1  1.0000000E+00  1.0000000E+00  -1.0000000E+00  -1.0000000E+00
	2212	-1	0	0	0	0	0.0000000000E+00	0.0000000000E+00	6.5000000000E+03	6.5000000000E+03	9.3827000000E-01	0.000E+00	0.0
	2212	-1	0	0	0	0	0.0000000000E+00	0.0000000000E+00	-6.5000000000E+03	6.5000000000E+03	9.3827000000E-01	0.000E+00	0.0
	2212	1	0	0	0	0	0.0000000000E+00	0.0000000000E+00	5.9711960041E+03	5.9711960041E+03	9.3827000000E-01	0.000E+00	0.0
	2212	1	0	0	0	0	0.0000000000E+00	0.0000000000E+00	-5.9927654349E+03	5.9927654349E+03	9.3827000000E-01	0.000E+00	0.0
	51	2	1	2	0	0	1.2148402602E+02	3.9095958403E+01	8.9170335907E+01	1.0474487438E+03	1.0358140082E+03	0.000E+00	0.0
	1000022	2	5	5	0	0	-1.2148402602E+02	-3.9095958403E+01	-4.9800960651E+01	8.4356967075E+02	8.3237178664E+02	0.000E+00	0.0
	14	1	6	6	0	0	-7.8537592181E+01	-1.8431056813E+02	1.7541165331E+02	4.2015805005E+02	3.2500000000E+02	0.000E+00	0.0
	-14	1	6	6	0	0	-4.2946433837E+01	1.4521460973E+02	-2.2521261396E+02	4.2341162070E+02	3.2500000000E+02	0.000E+00	0.0
	25	2	5	5	0	0	1.2148402602E+02	3.9095958403E+01	7.1370391479E+01	1.9246889027E+02	1.2515461798E+02	0.000E+00	0.0
	-5	1	9	9	0	501	7.8274978903E+01	8.2302257160E+01	6.4895679726E+01	1.3087992781E+02	4.1800000000E+00	0.000E+00	0.0
	5	1	9	9	501	0	4.3209047115E+01	-4.3206298758E+01	6.4747117538E+00	6.1588962463E+01	4.1800000000E+00	0.000E+00	0.0
</event>
<event>
    11  -1  1.0000000E+00  1.0000000E+00  -1.0000000E+00  -1.0000000E+00
	2212	-1	0	0	0	0	0.0000000000E+00	0.0000000000E+00	6.5000000000E+03	6.5000000000E+03	9.3827000000E-01	0.000E+00	0.0
	2212	-1	0	0	0	0	0.0000000000E+00	0.0000000000E+00	-6.5000000000E+03	6.5000000000E+03	9.3827000000E-01	0.000E+00	0.0
	2212	1	0	0	0	0	0.0000000000E+00	0.0000000000E+00	5.4655078216E+03	5.4655078216E+03	9.3827000000E-01	0.000E+00	0.0
	2212	1	0	0	0	0	0.0000000000E+00	0.0000000000E+00	-6.2348075672E+03	6.2348075672E+03	9.3827000000E-01	0.000E+00	0.0
	51	2	1	2	0	0	-1.1319953016E+02	6.0633249691E+01	8.5944499576E+02	1.3610636338E+03	1.0475485621E+03	0.000E+00	0.0
	1000022	2	5	5	0	0	1.1319953016E+02	-6.0633249691E+01	5.4563980732E+02	1.0127407337E+03	8.4346337788E+02	0.000E+00	0.0
	14	1	6	6	0	0	2.6867422344E+02	2.1934326347E+01	1.0029392681E+02	4.3399403771E+02	3.2500000000E+02	0.000E+00	0.0
	-14	1	6	6	0	0	-1.5547469328E+02	-8.2567576039E+01	4.4534588051E+02	5.7874669602E+02	3.2500000000E+02	0.000E+00	0.0
	25	2	5	5	0	0	-1.1319953016E+02	6.0633249691E+01	2.2365993824E+02	2.8694387746E+02	1.2578750433E+02	0.000E+00	0.0
	-5	1	9	9	0	501	-4.8279347771E+00	-2.6928370280E+01	5.7486068741E+00	2.8265968250E+01	4.1800000000E+00	0.000E+00	0.0
	5	1	9	9	501	0	-1.0837159538E+02	8.7561619971E+01	2.1791133137E+02	2.5867790921E+02	4.1800000000E+00	0.000E+00	0.0
</event>
<event>
    11  -1  1.0000000E+00  1.0000000E+00  -1.0000000E+00  -1.0000000E+00
	2212	-1	0	0	0	0	0.0000000000E+00	0.0000000000E+00	6.5000000000E+03	6.5000000000E+03	9.3827000000E-01	0.000E+00	0.0
	2212	-1	0	0	0	0	0.0000000000E+00	0.0000000000E+00	-6.5000000000E+03	6.5000000000E+03	9.3827000000E-01	0.000E+00	0.0
	2212	1	0	0	0	0	0.0000000000E+00	0.0000000000E+00	6.0511941279E+03	6.0511941279E+03	9.3827000000E-01	0.000E+00	0.0
	2212	1	0	0	0	0	0.0000000000E+00	0.0000000000E+00	-5.8804852928E+03	5.8804852928E+03	9.3827000000E-01	0.000E+00	0.0
	51	2	1	2	0	0	-7.5345658323E+01	1.1606224175E+02	-2.1368348959E+02	1.0848849708E+03	1.0545934543E+03	0.000E+00	0.0
	1000022	2	5	5	0	0	7.5345658323E+01	-1.1606224175E+02	-9.8404499333E+01	8.6820680031E+02	8.5144124309E+02	0.000E+00	0.0
	14	1	6	6	0	0	-7.4755135318E+01	1.7561679994E+02	5.6573526556E+01	3.8112354242E+02	3.2500000000E+02	0.000E+00	0.0
	-14	1	6	6	0	0	1.5010079364E+02	-2.9167904169E+02	-1.5497802589E+02	4.8708325789E+02	3.2500000000E+02	0.000E+00	0.0
	25	2	5	5	0	0	-7.5345658323E+01	1.1606224175E+02	-7.2304335792E+01	2.0011377904E+02	1.2518065106E+02	0.000E+00	0.0
	-5	1	9	9	0	501	-6.1307374926E+01	1.3852615210E+02	-3.7388885074E+01	1.5608808463E+02	4.1800000000E+00	0.000E+00	0.0
	5	1	9	9	501	0	-1.4038283397E+01	-2.2463910358E+01	-3.4915450718E+01	4.4025694409E+01	4.1800000000E+00	0.000E+00	0.0
</event>
<event>
    11  -1  1.0000000E+00  1.0000000E+00  -1.0000000E+00  -1.0000000E+00
	2212	-1	0	0	0	0	0.0000000000E+00	0.0000000000E+00	6.5000000000E+03	6.5000000000E+03	9.3827000000E-01	0.000E+00	0.0
	2212	-1	0	0	0	0	0.0000000000E+00	0.0000000000E+00	-6.5000000000E+03	6.5000000000E+03	9.3827000000E-01	0.000E+00	0.0
	2212	1	0	0	0	0	0.0000000000E+00	0.0000000000E+00	5.0011315284E+03	5.0011315284E+03	9.3827000000E-01	0.000E+00	0.0
	2212	1	0	0	0	0	0.0000000000E+00	0.0000000000E+00	-6.3158123431E+03	6.3158123431E+03	9.3827000000E-01	0.000E+00	0.0
	51	2	1	2	0	0	1.2614783191E+02	7.4830186288E+00	1.4285127072E+03	1.7778948542E+03	1.0508531234E+03	0.000E+00	0.0
	1000022	2	5	5	0	0	-1.2614783191E+02	-7.4830186288E+00	9.7635988426E+02	1.3008262375E+03	8.5023585291E+02	0.000E+00	0.0
	14	1	6	6	0	0	-2.4994096561E+02	1.7599804352E+02	3.7767444517E+02	5.8455862336E+02	3.2500000000E+02	0.000E+00	0.0
	-14	1	6	6	0	0	1.2379313369E+02	-1.8348106215E+02	5.9868543908E+02	7.1626761416E+02	3.2500000000E+02	0.000E+00	0.0
	25	2	5	5	0	0	1.2614783191E+02	7.4830186288E+00	3.3832093049E+02	3.8222989098E+02	1.2517734015E+02	0.000E+00	0.0
	-5	1	9	9	0	501	-7.8765576708E+00	-2.3374245014E+01	1.1318836585E+01	2.7458768223E+01	4.1800000000E+00	0.000E+00	0.0
	5	1	9	9	501	0	1.3402438959E+02	3.0857263643E+01	3.2700209390E+02	3.5477112275E+02	4.1800000000E+00	0.000E+00	0.0
</event>
<event>
    11  -1  1.0000000E+00  1.0000000E+00  -1.0000000E+00  -1.0000000E+00
	2212	-1	0	0	0	0	0.0000000000E+00	0.0000000000E+00	6.5000000000E+03	6.5000000000E+03	9.3827000000E-01	0.000E+00	0.0
	2212	-1	0	0	0	0	0.0000000000E+00	0.0000000000E+00	-6.5000000000E+03	6.5000000000E+03	9.3827000000E-01	0.000E+00	0.0
	2212	1	0	0	0	0	0.0000000000E+00	0.0000000000E+00	5.7651028089E+03	5.7651028089E+03	9.3827000000E-01	0.000E+00	0.0
	2212	1	0	0	0	0	0.0000000000E+00	0.0000000000E+00	-6.1273222617E+03	6.1273222617E+03	9.3827000000E-01	0.000E+00	0.0
	51	2	1	2	0	0	-5.4906970808E+01	1.1190676349E+02	2.9260628268E+02	1.0939267014E+03	1.0466705749E+03	0.000E+00	0.0
	1000022	2	5	5	0	0	5.4906970808E+01	-1.1190676349E+02	3.6954855333E+02	9.3077431888E+02	8.4512531630E+02	0.000E+00	0.0
	14	1	6	6	0	0	1.6818560071E+02	-1.2897675082E+02	4.3188972882E+02	5.8058172241E+02	3.2500000000E+02	0.000E+00	0.0
	-14	1	6	6	0	0	-1.1327862990E+02	1.7069987334E+01	-6.2341175481E+01	3.5019259647E+02	3.2500000000E+02	0.000E+00	0.0
	25	2	5	5	0	0	-5.4906970808E+01	1.1190676349E+02	-7.3291004766E+00	1.7680061055E+02	1.2516725219E+02	0.000E+00	0.0
	-5	1	9	9	0	501	2.6888240563E+01	3.1872766386E+01	-3.9775516816E+01	5.7779017434E+01	4.1800000000E+00	0.000E+00	0.0
	5	1	9	9	501	0	-8.1795211371E+01	8.0033997099E+01	3.2446416339E+01	1.1902159312E+02	4.1800000000E+00	0.000E+00	0.0
</event>
<event>
    11  -1  1.0000000E+00  1.0000000E+00  -1.0000000E+00  -1.0000000E+00
	2212	-1	0	0	0	0	0.0000000000E+00	0.0000000000E+00	6.5000000000E+03	6.5000000000E+03	9.3827000000E-01	0.000E+00	0.0
	2212	-1	0	0	0	0	0.0000000000E+00	0.0000000000E+00	-6.5000000000E+03	6.5000000000E+03	9.3827000000E-01	0.000E+00	0.0
	2212	1	0	0	0	0	0.0000000000E+00	0.0000000000E+00	5.9333787346E+03	5.9333787346E+03	9.3827000000E-01	0.000E+00	0.0
	2212	1	0	0	0	0	0.0000000000E+00	0.0000000000E+00	-6.0151955867E+03	6.0151955867E+03	9.3827000000E-01	0.000E+00	0.0
	51	2	1	2	0	0	-1.1324046991E+02	-1.9327227771E+01	1.4945955724E+02	1.0650526117E+03	1.0482375497E+03	0.000E+00	0.0
	1000022	2	5	5	0	0	1.1324046991E+02	1.9327227771E+01	5.8003157685E-01	8.6310121574E+02	8.5542178276E+02	0.000E+00	0.0
	14	1	6	6	0	0	1.0079288223E+02	1.0336701258E+02	-2.5785657123E+02	4.3927093658E+02	3.2500000000E+02	0.000E+00	0.0
	-14	1	6	6	0	0	1.2447587682E+01	-8.4039784809E+01	2.5843660280E+02	4.2383027917E+02	3.2500000000E+02	0.000E+00	0.0
	25	2	5	5	0	0	-1.1324046991E+02	-1.9327227771E+01	8.1236820516E+01	1.8832446299E+02	1.2517881847E+02	0.000E+00	0.0
	-5	1	9	9	0	501	-1.8271488196E+00	-6.9060344204E-01	-2.9632903005E+01	2.9989944088E+01	4.1800000000E+00	0.000E+00	0.0
	5	1	9	9	501	0	-1.1141332109E+02	-1.8636624329E+01	1.1086972352E+02	1.5833451890E+02	4.1800000000E+00	0.000E+00	0.0
</event>
<event>
    11  -1  1.0000000E+00  1.0000000E+00  -1.0000000E+00  -1.0000000E+00
	2212	-1	0	0	0	0	0.0000000000E+00	0.0000000000E+00	6.5000000000E+03	6.5000000000E+03	9.3827000000E-01	0.000E+00	0.0
	2212	-1	0	0	0	0	0.0000000000E+00	0.0000000000E+00	-6.5000000000E+03	6.5000000000E+03	9.3827000000E-01	0.000E+00	0.0
	2212	1	0	0	0	0	0.0000000000E+00	0.0000000000E+00	6.3148362736E+03	6.3148362736E+03	9.3827000000E-01	0.000E+00	0.0
	2212	1	0	0	0	0	0.0000000000E+00	0.0000000000E+00	-4.9254518251E+03	4.9254518251E+03	9.3827000000E-01	0.000E+00	0.0
	51	2	1	2	0	0	-7.1251052098E+01	-1.9616848398E+02	-1.3702504018E+03	1.7570833161E+03	1.0799059355E+03	0.000E+00	0.0
	1000022	2	5	5	0	0	7.1251052098E+01	1.9616848398E+02	-1.1195212083E+03	1.3963136709E+03	8.0796370280E+02	0.000E+00	0.0
	14	1	6	6	0	0	2.0897009206E+02	1.8310669706E+02	-3.6102845978E+02	5.5960978427E+02	3.2500000000E+02	0.000E+00	0.0
	-14	1	6	6	0	0	-1.3771903996E+02	1.3061786916E+01	-7.5849274855E+02	8.3670388660E+02	3.2500000000E+02	0.000E+00	0.0
	25	2	5	5	0	0	-7.1251052098E+01	-1.9616848398E+02	-2.6986324021E+02	3.6339823038E+02	1.2519312641E+02	0.000E+00	0.0
	-5	1	9	9	0	501	-4.6114094699E+01	-2.0860857192E+02	-2.2480180915E+02	3.1015701154E+02	4.1800000000E+00	0.000E+00	0.0
	5	1	9	9	501	0	-2.5136957399E+01	1.2440087944E+01	-4.5061431057E+01	5.3241218847E+01	4.1800000000E+00	0.000E+00	0.0
</event>
<event>
    11  -1  1.0000000E+00  1.0000000E+00  -1.0000000E+00  -1.0000000E+00
	2212	-1	0	0	0	0	0.0000000000E+00	0.0000000000E+00	6.5000000000E+03	6.5000000000E+03	9.3827000000E-01	0.000E+00	0.0
	2212	-1	0	0	0	0	0.0000000000E+00	0.0000000000E+00	-6.5000000000E+03	6.5000000000E+03	9.3827000000E-01	0.000E+00	0.0
	2212	1	0	0	0	0	0.0000000000E+00	0.0000000000E+00	5.6043779803E+03	5.6043779803E+03	9.3827000000E-01	0.000E+00	0.0
	2212	1	0	0	0	0	0.0000000000E+00	0.0000000000E+00	-6.1948795272E+03	6.1948795272E+03	9.3827000000E-01	0.000E+00	0.0
	51	2	1	2	0	0	-8.7124223753E+01	2.2350061681E+01	6.5466849166E+02	1.2368392968E+03	1.0455096635E+03	0.000E+00	0.0
	1000022	2	5	5	0	0	8.7124223753E+01	-2.2350061681E+01	4.3715817315E+02	9.8331182367E+02	8.7618760468E+02	0.000E+00	0.0
	14	1	6	6	0	0	1.6960616145E+01	-9.9292010829E+01	5.2983319932E+02	6.2967831868E+02	3.2500000000E+02	0.000E+00	0.0
	-14	1	6	6	0	0	7.0163607608E+01	7.6941949148E+01	-9.2675026171E+01	3.5363350498E+02	3.2500000000E+02	0.000E+00	0.0
	25	2	5	5	0	0	-8.7124223753E+01	2.2350061681E+01	1.5334337371E+02	2.1743066883E+02	1.2518685980E+02	0.000E+00	0.0
	-5	1	9	9	0	501	-6.2004190723E+01	-4.2565526696E+01	4.2528292172E+01	8.6501281870E+01	4.1800000000E+00	0.000E+00	0.0
	5	1	9	9	501	0	-2.5120033031E+01	6.4915588377E+01	1.1081508154E+02	1.3092938696E+02	4.1800000000E+00	0.000E+00	0.0
</event>
<event>
    11  -1  1.0000000E+00  1.0000000E+00  -1.0000000E+00  -1.0000000E+00
	2212	-1	0	0	0	0	0.0000000000E+00	0.0000000000E+00	6.5000000000E+03	6.5000000000E+03	9.3827000000E-01	0.000E+00	0.0
	2212	-1	0	0	0	0	0.0000000000E+00	0.0000000000E+00	-6.5000000000E+03	6.5000000000E+03	9.3827000000E-01	0.000E+00	0.0
	2212	1	0	0	0	0	0.0000000000E+00	0.0000000000E+00	5.9371723896E+03	5.9371723896E+03	9.3827000000E-01	0.000E+00	0.0
	2212	1	0	0	0	0	0.0000000000E+00	0.0000000000E+00	-6.0242538815E+03	6.0242538815E+03	9.3827000000E-01	0.000E+00	0.0
	51	2	1	2	0	0	-1.5423786650E+00	9.7874817589E+01	1.5294728828E+02	1.0507268608E+03	1.0349165204E+03	0.000E+00	0.0
	1000022	2	5	5	0	0	1.5423786650E+00	-9.7874817589E+01	7.3266979598E+00	8.6077405427E+02	8.5515871810E+02	0.000E+00	0.0
	14	1	6	6	0	0	3.6988202728E+01	-2.6706012431E+02	-1.6621439177E+02	4.5380773591E+02	3.2500000000E+02	0.000E+00	0.0
	-14	1	6	6	0	0	-3.5445824063E+01	1.6918530672E+02	1.7354108973E+02	4.0696631836E+02	3.2500000000E+02	0.000E+00	0.0
	25	2	5	5	0	0	-1.5423786650E+00	9.7874817589E+01	7.9754793987E+01	1.7779967465E+02	1.2518002354E+02	0.000E+00	0.0
	-5	1	9	9	0	501	-1.9136406848E+01	1.2340193634E+02	4.9856412155E+01	1.3452648138E+02	4.1800000000E+00	0.000E+00	0.0
	5	1	9	9	501	0	1.7594028183E+01	-2.5527118754E+01	2.9898381832E+01	4.3273193270E+01	4.1800000000E+00	0.000E+00	0.0
</event>
<event>
    11  -1  1.0000000E+00  1.0000000E+00  -1.0000000E+00  -1.0000000E+00
	2212	-1	0	0	0	0	0.0000000000E+00	0.0000000000E+00	6.5000000000E+03	6.5000000000E+03	9.3827000000E-01	0.000E+00	0.0
	2212	-1	0	0	0	0	0.0000000000E+00	0.0000000000E+00	-6.5000000000E+03	6.5000000000E+03	9.3827000000E-01	0.000E+00	0.0
	2212	1	0	0	0	0	0.0000000000E+00	0.0000000000E+00	5.4680104205E+03	5.4680104205E+03	9.3827000000E-01	0.000E+00	0.0
	2212	1	0	0	0	0	0.0000000000E+00	0.0000000000E+00	-6.2322102138E+03	6.2322102138E+03	9.3827000000E-01	0.000E+00	0.0
	51	2	1	2	0	0	1.8747296190E+01	-1.2713051065E+02	8.4004738857E+02	1.3518943443E+03	1.0513919704E+03	0.000E+00	0.0
	1000022	2	5	5	0	0	-1.8747296190E+01	1.2713051065E+02	5.5853069756E+02	1.0268591616E+03	8.5203847909E+02	0.000E+00	0.0
	14	1	6	6	0	0	1.6750014220E+01	2.3947976810E+02	5.4819085349E+02	6.8100611903E+02	3.2500000000E+02	0.000E+00	0.0
	-14	1	6	6	0	0	-3.5497310410E+01	-1.1234925745E+02	1.0339844070E+01	3.4585304259E+02	3.2500000000E+02	0.000E+00	0.0
	25	2	5	5	0	0	1.8747296190E+01	-1.2713051065E+02	2.0566909578E+02	2.7292020407E+02	1.2518799054E+02	0.000E+00	0.0
	-5	1	9	9	0	501	2.5384853446E+01	-1.2773983114E+02	2.2050428527E+02	2.5612783423E+02	4.1800000000E+00	0.000E+00	0.0
	5	1	9	9	501	0	-6.6375572559E+00	6.0932049469E-01	-1.4835189485E+01	1.6792369840E+01	4.1800000000E+00	0.000E+00	0.0
</event>
<event>
    11  -1  1.0000000E+00  1.0000000E+00  -1.0000000E+00  -1.0000000E+00
	2212	-1	0	0	0	0	0.0000000000E+00	0.0000000000E+00	6.5000000000E+03	6.5000000000E+03	9.3827000000E-01	0.000E+00	0.0
	2212	-1	0	0	0	0	0.0000000000E+00	0.0000000000E+00	-6.5000000000E+03	6.5000000000E+03	9.3827000000E-01	0.000E+00	0.0
	2212	1	0	0	0	0	0.0000000000E+00	0.0000000000E+00	5.8816184783E+03	5.8816184783E+03	9.3827000000E-01	0.000E+00	0.0
	2212	1	0	0	0	0	0.0000000000E+00	0.0000000000E+00	-6.0569603824E+03	6.0569603824E+03	9.3827000000E-01	0.000E+00	0.0
	51	2	1	2	0	0	-1.1085943079E+02	2.9167105157E+01	2.4871849691E+02	1.0820681475E+03	1.0468381210E+03	0.000E+00	0.0
	1000022	2	5	5	0	0	1.1085943079E+02	-2.9167105157E+01	7.2600029881E+01	8.6301325459E+02	8.5227963711E+02	0.000E+00	0.0
	14	1	6	6	0	0	2.6569859848E+02	-1.8405870997E+02	1.0344806899E+02	4.6989345274E+02	3.2500000000E+02	0.000E+00	0.0
	-14	1	6	6	0	0	-1.5483916769E+02	1.5489160481E+02	-3.0848039113E+01	3.9311980185E+02	3.2500000000E+02	0.000E+00	0.0
	25	2	5	5	0	0	-1.1085943079E+02	2.9167105157E+01	1.0274187428E+02	1.9840788474E+02	1.2517692510E+02	0.000E+00	0.0
	-5	1	9	9	0	501	-7.7011599577E+01	3.1077484995E+01	1.3026461136E+02	1.5454105576E+02	4.1800000000E+00	0.000E+00	0.0
	5	1	9	9	501	0	-3.3847831210E+01	-1.9103798376E+00	-2.7522737074E+01	4.3866828980E+01	4.1800000000E+00	0.000E+00	0.0
</event>
<event>
    11  -1  1.0000000E+00  1.0000000E+00  -1.0000000E+00  -1.0000000E+00
	2212	-1	0	0	0	0	0.0000000000E+00	0.0000000000E+00	6.5000000000E+03	6.5000000000E+03	9.3827000000E-01	0.000E+00	0.0
	2212	-1	0	0	0	0	0.0000000000E+00	0.0000000000E+00	-6.5000000000E+03	6.5000000000E+03	9.3827000000E-01	0.000E+00	0.0
	2212	1	0	0	0	0	0.0000000000E+00	0.0000000000E+00	6.0877496608E+03	6.0877496608E+03	9.3827000000E-01	0.000E+00	0.0
	2212	1	0	0	0	0	0.0000000000E+00	0.0000000000E+00	-5.8034884341E+03	5.8034884341E+03	9.3827000000E-01	0.000E+00	0.0
	51	2	1	2	0	0	-5.4955682019E+01	-1.3149011822E+02	-2.1008482834E+02	1.1013600367E+03	1.0717035584E+03	0.000E+00	0.0
	1000022	2	5	5	0	0	5.4955682019E+01	1.3149011822E+02	-3.0754998262E+02	9.1767634712E+02	8.5277963629E+02	0.000E+00	0.0
	14	1	6	6	0	0	2.9743535946E+02	8.4156542560E+01	-9.9299925868E+01	4.5938610339E+02	3.2500000000E+02	0.000E+00	0.0
	-14	1	6	6	0	0	-2.4247967744E+02	4.7333575663E+01	-2.0825005675E+02	4.5829024372E+02	3.2500000000E+02	0.000E+00	0.0
	25	2	5	5	0	0	-5.4955682019E+01	-1.3149011822E+02	2.3288755963E+01	1.9108555794E+02	1.2514609911E+02	0.000E+00	0.0
	-5	1	9	9	0	501	2.1345814862E+01	-5.0436758214E+01	-3.5229998010E+01	6.5254391048E+01	4.1800000000E+00	0.000E+00	0.0
	5	1	9	9	501	0	-7.6301496881E+01	-8.1053360009E+01	5.8518753972E+01	1.2583116689E+02	4.1800000000E+00	0.000E+00	0.0
</event>
<event>
    11  -1  1.0000000E+00  1.0000000E+00  -1.0000000E+00  -1.0000000E+00
	2212	-1	0	0	0	0	0.0000000000E+00	0.0000000000E+00	6.5000000000E+03	6.5000000000E+03	9.3827000000E-01	0.000E+00	0.0
	2212	-1	0	0	0	0	0.0000000000E+00	0.0000000000E+00	-6.5000000000E+03	6.5000000000E+03	9.3827000000E-01	0.000E+00	0.0
	2212	1	0	0	0	0	0.0000000000E+00	0.0000000000E+00	5.6893270154E+03	5.6893270154E+03	9.3827000000E-01	0.000E+00	0.0
	2212	1	0	0	0	0	0.0000000000E+00	0.0000000000E+00	-6.1578744192E+03	6.1578744192E+03	9.3827000000E-01	0.000E+00	0.0
	51	2	1	2	0	0	5.8106099012E+01	-1.2619717229E+02	4.3179923867E+02	1.1468044690E+03	1.0532843218E+03	0.000E+00	0.0
	1000022	2	5	5	0	0	-5.8106099012E+01	1.2619717229E+02	4.2479510691E+02	9.6073198217E+02	8.5044283387E+02	0.000E+00	0.0
	14	1	6	6	0	0	-1.4094516128E+02	2.4105266945E+02	4.2880952151E+02	6.0619677802E+02	3.2500000000E+02	0.000E+00	0.0
	-14	1	6	6	0	0	8.2839062269E+01	-1.1485549715E+02	-4.0144146077E+00	3.5453520416E+02	3.2500000000E+02	0.000E+00	0.0
	25	2	5	5	0	0	5.8106099012E+01	-1.2619717229E+02	4.3752296907E+01	1.9206658316E+02	1.2519290653E+02	0.000E+00	0.0
	-5	1	9	9	0	501	2.7189501499E+01	-6.0681919781E+01	-4.2747537056E+01	7.9160524913E+01	4.1800000000E+00	0.000E+00	0.0
	5	1	9	9	501	0	3.0916597513E+01	-6.5515252513E+01	8.6499833963E+01	1.1290605825E+02	4.1800000000E+00	0.000E+00	0.0
</event>
<event>
    11  -1  1.0000000E+00  1.0000000E+00  -1.0000000E+00  -1.0000000E+00
	2212	-1	0	0	0	0	0.0000000000E+00	0.0000000000E+00	6.5000000000E+03	6.5000000000E+03	9.3827000000E-01	0.000E+00	0.0
	2212	-1	0	0	0	0	0.0000000000E+00	0.0000000000E+00	-6.5000000000E+03	6.5000000000E+03	9.3827000000E-01	0.000E+00	0.0
	2212	1	0	0	0	0	0.0000000000E+00	0.0000000000E+00	6.3336685597E+03	6.3336685597E+03	9.3827000000E-01	0.000E+00	0.0
	2212	1	0	0	0	0	0.0000000000E+00	0.0000000000E+00	-4.8471032082E+03	4.8471032082E+03	9.3827000000E-01	0.000E+00	0.0
	51	2	1	2	0	0	1.1052795408E+02	-9.3603505221E+01	-1.5094935385E+03	1.8437091972E+03	1.0486728833E+03	0.000E+00	0.0
	1000022	2	5	5	0	0	-1.1052795408E+02	9.3603505221E+01	-1.2062966626E+03	1.4798192312E+03	8.4482854709E+02	0.000E+00	0.0
	14	1	6	6	0	0	-6.9289258276E+01	-2.2401662116E+02	-5.5309367269E+02	6.8302420062E+02	3.2500000000E+02	0.000E+00	0.0
	-14	1	6	6	0	0	-4.1238695801E+01	3.1762012638E+02	-6.5320298993E+02	7.9679503058E+02	3.2500000000E+02	0.000E+00	0.0
	25	2	5	5	0	0	1.1052795408E+02	-9.3603505221E+01	-2.8026868887E+02	3.3940900091E+02	1.2517941969E+02	0.000E+00	0.0
	-5	1	9	9	0	501	-1.2667890674E+01	1.7462247066E+01	-5.8124035344E+01	6.2139209936E+01	4.1800000000E+00	0.000E+00	0.0
	5	1	9	9	501	0	1.2319584475E+02	-1.1106575229E+02	-2.2214465353E+02	2.7726979097E+02	4.1800000000E+00	0.000E+00	0.0
</event>
<event>
    11  -1  1.0000000E+00  1.0000000E+00  -1.0000000E+00  -1.0000000E+00
	2212	-1	0	0	0	0	0.0000000000E+00	0.0000000000E+00	6.5000000000E+03	6.5000000000E+03	9.3827000000E-01	0.000E+00	0.0
	2212	-1	0	0	0	0	0.0000000000E+00	0.0000000000E+00	-6.5000000000E+03	6.5000000000E+03	9.3827000000E-01	0.000E+00	0.0
	2212	1	0	0	0	0	0.0000000000E+00	0.0000000000E+00	5.8369285529E+03	5.8369285529E+03	9.3827000000E-01	0.000E+00	0.0
	2212	1	0	0	0	0	0.0000000000E+00	0.0000000000E+00	-6.0855675405E+03	6.0855675405E+03	9.3827000000E-01	0.000E+00	0.0
	51	2	1	2	0	0	-3.9196519799E+01	-4.9890004875E+00	3.8489921006E+02	1.1175428322E+03	1.0484242093E+03	0.000E+00	0.0
	1000022	2	5	5	0	0	3.9196519799E+01	4.9890004875E+00	7.0568808479E+01	8.5627701867E+02	8.5244889506E+02	0.000E+00	0.0
	14	1	6	6	0	0	-2.1272287376E+02	-9.6689455496E+01	-7.7193297728E+01	4.0765632221E+02	3.2500000000E+02	0.000E+00	0.0
	-14	1	6	6	0	0	2.5191939356E+02	1.0167845598E+02	1.4776210621E+02	4.4862069646E+02	3.2500000000E+02	0.000E+00	0.0
	25	2	5	5	0	0	-3.9196519799E+01	-4.9890004875E+00	1.7807017906E+02	2.2122688794E+02	1.2518422420E+02	0.000E+00	0.0
	-5	1	9	9	0	501	-3.8224229831E+01	4.3908600970E+00	-3.9605739191E+00	3.8904112177E+01	4.1800000000E+00	0.000E+00	0.0
	5	1	9	9	501	0	-9.7228996798E-01	-9.3798605845E+00	1.8203075298E+02	1.8232277577E+02	4.1800000000E+00	0.000E+00	0.0
</event>
<event>
    11  -1  1.0000000E+00  1.0000000E+00  -1.0000000E+00  -1.0000000E+00
	2212	-1	0	0	0	0	0.0000000000E+00	0.0000000000E+00	6.5000000000E+03	6.5000000000E+03	9.3827000000E-01	0.000E+00	0.0
	2212	-1	0	0	0	0	0.0000000000E+00	0.0000000000E+00	-6.5000000000E+03	6.5000000000E+03	9.3827000000E-01	0.000E+00	0.0
	2212	1	0	0	0	0	0.0000000000E+00	0.0000000000E+00	5.6210326534E+03	5.6210326534E+03	9.3827000000E-01	0.000E+00	0.0
	2212	1	0	0	0	0	0.0000000000E+00	0.0000000000E+00	-6.1883091312E+03	6.1883091312E+03	9.3827000000E-01	0.000E+00	0.0
	51	2	1	2	0	0	6.2591576029E+01	3.5254264291E+01	7.0003715134E+02	1.2613789936E+03	1.0468354138E+03	0.000E+00	0.0
	1000022	2	5	5	0	0	-6.2591576029E+01	-3.5254264291E+01	3.3989891603E+02	9.2134578092E+02	8.5333827195E+02	0.000E+00	0.0
	14	1	6	6	0	0	6.7766667422E+01	1.7174858068E+02	-2.5360571003E+01	3.7464390391E+02	3.2500000000E+02	0.000E+00	0.0
	-14	1	6	6	0	0	-1.3035824345E+02	-2.0700284497E+02	3.6525948703E+02	5.4670187701E+02	3.2500000000E+02	0.000E+00	0.0
	25	2	5	5	0	0	6.2591576029E+01	3.5254264291E+01	2.2737756178E+02	2.6931243448E+02	1.2517213437E+02	0.000E+00	0.0
	-5	1	9	9	0	501	3.8410496533E+01	1.8146924088E+01	2.8292378765E+00	4.2780300194E+01	4.1800000000E+00	0.000E+00	0.0
	5	1	9	9	501	0	2.4181079496E+01	1.7107340203E+01	2.2454832391E+02	2.2653213429E+02	4.1800000000E+00	0.000E+00	0.0
</event>
<event>
    11  -1  1.0000000E+00  1.0000000E+00  -1.0000000E+00  -1.0000000E+00
	2212	-1	0	0	0	0	0.0000000000E+00	0.0000000000E+00	6.5000000000E+03	6.5000000000E+03	9.3827000000E-01	0.000E+00	0.0
	2212	-1	0	0	0	0	0.0000000000E+00	0.0000000000E+00	-6.5000000000E+03	6.5000000000E+03	9.3827000000E-01	0.000E+00	0.0
	2212	1	0	0	0	0	0.0000000000E+00	0.0000000000E+00	6.3321775993E+03	6.3321775993E+03	9.3827000000E-01	0.000E+00	0.0
	2212	1	0	0	0	0	0.0000000000E+00	0.0000000000E+00	-4.8778472145E+03	4.8778472145E+03	9.3827000000E-01	0.000E+00	0.0
	51	2	1	2	0	0	2.8636566057E+01	9.9319575100E+01	-1.6040358980E+03	1.9163898070E+03	1.0435201480E+03	0.000E+00	0.0
	1000022	2	5	5	0	0	-2.8636566057E+01	-9.9319575100E+01	-1.0634108362E+03	1.3666767609E+03	8.5221964970E+02	0.000E+00	0.0
	14	1	6	6	0	0	-5.2790301327E+00	-2.4528646708E+02	-2.4865565035E+02	4.7712467086E+02	3.2500000000E+02	0.000E+00	0.0
	-14	1	6	6	0	0	-2.3357535925E+01	1.4596689198E+02	-8.1475518586E+02	8.8955209005E+02	3.2500000000E+02	0.000E+00	0.0
	25	2	5	5	0	0	2.8636566057E+01	9.9319575100E+01	-3.9091954853E+02	4.2329842531E+02	1.2521594364E+02	0.000E+00	0.0
	-5	1	9	9	0	501	2.6944952906E+01	-1.9212341503E+01	-3.5980460014E+01	4.9063331072E+01	4.1800000000E+00	0.000E+00	0.0
	5	1	9	9	501	0	1.6916131514E+00	1.1853191660E+02	-3.5493908851E+02	3.7423509424E+02	4.1800000000E+00	0.000E+00	0.0
</event>
<event>
    11  -1  1.0000000E+00  1.0000000E+00  -1.0000000E+00  -1.0000000E+00
	2212	-1	0	0	0	0	0.0000000000E+00	0.0000000000E+00	6.5000000000E+03	6.5000000000E+03	9.3827000000E-01	0.000E+00	0.0
	2212	-1	0	0	0	0	0.0000000000E+00	0.0000000000E+00	-6.5000000000E+03	6.5000000000E+03	9.3827000000E-01	0.000E+00	0.0
	2212	1	0	0	0	0	0.0000000000E+00	0.0000000000E+00	6.0200053078E+03	6.0200053078E+03	9.3827000000E-01	0.000E+00	0.0
	2212	1	0	0	0	0	0.0000000000E+00	0.0000000000E+00	-5.8928875548E+03	5.8928875548E+03	9.3827000000E-01	0.000E+00	0.0
	51	2	1	2	0	0	-9.2393279714E+00	1.8126408256E+01	-3.0235289614E+02	1.1213715757E+03	1.0796494825E+03	0.000E+00	0.0
	1000022	2	5	5	0	0	9.2393279714E+00	-1.8126408256E+01	7.1684453884E+01	8.5129789004E+02	8.4803036785E+02	0.000E+00	0.0
	14	1	6	6	0	0	-1.5895141686E+02	-6.9246572163E+01	2.4579863074E+02	4.4283474068E+02	3.2500000000E+02	0.000E+00	0.0
	-14	1	6	6	0	0	1.6819074483E+02	5.1120163907E+01	-1.7411417686E+02	4.0846314936E+02	3.2500000000E+02	0.000E+00	0.0
	25	2	5	5	0	0	-9.2393279714E+00	1.8126408256E+01	-1.9880220691E+02	2.3580924736E+02	1.2517887925E+02	0.000E+00	0.0
	-5	1	9	9	0	501	-6.1564365289E+01	2.8498247983E+01	-7.6608591140E+01	1.0241420726E+02	4.1800000000E+00	0.000E+00	0.0
	5	1	9	9	501	0	5.2325037318E+01	-1.0371839727E+01	-1.2219361577E+02	1.3339504011E+02	4.1800000000E+00	0.000E+00	0.0
</event>
<event>
    11  -1  1.0000000E+00  1.0000000E+00  -1.0000000E+00  -1.0000000E+00
	2212	-1	0	0	0	0	0.0000000000E+00	0.0000000000E+00	6.5000000000E+03	6.5000000000E+03	9.3827000000E-01	0.000E+00	0.0
	2212	-1	0	0	0	0	0.0000000000E+00	0.0000000000E+00	-6.5000000000E+03	6.5000000000E+03	9.3827000000E-01	0.000E+00	0.0
	2212	1	0	0	0	0	0.0000000000E+00	0.0000000000E+00	6.2602053843E+03	6.2602053843E+03	9.3827000000E-01	0.000E+00	0.0
	2212	1	0	0	0	0	0.0000000000E+00	0.0000000000E+00	-5.3965115509E+03	5.3965115509E+03	9.3827000000E-01	0.000E+00	0.0
	51	2	1	2	0	0	1.0013001269E+02	1.4205339852E+01	-9.3575175794E+02	1.3943821277E+03	1.0288062764E+03	0.000E+00	0.0
	1000022	2	5	5	0	0	-1.0013001269E+02	-1.4205339852E+01	-6.5509403400E+02	1.0798235787E+03	8.5243354963E+02	0.000E+00	0.0
	14	1	6	6	0	0	-1.7147756913E+02	1.6404907089E+02	-5.6167639056E+02	6.9095732291E+02	3.2500000000E+02	0.000E+00	0.0
	-14	1	6	6	0	0	7.1347556437E+01	-1.7825441074E+02	-9.3417643437E+01	3.8886625575E+02	3.2500000000E+02	0.000E+00	0.0
	25	2	5	5	0	0	1.0013001269E+02	1.4205339852E+01	-2.0859979935E+02	2.6345948614E+02	1.2517672876E+02	0.000E+00	0.0
	-5	1	9	9	0	501	1.1662155443E+02	1.0697110675E+01	-2.1506918334E+02	2.4492292901E+02	4.1800000000E+00	0.000E+00	0.0
	5	1	9	9	501	0	-1.6491541739E+01	3.5082291768E+00	6.4693839843E+00	1.8536557124E+01	4.1800000000E+00	0.000E+00	0.0
</event>
<event>
    11  -1  1.0000000E+00  1.0000000E+00  -1.0000000E+00  -1.0000000E+00
	2212	-1	0	0	0	0	0.0000000000E+00	0.0000000000E+00	6.5000000000E+03	6.5000000000E+03	9.3827000000E-01	0.000E+00	0.0
	2212	-1	0	0	0	0	0.0000000000E+00	0.0000000000E+00	-6.5000000000E+03	6.5000000000E+03	9.3827000000E-01	0.000E+00	0.0
	2212	1	0	0	0	0	0.0000000000E+00	0.0000000000E+00	5.6607670011E+03	5.6607670011E+03	9.3827000000E-01	0.000E+00	0.0
	2212	1	0	0	0	0	0.0000000000E+00	0.0000000000E+00	-6.1688519539E+03	6.1688519539E+03	9.3827000000E-01	0.000E+00	0.0
	51	2	1	2	0	0	9.0740194830E+01	6.8156098867E+01	3.9271479337E+02	1.1308162613E+03	1.0543440952E+03	0.000E+00	0.0
	1000022	2	5	5	0	0	-9.0740194830E+01	-6.8156098867E+01	5.3219382569E+02	9.9972413363E+02	8.3865310975E+02	0.000E+00	0.0
	14	1	6	6	0	0	-4.3047823520E+01	-2.9802167621E+02	3.1627740847E+02	5.4435873623E+02	3.2500000000E+02	0.000E+00	0.0
	-14	1	6	6	0	0	-4.7692371311E+01	2.2986557734E+02	2.1591641723E+02	4.5536539741E+02	3.2500000000E+02	0.000E+00	0.0
	25	2	5	5	0	0	9.0740194830E+01	6.8156098867E+01	-2.4108872860E+01	1.7065691130E+02	1.2515393264E+02	0.000E+00	0.0
	-5	1	9	9	0	501	1.0088125314E+02	1.1583861278E+01	-4.2512823604E+01	1.1016363124E+02	4.1800000000E+00	0.000E+00	0.0
	5	1	9	9	501	0	-1.0141058312E+01	5.6572237589E+01	1.8403950744E+01	6.0493280061E+01	4.1800000000E+00	0.000E+00	0.0
</event>
<event>
    11  -1  1.0000000E+00  1.0000000E+00  -1.0000000E+00  -1.0000000E+00
	2212	-1	0	0	0	0	0.0000000000E+00	0.0000000000E+00	6.5000000000E+03	6.5000000000E+03	9.3827000000E-01	0.000E+00	0.0
	2212	-1	0	0	0	0	0.0000000000E+00	0.0000000000E+00	-6.5000000000E+03	6.5000000000E+03	9.3827000000E-01	0.000E+00	0.0
	2212	1	0	0	0	0	0.0000000000E+00	0.0000000000E+00	5.1333218683E+03	5.1333218683E+03	9.3827000000E-01	0.000E+00	0.0
	2212	1	0	0	0	0	0.0000000000E+00	0.0000000000E+00	-6.2988586296E+03	6.2988586296E+03	9.3827000000E-01	0.000E+00	0.0
	51	2	1	2	0	0	1.2611798267E+02	-3.1385036691E+01	1.2415258159E+03	1.6302941965E+03	1.0486095791E+03	0.000E+00	0.0
	1000022	2	5	5	0	0	-1.2611798267E+02	3.1385036691E+01	8.9300670144E+02	1.2409680578E+03	8.5185091748E+02	0.000E+00	0.0
	14	1	6	6	0	0	9.2544846060E+00	-9.4909881948E+01	8.2924898963E+01	3.4870484660E+02	3.2500000000E+02	0.000E+00	0.0
	-14	1	6	6	0	0	-1.3537246727E+02	1.2629491864E+02	8.1008180248E+02	8.9226321121E+02	3.2500000000E+02	0.000E+00	0.0
	25	2	5	5	0	0	1.2611798267E+02	-3.1385036691E+01	2.7253005985E+02	3.2685144432E+02	1.2517374745E+02	0.000E+00	0.0
	-5	1	9	9	0	501	-2.3155493598E+01	8.8420783367E+00	4.8458991860E+01	5.4590342783E+01	4.1800000000E+00	0.000E+00	0.0
	5	1	9	9	501	0	1.4927347627E+02	-4.0227115027E+01	2.2407106798E+02	2.7226110153E+02	4.1800000000E+00	0.000E+00	0.0
</event>
<event>
    11  -1  1.0000000E+00  1.0000000E+00  -1.0000000E+00  -1.0000000E+00
	2212	-1	0	0	0	0	0.0000000000E+00	0.0000000000E+00	6.5000000000E+03	6.5000000000E+03	9.3827000000E-01	0.000E+00	0.0
	2212	-1	0	0	0	0	0.0000000000E+00	0.0000000000E+00	-6.5000000000E+03	6.5000000000E+03	9.3827000000E-01	0.000E+00	0.0
	2212	1	0	0	0	0	0.0000000000E+00	0.0000000000E+00	6.2306351487E+03	6.2306351487E+03	9.3827000000E-01	0.000E+00	0.0
	2212	1	0	0	0	0	0.0000000000E+00	0.0000000000E+00	-5.4870048587E+03	5.4870048587E+03	9.3827000000E-01	0.000E+00	0.0
	51	2	1	2	0	0	-6.6882311769E+01	4.1646951403E+01	-8.7288721273E+02	1.3636718596E+03	1.0447301768E+03	0.000E+00	0.0
	1000022	2	5	5	0	0	6.6882311769E+01	-4.1646951403E+01	-4.9253519778E+02	9.9094318994E+02	8.5625333427E+02	0.000E+00	0.0
	14	1	6	6	0	0	-1.1541353155E+02	2.4962214059E+01	-5.0518212028E+02	6.1219063211E+02	3.2500000000E+02	0.000E+00	0.0
	-14	1	6	6	0	0	1.8229584332E+02	-6.6609165462E+01	1.2646922498E+01	3.7875255783E+02	3.2500000000E+02	0.000E+00	0.0
	25	2	5	5	0	0	-6.6882311769E+01	4.1646951403E+01	-2.5109509225E+02	2.9141680263E+02	1.2516906691E+02	0.000E+00	0.0
	-5	1	9	9	0	501	-4.0087090738E+01	-6.1142572203E+00	-7.1782045043E+00	4.1392728891E+01	4.1800000000E+00	0.000E+00	0.0
	5	1	9	9	501	0	-2.6795221032E+01	4.7761208623E+01	-2.4391688775E+02	2.5002407374E+02	4.1800000000E+00	0.000E+00	0.0
</event>
<event>
    11  -1  1.0000000E+00  1.0000000E+00  -1.0000000E+00  -1.0000000E+00
	2212	-1	0	0	0	0	0.0000000000E+00	0.0000000000E+00	6.5000000000E+03	6.5000000000E+03	9.3827000000E-01	0.000E+00	0.0
	2212	-1	0	0	0	0	0.0000000000E+00	0.0000000000E+00	-6.5000000000E+03	6.5000000000E+03	9.3827000000E-01	0.000E+00	0.0
	2212	1	0	0	0	0	0.0000000000E+00	0.0000000000E+00	6.2703482113E+03	6.2703482113E+03	9.3827000000E-01	0.000E+00	0.0
	2212	1	0	0	0	0	0.0000000000E+00	0.0000000000E+00	-5.2924788198E+03	5.2924788198E+03	9.3827000000E-01	0.000E+00	0.0
	51	2	1	2	0	0	-4.5425490005E+01	6.7230576280E+01	-8.6367798705E+02	1.3644635161E+03	1.0532034921E+03	0.000E+00	0.0
	1000022	2	5	5	0	0	4.5425490005E+01	-6.7230576280E+01	-9.3741959281E+02	1.2826065107E+03	8.7163096702E+02	0.000E+00	0.0
	14	1	6	6	0	0	-1.5986864246E+02	-4.0357669102E+01	-1.2820834451E+02	3.8632771568E+02	3.2500000000E+02	0.000E+00	0.0
	-14	1	6	6	0	0	2.0529413246E+02	-2.6872907178E+01	-8.0921124830E+02	8.9627879499E+02	3.2500000000E+02	0.000E+00	0.0
	25	2	5	5	0	0	-4.5425490005E+01	6.7230576280E+01	-4.0449798628E+01	1.5456645824E+02	1.2518457682E+02	0.000E+00	0.0
	-5	1	9	9	0	501	-7.3330851828E+01	4.9053535919E+01	-6.7738209411E+01	1.1130858291E+02	4.1800000000E+00	0.000E+00	0.0
	5	1	9	9	501	0	2.7905361822E+01	1.8177040360E+01	2.7288410783E+01	4.3257875327E+01	4.1800000000E+00	0.000E+00	0.0
</event>
<event>
    11  -1  1.0000000E+00  1.0000000E+00  -1.0000000E+00  -1.0000000E+00
	2212	-1	0	0	0	0	0.0000000000E+00	0.0000000000E+00	6.5000000000E+03	6.5000000000E+03	9.3827000000E-01	0.000E+00	0.0
	2212	-1	0	0	0	0	0.0000000000E+00	0.0000000000E+00	-6.5000000000E+03	6.5000000000E+03	9.3827000000E-01	0.000E+00	0.0
	2212	1	0	0	0	0	0.0000000000E+00	0.0000000000E+00	6.2929548644E+03	6.2929548644E+03	9.3827000000E-01	0.000E+00	0.0
	2212	1	0	0	0	0	0.0000000000E+00	0.0000000000E+00	-5.0715094231E+03	5.0715094231E+03	9.3827000000E-01	0.000E+00	0.0
	51	2	1	2	0	0	1.6123798808E+02	6.6140840498E+01	-1.1884770986E+03	1.6204623458E+03	1.0876801464E+03	0.000E+00	0.0
	1000022	2	5	5	0	0	-1.6123798808E+02	-6.6140840498E+01	-1.0267999096E+03	1.3458303248E+03	8.5239011558E+02	0.000E+00	0.0
	14	1	6	6	0	0	-2.6285796256E+01	-2.6967681740E+02	-7.2529406519E+02	8.3969816596E+02	3.2500000000E+02	0.000E+00	0.0
	-14	1	6	6	0	0	-1.3495219182E+02	2.0353597690E+02	-3.0150584444E+02	5.0613215883E+02	3.2500000000E+02	0.000E+00	0.0
	25	2	5	5	0	0	1.6123798808E+02	6.6140840498E+01	-1.9464553162E+02	2.8970538768E+02	1.2517998677E+02	0.000E+00	0.0
	-5	1	9	9	0	501	1.1678557439E+02	1.8302709799E+01	-4.5317158204E+01	1.2666876805E+02	4.1800000000E+00	0.000E+00	0.0
	5	1	9	9	501	0	4.4452413688E+01	4.7838130699E+01	-1.4932837342E+02	1.6303661963E+02	4.1800000000E+00	0.000E+00	0.0
</event>
<event>
    11  -1  1.0000000E+00  1.0000000E+00  -1.0000000E+00  -1.0000000E+00
	2212	-1	0	0	0	0	0.0000000000E+00	0.0000000000E+00	6.5000000000E+03	6.5000000000E+03	9.3827000000E-01	0.000E+00	0.0
	2212	-1	0	0	0	0	0.0000000000E+00	0.0000000000E+00	-6.5000000000E+03	6.5000000000E+03	9.3827000000E-01	0.000E+00	0.0
	2212	1	0	0	0	0	0.0000000000E+00	0.0000000000E+00	5.6000815539E+03	5.6000815539E+03	9.3827000000E-01	0.000E+00	0.0
	2212	1	0	0	0	0	0.0000000000E+00	0.0000000000E+00	-6.1567110924E+03	6.1567110924E+03	9.3827000000E-01	0.000E+00	0.0
	51	2	1	2	0	0	4.9048862287E+01	-5.5390025637E+01	3.5156104756E+02	1.1682453070E+03	1.1116330695E+03	0.000E+00	0.0
	1000022	2	5	5	0	0	-4.9048862287E+01	5.5390025637E+01	6.5061473147E+02	1.0700697877E+03	8.4633089032E+02	0.000E+00	0.0
	14	1	6	6	0	0	-1.5021623902E+02	2.3096246748E+02	1.7800670263E+02	4.6175747534E+02	3.2500000000E+02	0.000E+00	0.0
	-14	1	6	6	0	0	1.0116737674E+02	-1.7557244184E+02	4.7260802884E+02	6.0831231236E+02	3.2500000000E+02	0.000E+00	0.0
	25	2	5	5	0	0	4.9048862287E+01	-5.5390025637E+01	-9.3985192930E+01	1.7313756605E+02	1.2517809096E+02	0.000E+00	0.0
	-5	1	9	9	0	501	-2.4069218318E+01	-2.4010948947E+01	1.5607862771E+01	3.7642140216E+01	4.1800000000E+00	0.000E+00	0.0
	5	1	9	9	501	0	7.3118080605E+01	-3.1379076690E+01	-1.0959305570E+02	1.3549542584E+02	4.1800000000E+00	0.000E+00	0.0
</event>
<event>
    11  -1  1.0000000E+00  1.0000000E+00  -1.0000000E+00  -1.0000000E+00
	2212	-1	0	0	0	0	0.0000000000E+00	0.0000000000E+00	6.5000000000E+03	6.5000000000E+03	9.3827000000E-01	0.000E+00	0.0
	2212	-1	0	0	0	0	0.0000000000E+00	0.0000000000E+00	-6.5000000000E+03	6.5000000000E+03	9.3827000000E-01	0.000E+00	0.0
	2212	1	0	0	0	0	0.0000000000E+00	0.0000000000E+00	5.4125279782E+03	5.4125279782E+03	9.3827000000E-01	0.000E+00	0.0
	2212	1	0	0	0	0	0.0000000000E+00	0.0000000000E+00	-6.2189219592E+03	6.2189219592E+03	9.3827000000E-01	0.000E+00	0.0
	51	2	1	2	0	0	-2.4300706128E+01	1.8234862318E+02	7.2047532401E+02	1.3325105097E+03	1.1057386768E+03	0.000E+00	0.0
	1000022	2	5	5	0	0	2.4300706128E+01	-1.8234862318E+02	7.3302425015E+02	1.1342575716E+03	8.4579793254E+02	0.000E+00	0.0
	14	1	6	6	0	0	-1.8447729236E+02	8.8772443479E+01	2.4622204778E+02	4.5624852321E+02	3.2500000000E+02	0.000E+00	0.0
	-14	1	6	6	0	0	2.0877799849E+02	-2.7112106665E+02	4.8680220237E+02	6.7800904837E+02	3.2500000000E+02	0.000E+00	0.0
	25	2	5	5	0	0	-2.4300706128E+01	1.8234862318E+02	7.3369730826E+01	2.3429249104E+02	1.2517311717E+02	0.000E+00	0.0
	-5	1	9	9	0	501	-7.9117311054E+00	1.9126549993E+02	3.9661729507E+01	1.9553928541E+02	4.1800000000E+00	0.000E+00	0.0
	5	1	9	9	501	0	-1.6388975023E+01	-8.9168767500E+00	3.3708001319E+01	3.8753205625E+01	4.1800000000E+00	0.000E+00	0.0
</event>
<event>
    11  -1  1.0000000E+00  1.0000000E+00  -1.0000000E+00  -1.0000000E+00
	2212	-1	0	0	0	0	0.0000000000E+00	0.0000000000E+00	6.5000000000E+03	6.5000000000E+03	9.3827000000E-01	0.000E+00	0.0
	2212	-1	0	0	0	0	0.0000000000E+00	0.0000000000E+00	-6.5000000000E+03	6.5000000000E+03	9.3827000000E-01	0.000E+00	0.0
	2212	1	0	0	0	0	0.0000000000E+00	0.0000000000E+00	6.1662559587E+03	6.1662559587E+03	9.3827000000E-01	0.000E+00	0.0
	2212	1	0	0	0	0	0.0000000000E+00	0.0000000000E+00	-5.7247858126E+03	5.7247858126E+03	9.3827000000E-01	0.000E+00	0.0
	51	2	1	2	0	0	1.1161013023E+02	-5.0967451518E+01	-4.6238405542E+02	1.1241645698E+03	1.0172966446E+03	0.000E+00	0.0
	1000022	2	5	5	0	0	-1.1161013023E+02	5.0967451518E+01	-3.4742060325E+02	9.1003762403E+02	8.3211351347E+02	0.000E+00	0.0
	14	1	6	6	0	0	6.1290297030E+01	2.5130480068E+02	-1.1594749547E+02	4.3125331890E+02	3.2500000000E+02	0.000E+00	0.0
	-14	1	6	6	0	0	-1.7290042726E+02	-2.0033734916E+02	-2.3147310778E+02	4.7878430513E+02	3.2500000000E+02	0.000E+00	0.0
	25	2	5	5	0	0	1.1161013023E+02	-5.0967451518E+01	-9.4049542926E+01	1.9892060467E+02	1.2517822555E+02	0.000E+00	0.0
	-5	1	9	9	0	501	4.9125625524E+01	-2.4564729467E+00	2.5458523445E+01	5.5542507672E+01	4.1800000000E+00	0.000E+00	0.0
	5	1	9	9	501	0	6.2484504706E+01	-4.8510978571E+01	-1.1950806637E+02	1.4337809700E+02	4.1800000000E+00	0.000E+00	0.0
</event>
<event>
    11  -1  1.0000000E+00  1.0000000E+00  -1.0000000E+00  -1.0000000E+00
	2212	-1	0	0	0	0	0.0000000000E+00	0.0000000000E+00	6.5000000000E+03	6.5000000000E+03	9.3827000000E-01	0.000E+00	0.0
	2212	-1	0	0	0	0	0.0000000000E+00	0.0000000000E+00	-6.5000000000E+03	6.5000000000E+03	9.3827000000E-01	0.000E+00	0.0
	2212	1	0	0	0	0	0.0000000000E+00	0.0000000000E+00	5.7094780758E+03	5.7094780758E+03	9.3827000000E-01	0.000E+00	0.0
	2212	1	0	0	0	0	0.0000000000E+00	0.0000000000E+00	-6.1604455665E+03	6.1604455665E+03	9.3827000000E-01	0.000E+00	0.0
	51	2	1	2	0	0	-5.8556261775E+01	-4.4115407659E+01	3.3774487410E+02	1.0923129137E+03	1.0361953949E+03	0.000E+00	0.0
	1000022	2	5	5	0	0	5.8556261775E+01	4.4115407659E+01	4.8924944523E+02	9.8004650804E+02	8.4602076409E+02	0.000E+00	0.0
	14	1	6	6	0	0	2.5471055303E+02	1.5456040590E+02	1.7243199687E+02	4.7341755190E+02	3.2500000000E+02	0.000E+00	0.0
	-14	1	6	6	0	0	-1.9615429126E+02	-1.1044499824E+02	3.1681744836E+02	5.0662895614E+02	3.2500000000E+02	0.000E+00	0.0
	25	2	5	5	0	0	-5.8556261775E+01	-4.4115407659E+01	-3.8281954558E+01	1.5002984963E+02	1.2517365037E+02	0.000E+00	0.0
	-5	1	9	9	0	501	2.0071299400E+01	-2.1728502363E+01	3.0806277852E+01	4.2912516002E+01	4.1800000000E+00	0.000E+00	0.0
	5	1	9	9	501	0	-7.8627561175E+01	-2.2386905297E+01	-6.9088232410E+01	1.0711733362E+02	4.1800000000E+00	0.000E+00	0.0
</event>
<event>
    11  -1  1.0000000E+00  1.0000000E+00  -1.0000000E+00  -1.0000000E+00
	2212	-1	0	0	0	0	0.0000000000E+00	0.0000000000E+00	6.5000000000E+03	6.5000000000E+03	9.3827000000E-01	0.000E+00	0.0
	2212	-1	0	0	0	0	0.0000000000E+00	0.0000000000E+00	-6.5000000000E+03	6.5000000000E+03	9.3827000000E-01	0.000E+00	0.0
	2212	1	0	0	0	0	0.0000000000E+00	0.0000000000E+00	6.0743813500E+03	6.0743813500E+03	9.3827000000E-01	0.000E+00	0.0
	2212	1	0	0	0	0	0.0000000000E+00	0.0000000000E+00	-5.8580336556E+03	5.8580336556E+03	9.3827000000E-01	0.000E+00	0.0
	51	2	1	2	0	0	6.3349129982E+01	1.2375728392E+02	-2.5986492670E+02	1.0861814550E+03	1.0454335921E+03	0.000E+00	0.0
	1000022	2	5	5	0	0	-6.3349129982E+01	-1.2375728392E+02	-1.3528096979E+02	8.6369756210E+02	8.4163148729E+02	0.000E+00	0.0
	14	1	6	6	0	0	-1.3171834296E+02	-1.1164762695E+02	1.7636612410E+02	4.0809915977E+02	3.2500000000E+02	0.000E+00	0.0
	-14	1	6	6	0	0	6.8369212978E+01	-1.2109656965E+01	-3.1164709389E+02	4.5559840233E+02	3.2500000000E+02	0.000E+00	0.0
	25	2	5	5	0	0	6.3349129982E+01	1.2375728392E+02	-8.1066724609E+01	2.0388743233E+02	1.2517704914E+02	0.000E+00	0.0
	-5	1	9	9	0	501	8.5409136698E+01	3.0232250713E+01	-3.4664411147E+01	9.7096876442E+01	4.1800000000E+00	0.000E+00	0.0
	5	1	9	9	501	0	-2.2060006716E+01	9.3525033203E+01	-4.6402313462E+01	1.0679055589E+02	4.1800000000E+00	0.000E+00	0.0
</event>
<event>
    11  -1  1.0000000E+00  1.0000000E+00  -1.0000000E+00  -1.0000000E+00
	2212	-1	0	0	0	0	0.0000000000E+00	0.0000000000E+00	6.5000000000E+03	6.5000000000E+03	9.3827000000E-01	0.000E+00	0.0
	2212	-1	0	0	0	0	0.0000000000E+00	0.0000000000E+00	-6.5000000000E+03	6.5000000000E+03	9.3827000000E-01	0.000E+00	0.0
	2212	1	0	0	0	0	0.0000000000E+00	0.0000000000E+00	6.1450621832E+03	6.1450621832E+03	9.3827000000E-01	0.000E+00	0.0
	2212	1	0	0	0	0	0.0000000000E+00	0.0000000000E+00	-5.7368555415E+03	5.7368555415E+03	9.3827000000E-01	0.000E+00	0.0
	51	2	1	2	0	0	1.1384373125E+01	-1.4738081367E+02	-4.1704724214E+02	1.1310413001E+03	1.0409012019E+03	0.000E+00	0.0
	1000022	2	5	5	0	0	-1.1384373125E+01	1.4738081367E+02	-3.2748500612E+02	9.0824034113E+02	8.3414829607E+02	0.000E+00	0.0
	14	1	6	6	0	0	1.5050027036E+02	2.3673538963E+02	-2.9912689569E+01	4.3036466523E+02	3.2500000000E+02	0.000E+00	0.0
	-14	1	6	6	0	0	-1.6188464349E+02	-8.9354575964E+01	-2.9757231655E+02	4.7787567590E+02	3.2500000000E+02	0.000E+00	0.0
	25	2	5	5	0	0	1.1384373125E+01	-1.4738081367E+02	-8.0721635555E+01	2.0984193418E+02	1.2516767436E+02	0.000E+00	0.0
	-5	1	9	9	0	501	-3.0060829233E+00	-7.8994690276E+01	-1.0868211302E+02	1.3445620743E+02	4.1800000000E+00	0.000E+00	0.0
	5	1	9	9	501	0	1.4390456049E+01	-6.8386123390E+01	2.7960477463E+01	7.5385726750E+01	4.1800000000E+00	0.000E+00	0.0
</event>
<event>
    11  -1  1.0000000E+00  1.0000000E+00  -1.0000000E+00  -1.0000000E+00
	2212	-1	0	0	0	0	0.0000000000E+00	0.0000000000E+00	6.5000000000E+03	6.5000000000E+03	9.3827000000E-01	0.000E+00	0.0
	2212	-1	0	0	0	0	0.0000000000E+00	0.0000000000E+00	-6.5000000000E+03	6.5000000000E+03	9.3827000000E-01	0.000E+00	0.0
	2212	1	0	0	0	0	0.0000000000E+00	0.0000000000E+00	4.9244800775E+03	4.9244800775E+03	9.3827000000E-01	0.000E+00	0.0
	2212	1	0	0	0	0	0.0000000000E+00	0.0000000000E+00	-6.3235464065E+03	6.3235464065E+03	9.3827000000E-01	0.000E+00	0.0
	51	2	1	2	0	0	-1.3841181530E+02	1.6041253800E+01	1.3423237269E+03	1.7126799900E+03	1.0545257740E+03	0.000E+00	0.0
	1000022	2	5	5	0	0	1.3841181530E+02	-1.6041253800E+01	1.2143584046E+03	1.4889118791E+03	8.5016298229E+02	0.000E+00	0.0
	14	1	6	6	0	0	-1.4019751966E+02	1.1304697810E+02	7.8748682425E+02	8.7074420018E+02	3.2500000000E+02	0.000E+00	0.0
	-14	1	6	6	0	0	2.7860933496E+02	-1.2908823190E+02	4.2687158030E+02	6.1816767888E+02	3.2500000000E+02	0.000E+00	0.0
	25	2	5	5	0	0	-1.3841181530E+02	1.6041253800E+01	1.8470792445E+02	2.6306163698E+02	1.2517689507E+02	0.000E+00	0.0
	-5	1	9	9	0	501	-1.1188670462E+02	-2.2698650751E+01	5.8522424072E+01	1.2835968968E+02	4.1800000000E+00	0.000E+00	0.0
	5	1	9	9	501	0	-2.6525110685E+01	3.8739904551E+01	1.2618550038E+02	1.3470194730E+02	4.1800000000E+00	0.000E+00	0.0
</event>
<event>
    11  -1  1.0000000E+00  1.0000000E+00  -1.0000000E+00  -1.0000000E+00
	2212	-1	0	0	0	0	0.0000000000E+00	0.0000000000E+00	6.5000000000E+03	6.5000000000E+03	9.3827000000E-01	0.000E+00	0.0
	2212	-1	0	0	0	0	0.0000000000E+00	0.0000000000E+00	-6.5000000000E+03	6.5000000000E+03	9.3827000000E-01	0.000E+00	0.0
	2212	1	0	0	0	0	0.0000000000E+00	0.0000000000E+00	5.4008784690E+03	5.4008784690E+03	9.3827000000E-01	0.000E+00	0.0
	2212	1	0	0	0	0	0.0000000000E+00	0.0000000000E+00	-6.2501786747E+03	6.2501786747E+03	9.3827000000E-01	0.000E+00	0.0
	51	2	1	2	0	0	-1.4090907755E+01	-1.1680345447E+02	8.5361057763E+02	1.3567713916E+03	1.0480152624E+03	0.000E+00	0.0
	1000022	2	5	5	0	0	1.4090907755E+01	1.1680345447E+02	7.1110376020E+02	1.1284631745E+03	8.6828507859E+02	0.000E+00	0.0
	14	1	6	6	0	0	1.9389425335E+02	5.5834339053E+01	7.5721191982E+01	3.8996301596E+02	3.2500000000E+02	0.000E+00	0.0
	-14	1	6	6	0	0	-1.7980334560E+02	6.0969115419E+01	6.3538256822E+02	7.3850015851E+02	3.2500000000E+02	0.000E+00	0.0
	25	2	5	5	0	0	-1.4090907755E+01	-1.1680345447E+02	1.3819644551E+02	2.2047968186E+02	1.2518558985E+02	0.000E+00	0.0
	-5	1	9	9	0	501	1.4894829506E+01	-8.5095506909E+01	1.2263842311E+01	8.7355454726E+01	4.1800000000E+00	0.000E+00	0.0
	5	1	9	9	501	0	-2.8985737261E+01	-3.1707947563E+01	1.2593260320E+02	1.3312422714E+02	4.1800000000E+00	0.000E+00	0.0
</event>
<event>
    11  -1  1.0000000E+00  1.0000000E+00  -1.0000000E+00  -1.0000000E+00
	2212	-1	0	0	0	0	0.0000000000E+00	0.0000000000E+00	6.5000000000E+03	6.5000000000E+03	9.3827000000E-01	0.000E+00	0.0
	2212	-1	0	0	0	0	0.0000000000E+00	0.0000000000E+00	-6.5000000000E+03	6.5000000000E+03	9.3827000000E-01	0.000E+00	0.0
	2212	1	0	0	0	0	0.0000000000E+00	0.0000000000E+00	5.8539160768E+03	5.8539160768E+03	9.3827000000E-01	0.000E+00	0.0
	2212	1	0	0	0	0	0.0000000000E+00	0.0000000000E+00	-6.0653426329E+03	6.0653426329E+03	9.3827000000E-01	0.000E+00	0.0
	51	2	1	2	0	0	1.2609933311E+02	-1.4492173516E+01	2.7960665699E+02	1.1034452844E+03	1.0598587397E+03	0.000E+00	0.0
	1000022	2	5	5	0	0	-1.2609933311E+02	1.4492173516E+01	1.0729942383E+02	8.7428818832E+02	8.5834468891E+02	0.000E+00	0.0
	14	1	6	6	0	0	-2.6090621458E+02	1.9981073202E+02	1.1599005178E+02	4.7652394856E+02	3.2500000000E+02	0.000E+00	0.0
	-14	1	6	6	0	0	1.3480688147E+02	-1.8531855850E+02	-8.6906279484E+00	3.9776423976E+02	3.2500000000E+02	0.000E+00	0.0
	25	2	5	5	0	0	1.2609933311E+02	-1.4492173516E+01	1.0412713228E+02	2.0645310207E+02	1.2517730934E+02	0.000E+00	0.0
	-5	1	9	9	0	501	-2.8070398959E-02	-4.6876136157E+01	3.7161521691E+01	5.9965190096E+01	4.1800000000E+00	0.000E+00	0.0
	5	1	9	9	501	0	1.2612740351E+02	3.2383962641E+01	6.6965610593E+01	1.4648791197E+02	4.1800000000E+00	0.000E+00	0.0
</event>
<event>
    11  -1  1.0000000E+00  1.0000000E+00  -1.0000000E+00  -1.0000000E+00
	2212	-1	0	0	0	0	0.0000000000E+00	0.0000000000E+00	6.5000000000E+03	6.5000000000E+03	9.3827000000E-01	0.000E+00	0.0
	2212	-1	0	0	0	0	0.0000000000E+00	0.0000000000E+00	-6.5000000000E+03	6.5000000000E+03	9.3827000000E-01	0.000E+00	0.0
	2212	1	0	0	0	0	0.0000000000E+00	0.0000000000E+00	4.8674417917E+03	4.8674417917E+03	9.3827000000E-01	0.000E+00	0.0
	2212	1	0	0	0	0	0.0000000000E+00	0.0000000000E+00	-6.3355236832E+03	6.3355236832E+03	9.3827000000E-01	0.000E+00	0.0
	51	2	1	2	0	0	6.8084191950E+01	-7.7809989376E+01	1.4129349853E+03	1.7553187085E+03	1.0363728306E+03	0.000E+00	0.0
	1000022	2	5	5	0	0	-6.8084191950E+01	7.7809989376E+01	1.2956924465E+03	1.5602299939E+03	8.6302309726E+02	0.000E+00	0.0
	14	1	6	6	0	0	1.4506974680E+01	2.5962540770E+01	1.3887721411E+02	3.5467786291E+02	3.2500000000E+02	0.000E+00	0.0
	-14	1	6	6	0	0	-8.2591166630E+01	5.1847448606E+01	1.1568152324E+03	1.2055521310E+03	3.2500000000E+02	0.000E+00	0.0
	25	2	5	5	0	0	6.8084191950E+01	-7.7809989376E+01	1.7238944504E+02	2.3680453115E+02	1.2517353384E+02	0.000E+00	0.0
	-5	1	9	9	0	501	7.4682115392E+01	-1.0819015300E+01	3.4036786472E+01	8.2888145623E+01	4.1800000000E+00	0.000E+00	0.0
	5	1	9	9	501	0	-6.5979234422E+00	-6.6990974077E+01	1.3835265857E+02	1.5391638553E+02	4.1800000000E+00	0.000E+00	0.0
</event>
<event>
    11  -1  1.0000000E+00  1.0000000E+00  -1.0000000E+00  -1.0000000E+00
	2212	-1	0	0	0	0	0.0000000000E+00	0.0000000000E+00	6.5000000000E+03	6.5000000000E+03	9.3827000000E-01	0.000E+00	0.0
	2212	-1	0	0	0	0	0.0000000000E+00	0.0000000000E+00	-6.5000000000E+03	6.5000000000E+03	9.3827000000E-01	0.000E+00	0.0
	2212	1	0	0	0	0	0.0000000000E+00	0.0000000000E+00	5.9249028213E+03	5.9249028213E+03	9.3827000000E-01	0.000E+00	0.0
	2212	1	0	0	0	0	0.0000000000E+00	0.0000000000E+00	-6.0112928397E+03	6.0112928397E+03	9.3827000000E-01	0.000E+00	0.0
	51	2	1	2	0	0	-1.3036113496E+02	1.2565477372E+01	1.7457258980E+02	1.0825174097E+03	1.0602907320E+03	0.000E+00	0.0
	1000022	2	5	5	0	0	1.3036113496E+02	-1.2565477372E+01	-1.7220409505E+01	8.5511306111E+02	8.4484903270E+02	0.000E+00	0.0
	14	1	6	6	0	0	3.2800255304E+02	-7.2325464399E+01	2.3206865525E+01	4.6795320943E+02	3.2500000000E+02	0.000E+00	0.0
	-14	1	6	6	0	0	-1.9764141808E+02	5.9759987028E+01	-4.0427275030E+01	3.8715985169E+02	3.2500000000E+02	0.000E+00	0.0
	25	2	5	5	0	0	-1.3036113496E+02	1.2565477372E+01	1.0361042797E+02	2.0869127790E+02	1.2515994550E+02	0.000E+00	0.0
	-5	1	9	9	0	501	-4.8588411431E+00	-4.2239741436E+01	3.6189187928E+01	5.5990479697E+01	4.1800000000E+00	0.000E+00	0.0
	5	1	9	9	501	0	-1.2550229382E+02	5.4805218808E+01	6.7421240040E+01	1.5270079820E+02	4.1800000000E+00	0.000E+00	0.0
</event>
<event>
    11  -1  1.0000000E+00  1.0000000E+00  -1.0000000E+00  -1.0000000E+00
	2212	-1	0	0	0	0	0.0000000000E+00	0.0000000000E+00	6.5000000000E+03	6.5000000000E+03	9.3827000000E-01	0.000E+00	0.0
	2212	-1	0	0	0	0	0.0000000000E+00	0.0000000000E+00	-6.5000000000E+03	6.5000000000E+03	9.3827000000E-01	0.000E+00	0.0
	2212	1	0	0	0	0	0.0000000000E+00	0.0000000000E+00	5.9478910259E+03	5.9478910259E+03	9.3827000000E-01	0.000E+00	0.0
	2212	1	0	0	0	0	0.0000000000E+00	0.0000000000E+00	-6.0029503396E+03	6.0029503396E+03	9.3827000000E-01	0.000E+00	0.0
	51	2	1	2	0	0	-1.0065445228E+02	-5.9475379823E+01	1.1765616810E+02	1.0607610126E+03	1.0477128959E+03	0.000E+00	0.0
	1000022	2	5	5	0	0	1.0065445228E+02	5.9475379823E+01	-1.6674451889E+01	8.6345184488E+02	8.5533760090E+02	0.000E+00	0.0
	14	1	6	6	0	0	2.3734973417E+02	1.6776260670E+02	-1.6462430610E+02	4.6605294836E+02	3.2500000000E+02	0.000E+00	0.0
	-14	1	6	6	0	0	-1.3669528189E+02	-1.0828722687E+02	1.4794985421E+02	3.9739889652E+02	3.2500000000E+02	0.000E+00	0.0
	25	2	5	5	0	0	-1.0065445228E+02	-5.9475379823E+01	7.1733765663E+01	1.8570678962E+02	1.2519041100E+02	0.000E+00	0.0
	-5	1	9	9	0	501	-7.9015629508E+01	-9.8445292306E+01	4.8780154737E+01	1.3539542526E+02	4.1800000000E+00	0.000E+00	0.0
	5	1	9	9	501	0	-2.1638822768E+01	3.8969912483E+01	2.2953610926E+01	5.0311364365E+01	4.1800000000E+00	0.000E+00	0.0
</event>
<event>
    11  -1  1.0000000E+00  1.0000000E+00  -1.0000000E+00  -1.0000000E+00
	2212	-1	0	0	0	0	0.0000000000E+00	0.0000000000E+00	6.5000000000E+03	6.5000000000E+03	9.3827000000E-01	0.000E+00	0.0
	2212	-1	0	0	0	0	0.0000000000E+00	0.0000000000E+00	-6.5000000000E+03	6.5000000000E+03	9.3827000000E-01	0.000E+00	0.0
	2212	1	0	0	0	0	0.0000000000E+00	0.0000000000E+00	6.2988720089E+03	6.2988720089E+03	9.3827000000E-01	0.000E+00	0.0
	2212	1	0	0	0	0	0.0000000000E+00	0.0000000000E+00	-5.1180391461E+03	5.1180391461E+03	9.3827000000E-01	0.000E+00	0.0
	51	2	1	2	0	0	-6.9502350075E+01	-1.0289559621E+02	-1.3060495484E+03	1.6831481053E+03	1.0544211877E+03	0.000E+00	0.0
	1000022	2	5	5	0	0	6.9502350075E+01	1.0289559621E+02	-8.5181552760E+02	1.2098033346E+03	8.5006842951E+02	0.000E+00	0.0
	14	1	6	6	0	0	1.4022218234E+02	2.7946622098E+02	-6.2322532999E+02	7.6928436941E+02	3.2500000000E+02	0.000E+00	0.0
	-14	1	6	6	0	0	-7.0719832266E+01	-1.7657062476E+02	-2.2859019762E+02	4.4051896514E+02	3.2500000000E+02	0.000E+00	0.0
	25	2	5	5	0	0	-6.9502350075E+01	-1.0289559621E+02	-3.2901733525E+02	3.7328551043E+02	1.2518620139E+02	0.000E+00	0.0
	-5	1	9	9	0	501	1.0269415330E+01	9.5434412714E+00	-1.3188064872E+02	1.3268954771E+02	4.1800000000E+00	0.000E+00	0.0
	5	1	9	9	501	0	-7.9771765405E+01	-1.1243903748E+02	-1.9713668653E+02	2.4059596273E+02	4.1800000000E+00	0.000E+00	0.0
</event>
<event>
    11  -1  1.0000000E+00  1.0000000E+00  -1.0000000E+00  -1.0000000E+00
	2212	-1	0	0	0	0	0.0000000000E+00	0.0000000000E+00	6.5000000000E+03	6.5000000000E+03	9.3827000000E-01	0.000E+00	0.0
	2212	-1	0	0	0	0	0.0000000000E+00	0.0000000000E+00	-6.5000000000E+03	6.5000000000E+03	9.3827000000E-01	0.000E+00	0.0
	2212	1	0	0	0	0	0.0000000000E+00	0.0000000000E+00	6.1720796015E+03	6.1720796015E+03	9.3827000000E-01	0.000E+00	0.0
	2212	1	0	0	0	0	0.0000000000E+00	0.0000000000E+00	-5.6450580742E+03	5.6450580742E+03	9.3827000000E-01	0.000E+00	0.0
	51	2	1	2	0	0	-1.0837434341E+02	6.7500863944E+01	-6.2707932498E+02	1.2373121809E+03	1.0589672272E+03	0.000E+00	0.0
	1000022	2	5	5	0	0	1.0837434341E+02	-6.7500863944E+01	-3.3399386100E+02	9.1974821192E+02	8.4739808189E+02	0.000E+00	0.0
	14	1	6	6	0	0	1.7125512013E+02	1.3732539251E+02	-3.5625669903E+02	5.2983999019E+02	3.2500000000E+02	0.000E+00	0.0
	-14	1	6	6	0	0	-6.2880776722E+01	-2.0482625646E+02	2.2262838030E+01	3.8990822173E+02	3.2500000000E+02	0.000E+00	0.0
	25	2	5	5	0	0	-1.0837434341E+02	6.7500863944E+01	-1.9302766629E+02	2.6311411247E+02	1.2517184702E+02	0.000E+00	0.0
	-5	1	9	9	0	501	-9.6607513192E+01	1.0040345713E+02	-1.2837224021E+02	1.8950137272E+02	4.1800000000E+00	0.000E+00	0.0
	5	1	9	9	501	0	-1.1766830215E+01	-3.2902593182E+01	-6.4655426082E+01	7.3612739748E+01	4.1800000000E+00	0.000E+00	0.0
</event>
<event>
    11  -1  1.0000000E+00  1.0000000E+00  -1.0000000E+00  -1.0000000E+00
	2212	-1	0	0	0	0	0.0000000000E+00	0.0000000000E+00	6.5000000000E+03	6.5000000000E+03	9.3827000000E-01	0.000E+00	0.0
	2212	-1	0	0	0	0	0.0000000000E+00	0.0000000000E+00	-6.5000000000E+03	6.5000000000E+03	9.3827000000E-01	0.000E+00	0.0
	2212	1	0	0	0	0	0.0000000000E+00	0.0000000000E+00	5.8707247615E+03	5.8707247615E+03	9.3827000000E-01	0.000E+00	0.0
	2212	1	0	0	0	0	0.0000000000E+00	0.0000000000E+00	-6.0469475031E+03	6.0469475031E+03	9.3827000000E-01	0.000E+00	0.0
	51	2	1	2	0	0	-1.2418281542E+02	2.1506124613E+02	-1.3627047935E+02	1.1048172821E+03	1.0678852336E+03	0.000E+00	0.0
	1000022	2	5	5	0	0	1.2418281542E+02	-2.1506124613E+02	4.3097097498E+02	7.0517907337E+02	4.9986881580E+02	0.000E+00	0.0
	14	1	6	6	0	0	0.0000000000E+00	0.0000000000E+00	0.0000000000E+00	0.0000000000E+00	0.0000000000E+00	0.000E+00	0.0
	-14	1	6	6	0	0	0.0000000000E+00	0.0000000000E+00	0.0000000000E+00	0.0000000000E+00	0.0000000000E+00	0.000E+00	0.0
	25	2	5	5	0	0	-1.2418281542E+02	2.1506124613E+02	-2.5474823338E+02	3.7714866201E+02	1.2518681884E+02	0.000E+00	0.0
	-5	1	9	9	0	501	-6.4404924582E+01	1.5734396022E+01	-8.9098021485E+01	1.1113728160E+02	4.1800000000E+00	0.000E+00	0.0
	5	1	9	9	501	0	-5.9777890841E+01	1.9932685011E+02	-1.6565021189E+02	2.6601138041E+02	4.1800000000E+00	0.000E+00	0.0
</event>
<event>
    11  -1  1.0000000E+00  1.0000000E+00  -1.0000000E+00  -1.0000000E+00
	2212	-1	0	0	0	0	0.0000000000E+00	0.0000000000E+00	6.5000000000E+03	6.5000000000E+03	9.3827000000E-01	0.000E+00	0.0
	2212	-1	0	0	0	0	0.0000000000E+00	0.0000000000E+00	-6.5000000000E+03	6.5000000000E+03	9.3827000000E-01	0.000E+00	0.0
	2212	1	0	0	0	0	0.0000000000E+00	0.0000000000E+00	5.9685001284E+03	5.9685001284E+03	9.3827000000E-01	0.000E+00	0.0
	2212	1	0	0	0	0	0.0000000000E+00	0.0000000000E+00	-5.9789094240E+03	5.9789094240E+03	9.3827000000E-01	0.000E+00	0.0
	51	2	1	2	0	0	-2.9033133760E+01	1.4465123151E+02	1.4028010897E+01	1.0629214382E+03	1.0525389765E+03	0.000E+00	0.0
	1000022	2	5	5	0	0	2.9033133760E+01	-1.4465123151E+02	4.9785428860E+00	8.5902580994E+02	8.4624680479E+02	0.000E+00	0.0
	14	1	6	6	0	0	-1.9618328390E+02	-7.4480406507E+01	-1.6800809251E+02	4.2176644127E+02	3.2500000000E+02	0.000E+00	0.0
	-14	1	6	6	0	0	2.2521641766E+02	-7.0170825004E+01	1.7298663539E+02	4.3725936867E+02	3.2500000000E+02	0.000E+00	0.0
	25	2	5	5	0	0	-2.9033133760E+01	1.4465123151E+02	5.4307526729E+00	1.9356463770E+02	1.2518336255E+02	0.000E+00	0.0
	-5	1	9	9	0	501	-6.9698513378E+01	1.0679753265E+02	-2.5086842995E+01	1.3004006243E+02	4.1800000000E+00	0.000E+00	0.0
	5	1	9	9	501	0	4.0665379618E+01	3.7853698865E+01	3.0517595668E+01	6.3524575265E+01	4.1800000000E+00	0.000E+00	0.0
</event>
<event>
    11  -1  1.0000000E+00  1.0000000E+00  -1.0000000E+00  -1.0000000E+00
	2212	-1	0	0	0	0	0.0000000000E+00	0.0000000000E+00	6.5000000000E+03	6.5000000000E+03	9.3827000000E-01	0.000E+00	0.0
	2212	-1	0	0	0	0	0.0000000000E+00	0.0000000000E+00	-6.5000000000E+03	6.5000000000E+03	9.3827000000E-01	0.000E+00	0.0
	2212	1	0	0	0	0	0.0000000000E+00	0.0000000000E+00	5.0373102311E+03	5.0373102311E+03	9.3827000000E-01	0.000E+00	0.0
	2212	1	0	0	0	0	0.0000000000E+00	0.0000000000E+00	-6.3109793548E+03	6.3109793548E+03	9.3827000000E-01	0.000E+00	0.0
	51	2	1	2	0	0	-1.2362848062E+01	-1.3943486216E+02	1.2240201974E+03	1.6197946228E+03	1.0516245792E+03	0.000E+00	0.0
	1000022	2	5	5	0	0	1.2362848062E+01	1.3943486216E+02	1.1030636007E+03	1.3979974179E+03	8.4737981599E+02	0.000E+00	0.0
	14	1	6	6	0	0	-1.4587828218E+02	2.9598607787E+01	9.0152125798E+02	9.6980520177E+02	3.2500000000E+02	0.000E+00	0.0
	-14	1	6	6	0	0	1.5824113024E+02	1.0983625438E+02	2.0154234274E+02	4.2819221618E+02	3.2500000000E+02	0.000E+00	0.0
	25	2	5	5	0	0	-1.2362848062E+01	-1.3943486216E+02	1.7060552293E+02	2.5371299619E+02	1.2517635234E+02	0.000E+00	0.0
	-5	1	9	9	0	501	3.6758638017E+01	-1.4692885436E+01	4.2702782678E+00	4.0034810200E+01	4.1800000000E+00	0.000E+00	0.0
	5	1	9	9	501	0	-4.9121486078E+01	-1.2474197673E+02	1.6633524466E+02	2.1367818599E+02	4.1800000000E+00	0.000E+00	0.0
</event>
<event>
    11  -1  1.0000000E+00  1.0000000E+00  -1.0000000E+00  -1.0000000E+00
	2212	-1	0	0	0	0	0.0000000000E+00	0.0000000000E+00	6.5000000000E+03	6.5000000000E+03	9.3827000000E-01	0.000E+00	0.0
	2212	-1	0	0	0	0	0.0000000000E+00	0.0000000000E+00	-6.5000000000E+03	6.5000000000E+03	9.3827000000E-01	0.000E+00	0.0
	2212	1	0	0	0	0	0.0000000000E+00	0.0000000000E+00	6.3144633598E+03	6.3144633598E+03	9.3827000000E-01	0.000E+00	0.0
	2212	1	0	0	0	0	0.0000000000E+00	0.0000000000E+00	-5.0157023497E+03	5.0157023497E+03	9.3827000000E-01	0.000E+00	0.0
	51	2	1	2	0	0	9.4757990513E+01	8.0271822167E+01	-1.4392952043E+03	1.7856538644E+03	1.0495553326E+03	0.000E+00	0.0
	1000022	2	5	5	0	0	-9.4757990513E+01	-8.0271822167E+01	-9.3131088978E+02	1.2622658946E+03	8.4294280538E+02	0.000E+00	0.0
	14	1	6	6	0	0	1.7921455773E+01	2.1821722890E+02	-3.6483836450E+02	5.3541756581E+02	3.2500000000E+02	0.000E+00	0.0
	-14	1	6	6	0	0	-1.1267944629E+02	-2.9848905107E+02	-5.6647252528E+02	7.2684832883E+02	3.2500000000E+02	0.000E+00	0.0
	25	2	5	5	0	0	9.4757990513E+01	8.0271822167E+01	-3.6745012039E+02	4.0756839588E+02	1.2517892853E+02	0.000E+00	0.0
	-5	1	9	9	0	501	3.8581718178E+01	-3.1289698431E+01	-1.3013616685E+02	1.3935741289E+02	4.1800000000E+00	0.000E+00	0.0
	5	1	9	9	501	0	5.6176272335E+01	1.1156152060E+02	-2.3731395353E+02	2.6821098298E+02	4.1800000000E+00	0.000E+00	0.0
</event>
<event>
    11  -1  1.0000000E+00  1.0000000E+00  -1.0000000E+00  -1.0000000E+00
	2212	-1	0	0	0	0	0.0000000000E+00	0.0000000000E+00	6.5000000000E+03	6.5000000000E+03	9.3827000000E-01	0.000E+00	0.0
	2212	-1	0	0	0	0	0.0000000000E+00	0.0000000000E+00	-6.5000000000E+03	6.5000000000E+03	9.3827000000E-01	0.000E+00	0.0
	2212	1	0	0	0	0	0.0000000000E+00	0.0000000000E+00	5.7648750711E+03	5.7648750711E+03	9.3827000000E-01	0.000E+00	0.0
	2212	1	0	0	0	0	0.0000000000E+00	0.0000000000E+00	-6.1263824869E+03	6.1263824869E+03	9.3827000000E-01	0.000E+00	0.0
	51	2	1	2	0	0	-2.5993600191E+01	1.2951219752E+02	3.8163250586E+02	1.1232607165E+03	1.0481517978E+03	0.000E+00	0.0
	1000022	2	5	5	0	0	2.5993600191E+01	-1.2951219752E+02	2.8126972370E+02	9.0985895071E+02	8.5515003138E+02	0.000E+00	0.0
	14	1	6	6	0	0	2.6234810555E+02	-5.7065659834E+01	1.3911479841E+01	4.2178376840E+02	3.2500000000E+02	0.000E+00	0.0
	-14	1	6	6	0	0	-2.3635450536E+02	-7.2446537681E+01	2.6735824386E+02	4.8807518231E+02	3.2500000000E+02	0.000E+00	0.0
	25	2	5	5	0	0	-2.5993600191E+01	1.2951219752E+02	8.0237692068E+01	1.9888349134E+02	1.2516980204E+02	0.000E+00	0.0
	-5	1	9	9	0	501	3.6519852977E+00	2.5481696279E+01	-3.3109668553E+01	4.2147080486E+01	4.1800000000E+00	0.000E+00	0.0
	5	1	9	9	501	0	-2.9645585488E+01	1.0403050124E+02	1.1334736062E+02	1.5673641085E+02	4.1800000000E+00	0.000E+00	0.0
</event>
<event>
    11  -1  1.0000000E+00  1.0000000E+00  -1.0000000E+00  -1.0000000E+00
	2212	-1	0	0	0	0	0.0000000000E+00	0.0000000000E+00	6.5000000000E+03	6.5000000000E+03	9.3827000000E-01	0.000E+00	0.0
	2212	-1	0	0	0	0	0.0000000000E+00	0.0000000000E+00	-6.5000000000E+03	6.5000000000E+03	9.3827000000E-01	0.000E+00	0.0
	2212	1	0	0	0	0	0.0000000000E+00	0.0000000000E+00	6.1494861994E+03	6.1494861994E+03	9.3827000000E-01	0.000E+00	0.0
	2212	1	0	0	0	0	0.0000000000E+00	0.0000000000E+00	-5.7146185789E+03	5.7146185789E+03	9.3827000000E-01	0.000E+00	0.0
	51	2	1	2	0	0	-7.7919623100E+00	1.0385582044E+02	-5.4184158218E+02	1.1855746091E+03	1.0493560441E+03	0.000E+00	0.0
	1000022	2	5	5	0	0	7.7919623100E+00	-1.0385582044E+02	-2.5364138565E+02	8.9226531181E+02	8.4909168411E+02	0.000E+00	0.0
	14	1	6	6	0	0	-2.4403107720E+01	2.0489056336E+02	-2.1559931299E+02	4.4122977957E+02	3.2500000000E+02	0.000E+00	0.0
	-14	1	6	6	0	0	3.2195070030E+01	-3.0874638380E+02	-3.8042072659E+01	4.5103553223E+02	3.2500000000E+02	0.000E+00	0.0
	25	2	5	5	0	0	-7.7919623100E+00	1.0385582044E+02	-1.8122623482E+02	2.4362990989E+02	1.2516324818E+02	0.000E+00	0.0
	-5	1	9	9	0	501	3.5011518442E+01	5.0900049312E+01	-1.4655703189E+01	6.3630837489E+01	4.1800000000E+00	0.000E+00	0.0
	5	1	9	9	501	0	-4.2803480752E+01	5.2955771124E+01	-1.6657053163E+02	1.7999907240E+02	4.1800000000E+00	0.000E+00	0.0
</event>
<event>
    11  -1  1.0000000E+00  1.0000000E+00  -1.0000000E+00  -1.0000000E+00
	2212	-1	0	0	0	0	0.0000000000E+00	0.0000000000E+00	6.5000000000E+03	6.5000000000E+03	9.3827000000E-01	0.000E+00	0.0
	2212	-1	0	0	0	0	0.0000000000E+00	0.0000000000E+00	-6.5000000000E+03	6.5000000000E+03	9.3827000000E-01	0.000E+00	0.0
	2212	1	0	0	0	0	0.0000000000E+00	0.0000000000E+00	6.2788860497E+03	6.2788860497E+03	9.3827000000E-01	0.000E+00	0.0
	2212	1	0	0	0	0	0.0000000000E+00	0.0000000000E+00	-5.2540177402E+03	5.2540177402E+03	9.3827000000E-01	0.000E+00	0.0
	51	2	1	2	0	0	1.1931800021E+02	5.8998107011E+01	-1.0016833318E+03	1.4570872646E+03	1.0497696118E+03	0.000E+00	0.0
	1000022	2	5	5	0	0	-1.1931800021E+02	-5.8998107011E+01	-8.7674167559E+02	1.2318730473E+03	8.5505419545E+02	0.000E+00	0.0
	14	1	6	6	0	0	2.1516488500E+02	-2.4326319246E+01	-4.7839733378E+02	6.1755704718E+02	3.2500000000E+02	0.000E+00	0.0
	-14	1	6	6	0	0	-3.3448288521E+02	-3.4671787765E+01	-3.9834434180E+02	6.1431600013E+02	3.2500000000E+02	0.000E+00	0.0
	25	2	5	5	0	0	1.1931800021E+02	5.8998107011E+01	-1.4812663391E+02	2.3522316277E+02	1.2518336481E+02	0.000E+00	0.0
	-5	1	9	9	0	501	9.2189073494E+01	1.9532570730E+01	-1.7376126362E+01	9.5915320770E+01	4.1800000000E+00	0.000E+00	0.0
	5	1	9	9	501	0	2.7128926712E+01	3.9465536280E+01	-1.3075050755E+02	1.3930784200E+02	4.1800000000E+00	0.000E+00	0.0
</event>
<event>
    11  -1  1.0000000E+00  1.0000000E+00  -1.0000000E+00  -1.0000000E+00
	2212	-1	0	0	0	0	0.0000000000E+00	0.0000000000E+00	6.5000000000E+03	6.5000000000E+03	9.3827000000E-01	0.000E+00	0.0
	2212	-1	0	0	0	0	0.0000000000E+00	0.0000000000E+00	-6.5000000000E+03	6.5000000000E+03	9.3827000000E-01	0.000E+00	0.0
	2212	1	0	0	0	0	0.0000000000E+00	0.0000000000E+00	6.2619582720E+03	6.2619582720E+03	9.3827000000E-01	0.000E+00	0.0
	2212	1	0	0	0	0	0.0000000000E+00	0.0000000000E+00	-5.3516367383E+03	5.3516367383E+03	9.3827000000E-01	0.000E+00	0.0
	51	2	1	2	0	0	5.4071437606E+01	-9.4416074064E+01	-8.2528949392E+02	1.3365531657E+03	1.0456737066E+03	0.000E+00	0.0
	1000022	2	5	5	0	0	-5.4071437606E+01	9.4416074064E+01	-8.4576679739E+02	1.2084385702E+03	8.5625007269E+02	0.000E+00	0.0
	14	1	6	6	0	0	1.8937664466E+01	1.8346117325E+02	-7.6931214777E+02	8.5526768788E+02	3.2500000000E+02	0.000E+00	0.0
	-14	1	6	6	0	0	-7.3009102073E+01	-8.9045099183E+01	-7.6454649622E+01	3.5317088233E+02	3.2500000000E+02	0.000E+00	0.0
	25	2	5	5	0	0	5.4071437606E+01	-9.4416074064E+01	-6.4554736292E+01	1.7796641945E+02	1.2516635757E+02	0.000E+00	0.0
	-5	1	9	9	0	501	-3.9104952998E+01	-4.5517650855E+01	-2.9305631757E+01	6.6912975879E+01	4.1800000000E+00	0.000E+00	0.0
	5	1	9	9	501	0	9.3176390604E+01	-4.8898423209E+01	-3.5249104534E+01	1.1105344357E+02	4.1800000000E+00	0.000E+00	0.0
</event>
<event>
    11  -1  1.0000000E+00  1.0000000E+00  -1.0000000E+00  -1.0000000E+00
	2212	-1	0	0	0	0	0.0000000000E+00	0.0000000000E+00	6.5000000000E+03	6.5000000000E+03	9.3827000000E-01	0.000E+00	0.0
	2212	-1	0	0	0	0	0.0000000000E+00	0.0000000000E+00	-6.5000000000E+03	6.5000000000E+03	9.3827000000E-01	0.000E+00	0.0
	2212	1	0	0	0	0	0.0000000000E+00	0.0000000000E+00	6.0217078610E+03	6.0217078610E+03	9.3827000000E-01	0.000E+00	0.0
	2212	1	0	0	0	0	0.0000000000E+00	0.0000000000E+00	-5.9133902474E+03	5.9133902474E+03	9.3827000000E-01	0.000E+00	0.0
	51	2	1	2	0	0	-1.0027248335E+02	-1.4166102016E+01	-2.1928033219E+02	1.0865645158E+03	1.0593787488E+03	0.000E+00	0.0
	1000022	2	5	5	0	0	1.0027248335E+02	1.4166102016E+01	2.1478643269E+01	8.5808128745E+02	8.5181389657E+02	0.000E+00	0.0
	14	1	6	6	0	0	2.1514821707E+01	2.7668182791E+02	-3.6895222821E+01	4.2895451847E+02	3.2500000000E+02	0.000E+00	0.0
	-14	1	6	6	0	0	7.8757661646E+01	-2.6251572590E+02	5.8373866090E+01	4.2912676898E+02	3.2500000000E+02	0.000E+00	0.0
	25	2	5	5	0	0	-1.0027248335E+02	-1.4166102016E+01	-1.2979625687E+02	2.0682060423E+02	1.2518963484E+02	0.000E+00	0.0
	-5	1	9	9	0	501	-1.0858807197E+02	-4.5249537672E+01	-1.2861709266E+02	1.7435228406E+02	4.1800000000E+00	0.000E+00	0.0
	5	1	9	9	501	0	8.3155886158E+00	3.1083435656E+01	-1.1791642124E+00	3.2468320166E+01	4.1800000000E+00	0.000E+00	0.0
</event>
<event>
    11  -1  1.0000000E+00  1.0000000E+00  -1.0000000E+00  -1.0000000E+00
	2212	-1	0	0	0	0	0.0000000000E+00	0.0000000000E+00	6.5000000000E+03	6.5000000000E+03	9.3827000000E-01	0.000E+00	0.0
	2212	-1	0	0	0	0	0.0000000000E+00	0.0000000000E+00	-6.5000000000E+03	6.5000000000E+03	9.3827000000E-01	0.000E+00	0.0
	2212	1	0	0	0	0	0.0000000000E+00	0.0000000000E+00	5.5146255329E+03	5.5146255329E+03	9.3827000000E-01	0.000E+00	0.0
	2212	1	0	0	0	0	0.0000000000E+00	0.0000000000E+00	-6.2252989844E+03	6.2252989844E+03	9.3827000000E-01	0.000E+00	0.0
	51	2	1	2	0	0	5.7630424466E+01	1.0484156248E+02	7.7030466208E+02	1.3001598975E+03	1.0405447936E+03	0.000E+00	0.0
	1000022	2	5	5	0	0	-5.7630424466E+01	-1.0484156248E+02	5.3421860488E+02	1.0128543034E+03	8.5215685355E+02	0.000E+00	0.0
	14	1	6	6	0	0	-1.9838711068E+02	1.5747634816E+01	2.6278749403E+01	3.8199608160E+02	3.2500000000E+02	0.000E+00	0.0
	-14	1	6	6	0	0	1.4075668622E+02	-1.2058919729E+02	5.0793985548E+02	6.3085822179E+02	3.2500000000E+02	0.000E+00	0.0
	25	2	5	5	0	0	5.7630424466E+01	1.0484156248E+02	1.7645484654E+02	2.4722117932E+02	1.2517579475E+02	0.000E+00	0.0
	-5	1	9	9	0	501	1.0013705275E+01	-2.4458651744E+01	4.9998869188E+00	2.7220786317E+01	4.1800000000E+00	0.000E+00	0.0
	5	1	9	9	501	0	4.7616719191E+01	1.2930021422E+02	1.7145495962E+02	2.2000039301E+02	4.1800000000E+00	0.000E+00	0.0
</event>
<event>
    11  -1  1.0000000E+00  1.0000000E+00  -1.0000000E+00  -1.0000000E+00
	2212	-1	0	0	0	0	0.0000000000E+00	0.0000000000E+00	6.5000000000E+03	6.5000000000E+03	9.3827000000E-01	0.000E+00	0.0
	2212	-1	0	0	0	0	0.0000000000E+00	0.0000000000E+00	-6.5000000000E+03	6.5000000000E+03	9.3827000000E-01	0.000E+00	0.0
	2212	1	0	0	0	0	0.0000000000E+00	0.0000000000E+00	6.1996769176E+03	6.1996769176E+03	9.3827000000E-01	0.000E+00	0.0
	2212	1	0	0	0	0	0.0000000000E+00	0.0000000000E+00	-5.5666637884E+03	5.5666637884E+03	9.3827000000E-01	0.000E+00	0.0
	51	2	1	2	0	0	-2.2936119514E+01	9.8972814668E+00	-8.2008020369E+02	1.3395391723E+03	1.0588718675E+03	0.000E+00	0.0
	1000022	2	5	5	0	0	2.2936119514E+01	-9.8972814668E+00	-3.3296558811E+02	9.0759535265E+02	8.4394266365E+02	0.000E+00	0.0
	14	1	6	6	0	0	1.3462408128E+01	6.7308688803E+01	-4.4485101036E+02	5.5518385913E+02	3.2500000000E+02	0.000E+00	0.0
	-14	1	6	6	0	0	9.4737113855E+00	-7.7205970270E+01	1.1188542225E+02	3.5241149352E+02	3.2500000000E+02	0.000E+00	0.0
	25	2	5	5	0	0	-2.2936119514E+01	9.8972814668E+00	-3.0004754112E+02	3.2606394134E+02	1.2516047757E+02	0.000E+00	0.0
	-5	1	9	9	0	501	-5.6452919232E+01	-3.5904401333E+01	-1.2280471495E+02	1.3990900092E+02	4.1800000000E+00	0.000E+00	0.0
	5	1	9	9	501	0	3.3516799718E+01	4.5801682800E+01	-1.7724282617E+02	1.8615494041E+02	4.1800000000E+00	0.000E+00	0.0
</event>
<event>
    11  -1  1.0000000E+00  1.0000000E+00  -1.0000000E+00  -1.0000000E+00
	2212	-1	0	0	0	0	0.0000000000E+00	0.0000000000E+00	6.5000000000E+03	6.5000000000E+03	9.3827000000E-01	0.000E+00	0.0
	2212	-1	0	0	0	0	0.0000000000E+00	0.0000000000E+00	-6.5000000000E+03	6.5000000000E+03	9.3827000000E-01	0.000E+00	0.0
	2212	1	0	0	0	0	0.0000000000E+00	0.0000000000E+00	5.7063022923E+03	5.7063022923E+03	9.3827000000E-01	0.000E+00	0.0
	2212	1	0	0	0	0	0.0000000000E+00	0.0000000000E+00	-6.1473459672E+03	6.1473459672E+03	9.3827000000E-01	0.000E+00	0.0
	51	2	1	2	0	0	1.4307273395E+02	1.3843999851E+02	3.7177835880E+02	1.1390598660E+03	1.0581128436E+03	0.000E+00	0.0
	1000022	2	5	5	0	0	-1.4307273395E+02	-1.3843999851E+02	4.1653520296E+02	9.0990869413E+02	7.8408980096E+02	0.000E+00	0.0
	14	1	6	6	0	0	-7.7786706942E+01	-2.1039443311E+02	4.1196865411E+02	5.7066606805E+02	3.2500000000E+02	0.000E+00	0.0
	-14	1	6	6	0	0	-6.5286027006E+01	7.1954434603E+01	4.5665488494E+00	3.3924262608E+02	3.2500000000E+02	0.000E+00	0.0
	25	2	5	5	0	0	1.4307273395E+02	1.3843999851E+02	2.4508471990E+01	2.3644304639E+02	1.2517670950E+02	0.000E+00	0.0
	-5	1	9	9	0	501	8.1921163520E+01	1.5015090621E+02	3.0350963690E+01	1.7376715762E+02	4.1800000000E+00	0.000E+00	0.0
	5	1	9	9	501	0	6.1151570427E+01	-1.1710907702E+01	-5.8424917007E+00	6.2675888778E+01	4.1800000000E+00	0.000E+00	0.0
</event>
<event>
    11  -1  1.0000000E+00  1.0000000E+00  -1.0000000E+00  -1.0000000E+00
	2212	-1	0	0	0	0	0.0000000000E+00	0.0000000000E+00	6.5000000000E+03	6.5000000000E+03	9.3827000000E-01	0.000E+00	0.0
	2212	-1	0	0	0	0	0.0000000000E+00	0.0000000000E+00	-6.5000000000E+03	6.5000000000E+03	9.3827000000E-01	0.000E+00	0.0
	2212	1	0	0	0	0	0.0000000000E+00	0.0000000000E+00	4.9656756735E+03	4.9656756735E+03	9.3827000000E-01	0.000E+00	0.0
	2212	1	0	0	0	0	0.0000000000E+00	0.0000000000E+00	-6.3189860201E+03	6.3189860201E+03	9.3827000000E-01	0.000E+00	0.0
	51	2	1	2	0	0	-5.0785467731E+01	-1.2233966267E+01	1.5909377720E+03	1.9091224265E+03	1.0540097776E+03	0.000E+00	0.0
	1000022	2	5	5	0	0	5.0785467731E+01	1.2233966267E+01	8.8049563295E+02	1.2234512673E+03	8.4783937753E+02	0.000E+00	0.0
	14	1	6	6	0	0	-2.9915707061E+01	-2.5590179939E+02	5.0376407624E+02	6.5252120653E+02	3.2500000000E+02	0.000E+00	0.0
	-14	1	6	6	0	0	8.0701174791E+01	2.6813576566E+02	3.7673155671E+02	5.7093006074E+02	3.2500000000E+02	0.000E+00	0.0
	25	2	5	5	0	0	-5.0785467731E+01	-1.2233966267E+01	4.7281471365E+02	4.9188703914E+02	1.2518095768E+02	0.000E+00	0.0
	-5	1	9	9	0	501	-9.2703979499E+01	-9.8567616167E+00	3.3538854040E+02	3.4812947160E+02	4.1800000000E+00	0.000E+00	0.0
	5	1	9	9	501	0	4.1918511768E+01	-2.3772046505E+00	1.3742617325E+02	1.4375756754E+02	4.1800000000E+00	0.000E+00	0.0
</event>
<event>
    11  -1  1.0000000E+00  1.0000000E+00  -1.0000000E+00  -1.0000000E+00
	2212	-1	0	0	0	0	0.0000000000E+00	0.0000000000E+00	6.5000000000E+03	6.5000000000E+03	9.3827000000E-01	0.000E+00	0.0
	2212	-1	0	0	0	0	0.0000000000E+00	0.0000000000E+00	-6.5000000000E+03	6.5000000000E+03	9.3827000000E-01	0.000E+00	0.0
	2212	1	0	0	0	0	0.0000000000E+00	0.0000000000E+00	5.9602225861E+03	5.9602225861E+03	9.3827000000E-01	0.000E+00	0.0
	2212	1	0	0	0	0	0.0000000000E+00	0.0000000000E+00	-5.9604945621E+03	5.9604945621E+03	9.3827000000E-01	0.000E+00	0.0
	51	2	1	2	0	0	-1.5109405497E+02	7.6430694655E+01	-5.1255727408E+01	1.0936862504E+03	1.0792828176E+03	0.000E+00	0.0
	1000022	2	5	5	0	0	1.5109405497E+02	-7.6430694655E+01	5.1748682188E+01	8.6250713509E+02	8.4413835799E+02	0.000E+00	0.0
	14	1	6	6	0	0	2.9873696944E+02	4.2145390374E+01	-1.0386045593E+02	4.5544703879E+02	3.2500000000E+02	0.000E+00	0.0
	-14	1	6	6	0	0	-1.4764291447E+02	-1.1857608503E+02	1.5560913811E+02	4.0706009630E+02	3.2500000000E+02	0.000E+00	0.0
	25	2	5	5	0	0	-1.5109405497E+02	7.6430694655E+01	-5.1476706194E+01	2.1677571674E+02	1.2518304819E+02	0.000E+00	0.0
	-5	1	9	9	0	501	-1.3827586740E+02	1.0244186751E+02	-1.9234857024E+01	1.7321086527E+02	4.1800000000E+00	0.000E+00	0.0
	5	1	9	9	501	0	-1.2818187575E+01	-2.6011172852E+01	-3.2241849169E+01	4.3564851471E+01	4.1800000000E+00	0.000E+00	0.0
</event>
<event>
    11  -1  1.0000000E+00  1.0000000E+00  -1.0000000E+00  -1.0000000E+00
	2212	-1	0	0	0	0	0.0000000000E+00	0.0000000000E+00	6.5000000000E+03	6.5000000000E+03	9.3827000000E-01	0.000E+00	0.0
	2212	-1	0	0	0	0	0.0000000000E+00	0.0000000000E+00	-6.5000000000E+03	6.5000000000E+03	9.3827000000E-01	0.000E+00	0.0
	2212	1	0	0	0	0	0.0000000000E+00	0.0000000000E+00	6.3003690899E+03	6.3003690899E+03	9.3827000000E-01	0.000E+00	0.0
	2212	1	0	0	0	0	0.0000000000E+00	0.0000000000E+00	-5.0768599570E+03	5.0768599570E+03	9.3827000000E-01	0.000E+00	0.0
	51	2	1	2	0	0	-3.8728486184E+00	1.1666303070E+02	-1.0702217805E+03	1.5150613484E+03	1.0660257821E+03	0.000E+00	0.0
	1000022	2	5	5	0	0	3.8728486184E+00	-1.1666303070E+02	-1.1572121133E+03	1.4392402795E+03	8.4773076230E+02	0.000E+00	0.0
	14	1	6	6	0	0	5.0293624772E+01	1.3549413743E+02	-2.2934004985E+02	4.2321385662E+02	3.2500000000E+02	0.000E+00	0.0
	-14	1	6	6	0	0	-4.6420776153E+01	-2.5215716813E+02	-9.2787206348E+02	1.0160264229E+03	3.2500000000E+02	0.000E+00	0.0
	25	2	5	5	0	0	-3.8728486184E+00	1.1666303070E+02	-6.6297019535E+01	1.8353067360E+02	1.2515171459E+02	0.000E+00	0.0
	-5	1	9	9	0	501	3.5168676064E+01	5.0108333029E+01	2.2919650419E+01	6.5501630441E+01	4.1800000000E+00	0.000E+00	0.0
	5	1	9	9	501	0	-3.9041524683E+01	6.6554697666E+01	-8.9216669955E+01	1.1802904316E+02	4.1800000000E+00	0.000E+00	0.0
</event>
<event>
    11  -1  1.0000000E+00  1.0000000E+00  -1.0000000E+00  -1.0000000E+00
	2212	-1	0	0	0	0	0.0000000000E+00	0.0000000000E+00	6.5000000000E+03	6.5000000000E+03	9.3827000000E-01	0.000E+00	0.0
	2212	-1	0	0	0	0	0.0000000000E+00	0.0000000000E+00	-6.5000000000E+03	6.5000000000E+03	9.3827000000E-01	0.000E+00	0.0
	2212	1	0	0	0	0	0.0000000000E+00	0.0000000000E+00	5.9501614013E+03	5.9501614013E+03	9.3827000000E-01	0.000E+00	0.0
	2212	1	0	0	0	0	0.0000000000E+00	0.0000000000E+00	-5.9949998894E+03	5.9949998894E+03	9.3827000000E-01	0.000E+00	0.0
	51	2	1	2	0	0	-3.9966134293E+01	-1.2148829286E+02	-4.9380332276E+01	1.0627649443E+03	1.0538852938E+03	0.000E+00	0.0
	1000022	2	5	5	0	0	3.9966134293E+01	1.2148829286E+02	1.3095248239E+02	8.5624404059E+02	8.3645000281E+02	0.000E+00	0.0
	14	1	6	6	0	0	-1.8241012086E+02	1.8023950891E+02	-5.3516625735E+01	4.1743114641E+02	3.2500000000E+02	0.000E+00	0.0
	-14	1	6	6	0	0	2.2237625515E+02	-5.8751216054E+01	1.8446910813E+02	4.3881289418E+02	3.2500000000E+02	0.000E+00	0.0
	25	2	5	5	0	0	-3.9966134293E+01	-1.2148829286E+02	-8.6113994291E+01	1.9859466863E+02	1.2516998524E+02	0.000E+00	0.0
	-5	1	9	9	0	501	1.9177184088E+01	-1.0500269754E+02	-2.0747803203E+01	1.0881762090E+02	4.1800000000E+00	0.000E+00	0.0
	5	1	9	9	501	0	-5.9143318381E+01	-1.6485595314E+01	-6.5366191087E+01	8.9777047731E+01	4.1800000000E+00	0.000E+00	0.0
</event>
<event>
    11  -1  1.0000000E+00  1.0000000E+00  -1.0000000E+00  -1.0000000E+00
	2212	-1	0	0	0	0	0.0000000000E+00	0.0000000000E+00	6.5000000000E+03	6.5000000000E+03	9.3827000000E-01	0.000E+00	0.0
	2212	-1	0	0	0	0	0.0000000000E+00	0.0000000000E+00	-6.5000000000E+03	6.5000000000E+03	9.3827000000E-01	0.000E+00	0.0
	2212	1	0	0	0	0	0.0000000000E+00	0.0000000000E+00	5.6448475456E+03	5.6448475456E+03	9.3827000000E-01	0.000E+00	0.0
	2212	1	0	0	0	0	0.0000000000E+00	0.0000000000E+00	-6.1790105438E+03	6.1790105438E+03	9.3827000000E-01	0.000E+00	0.0
	51	2	1	2	0	0	-4.9766813707E+01	-3.7351216822E+01	6.9200967818E+02	1.2572704280E+03	1.0478452583E+03	0.000E+00	0.0
	1000022	2	5	5	0	0	4.9766813707E+01	3.7351216822E+01	2.8236227129E+02	8.8814153460E+02	8.3975894403E+02	0.000E+00	0.0
	14	1	6	6	0	0	1.7980607916E+02	-1.8699465905E+02	7.1448986497E+01	4.2193267981E+02	3.2500000000E+02	0.000E+00	0.0
	-14	1	6	6	0	0	-1.3003926545E+02	2.2434587587E+02	2.1091328480E+02	4.6620885479E+02	3.2500000000E+02	0.000E+00	0.0
	25	2	5	5	0	0	-4.9766813707E+01	-3.7351216822E+01	2.5180072691E+02	2.8800037603E+02	1.2517492313E+02	0.000E+00	0.0
	-5	1	9	9	0	501	-2.1398532549E+00	-5.5576111420E+01	3.6388403513E+01	6.6594830451E+01	4.1800000000E+00	0.000E+00	0.0
	5	1	9	9	501	0	-4.7626960452E+01	1.8224894598E+01	2.1541232339E+02	2.2140554558E+02	4.1800000000E+00	0.000E+00	0.0
</event>
<event>
    11  -1  1.0000000E+00  1.0000000E+00  -1.0000000E+00  -1.0000000E+00
	2212	-1	0	0	0	0	0.0000000000E+00	0.0000000000E+00	6.5000000000E+03	6.5000000000E+03	9.3827000000E-01	0.000E+00	0.0
	2212	-1	0	0	0	0	0.0000000000E+00	0.0000000000E+00	-6.5000000000E+03	6.5000000000E+03	9.3827000000E-01	0.000E+00	0.0
	2212	1	0	0	0	0	0.0000000000E+00	0.0000000000E+00	5.0631565004E+03	5.0631565004E+03	9.3827000000E-01	0.000E+00	0.0
	2212	1	0	0	0	0	0.0000000000E+00	0.0000000000E+00	-6.3059110194E+03	6.3059110194E+03	9.3827000000E-01	0.000E+00	0.0
	51	2	1	2	0	0	-7.4597885433E+01	-7.8371002843E+01	1.1046914834E+03	1.5321723442E+03	1.0561732625E+03	0.000E+00	0.0
	1000022	2	5	5	0	0	7.4597885433E+01	7.8371002843E+01	1.1668518519E+03	1.4488941086E+03	8.5208217613E+02	0.000E+00	0.0
	14	1	6	6	0	0	-9.8749772618E+01	-3.4314932259E+01	1.7242501486E+02	3.8247146026E+02	3.2500000000E+02	0.000E+00	0.0
	-14	1	6	6	0	0	1.7334765805E+02	1.1268593510E+02	9.9442683706E+02	1.0664226483E+03	3.2500000000E+02	0.000E+00	0.0
	25	2	5	5	0	0	-7.4597885433E+01	-7.8371002843E+01	7.5902667071E+01	1.8203837159E+02	1.2517945225E+02	0.000E+00	0.0
	-5	1	9	9	0	501	-1.0423114661E+02	-8.0361427348E+01	4.5468149894E+01	1.3930870750E+02	4.1800000000E+00	0.000E+00	0.0
	5	1	9	9	501	0	2.9633261179E+01	1.9904245052E+00	3.0434517177E+01	4.2729664095E+01	4.1800000000E+00	0.000E+00	0.0
</event>
<event>
    11  -1  1.0000000E+00  1.0000000E+00  -1.0000000E+00  -1.0000000E+00
	2212	-1	0	0	0	0	0.0000000000E+00	0.0000000000E+00	6.5000000000E+03	6.5000000000E+03	9.3827000000E-01	0.000E+00	0.0
	2212	-1	0	0	0	0	0.0000000000E+00	0.0000000000E+00	-6.5000000000E+03	6.5000000000E+03	9.3827000000E-01	0.000E+00	0.0
	2212	1	0	0	0	0	0.0000000000E+00	0.0000000000E+00	6.2966210271E+03	6.2966210271E+03	9.3827000000E-01	0.000E+00	0.0
	2212	1	0	0	0	0	0.0000000000E+00	0.0000000000E+00	-5.1349014068E+03	5.1349014068E+03	9.3827000000E-01	0.000E+00	0.0
	51	2	1	2	0	0	6.9536041777E+01	1.2438636337E+02	-1.2502461859E+03	1.6413263397E+03	1.0538165871E+03	0.000E+00	0.0
	1000022	2	5	5	0	0	-6.9536041777E+01	-1.2438636337E+02	-8.6848125631E+02	1.2192403616E+03	8.4378915512E+02	0.000E+00	0.0
	14	1	6	6	0	0	1.5745404817E+02	-7.0328657974E+01	-6.8827599707E+02	7.8044009736E+02	3.2500000000E+02	0.000E+00	0.0
	-14	1	6	6	0	0	-2.2699008994E+02	-5.4057705400E+01	-1.8020525924E+02	4.3880026425E+02	3.2500000000E+02	0.000E+00	0.0
	25	2	5	5	0	0	6.9536041777E+01	1.2438636337E+02	-2.9323836392E+02	3.4923720449E+02	1.2518250050E+02	0.000E+00	0.0
	-5	1	9	9	0	501	1.1888574400E+01	-1.6598655015E+01	-2.4999650191E+00	2.0989896967E+01	4.1800000000E+00	0.000E+00	0.0
	5	1	9	9	501	0	5.7647467377E+01	1.4098501839E+02	-2.9073839890E+02	3.2824730753E+02	4.1800000000E+00	0.000E+00	0.0
</event>
<event>
    11  -1  1.0000000E+00  1.0000000E+00  -1.0000000E+00  -1.0000000E+00
	2212	-1	0	0	0	0	0.0000000000E+00	0.0000000000E+00	6.5000000000E+03	6.5000000000E+03	9.3827000000E-01	0.000E+00	0.0
	2212	-1	0	0	0	0	0.0000000000E+00	0.0000000000E+00	-6.5000000000E+03	6.5000000000E+03	9.3827000000E-01	0.000E+00	0.0
	2212	1	0	0	0	0	0.0000000000E+00	0.0000000000E+00	4.9842157213E+03	4.9842157213E+03	9.3827000000E-01	0.000E+00	0.0
	2212	1	0	0	0	0	0.0000000000E+00	0.0000000000E+00	-6.3100293128E+03	6.3100293128E+03	9.3827000000E-01	0.000E+00	0.0
	51	2	1	2	0	0	-5.5156700907E+01	-1.3094963690E+02	1.2100932067E+03	1.6236791439E+03	1.0732279926E+03	0.000E+00	0.0
	1000022	2	5	5	0	0	5.5156700907E+01	1.3094963690E+02	1.2017936167E+03	1.4793874958E+03	8.5093442550E+02	0.000E+00	0.0
	14	1	6	6	0	0	4.5395673734E+01	6.3892095690E+01	1.3228643833E+02	3.5953813268E+02	3.2500000000E+02	0.000E+00	0.0
	-14	1	6	6	0	0	9.7610271724E+00	6.7057541215E+01	1.0695071783E+03	1.1198493631E+03	3.2500000000E+02	0.000E+00	0.0
	25	2	5	5	0	0	-5.5156700907E+01	-1.3094963690E+02	1.2401997482E+02	2.2636747009E+02	1.2518469675E+02	0.000E+00	0.0
	-5	1	9	9	0	501	-1.2936284302E+01	-1.2037499336E+02	3.3258616074E+01	1.2562282603E+02	4.1800000000E+00	0.000E+00	0.0
	5	1	9	9	501	0	-4.2220416605E+01	-1.0574643547E+01	9.0761358750E+01	1.0074464406E+02	4.1800000000E+00	0.000E+00	0.0
</event>
<event>
    11  -1  1.0000000E+00  1.0000000E+00  -1.0000000E+00  -1.0000000E+00
	2212	-1	0	0	0	0	0.0000000000E+00	0.0000000000E+00	6.5000000000E+03	6.5000000000E+03	9.3827000000E-01	0.000E+00	0.0
	2212	-1	0	0	0	0	0.0000000000E+00	0.0000000000E+00	-6.5000000000E+03	6.5000000000E+03	9.3827000000E-01	0.000E+00	0.0
	2212	1	0	0	0	0	0.0000000000E+00	0.0000000000E+00	5.6534228413E+03	5.6534228413E+03	9.3827000000E-01	0.000E+00	0.0
	2212	1	0	0	0	0	0.0000000000E+00	0.0000000000E+00	-6.1721404283E+03	6.1721404283E+03	9.3827000000E-01	0.000E+00	0.0
	51	2	1	2	0	0	6.8814394591E+01	1.1369422756E+02	4.5776920125E+02	1.1564809287E+03	1.0536762779E+03	0.000E+00	0.0
	1000022	2	5	5	0	0	-6.8814394591E+01	-1.1369422756E+02	4.9011728599E+02	9.8964392758E+02	8.4942236319E+02	0.000E+00	0.0
	14	1	6	6	0	0	1.4692028699E+02	1.2110420302E+02	3.4764220826E+02	5.1257380316E+02	3.2500000000E+02	0.000E+00	0.0
	-14	1	6	6	0	0	-2.1573468158E+02	-2.3479843059E+02	1.4247507773E+02	4.7707012442E+02	3.2500000000E+02	0.000E+00	0.0
	25	2	5	5	0	0	6.8814394591E+01	1.1369422756E+02	2.8600301003E+01	1.8479280280E+02	1.2517429634E+02	0.000E+00	0.0
	-5	1	9	9	0	501	-2.1466788224E+01	6.0323078351E+01	4.5256057392E+01	7.8519296412E+01	4.1800000000E+00	0.000E+00	0.0
	5	1	9	9	501	0	9.0281182816E+01	5.3371149213E+01	-1.6655756389E+01	1.0627350639E+02	4.1800000000E+00	0.000E+00	0.0
</event>
<event>
    11  -1  1.0000000E+00  1.0000000E+00  -1.0000000E+00  -1.0000000E+00
	2212	-1	0	0	0	0	0.0000000000E+00	0.0000000000E+00	6.5000000000E+03	6.5000000000E+03	9.3827000000E-01	0.000E+00	0.0
	2212	-1	0	0	0	0	0.0000000000E+00	0.0000000000E+00	-6.5000000000E+03	6.5000000000E+03	9.3827000000E-01	0.000E+00	0.0
	2212	1	0	0	0	0	0.0000000000E+00	0.0000000000E+00	6.1306831832E+03	6.1306831832E+03	9.3827000000E-01	0.000E+00	0.0
	2212	1	0	0	0	0	0.0000000000E+00	0.0000000000E+00	-5.7504246230E+03	5.7504246230E+03	9.3827000000E-01	0.000E+00	0.0
	51	2	1	2	0	0	4.6927369121E+01	6.9495624659E+01	-4.6851153662E+02	1.1549277244E+03	1.0522942406E+03	0.000E+00	0.0
	1000022	2	5	5	0	0	-4.6927369121E+01	-6.9495624659E+01	-2.3254100998E+02	9.0788506664E+02	8.7358351237E+02	0.000E+00	0.0
	14	1	6	6	0	0	1.4759263546E+02	1.4271030951E+01	-3.5247807387E+02	5.0184961983E+02	3.2500000000E+02	0.000E+00	0.0
	-14	1	6	6	0	0	-1.9452000458E+02	-8.3766655610E+01	1.1993706388E+02	4.0603544681E+02	3.2500000000E+02	0.000E+00	0.0
	25	2	5	5	0	0	4.6927369121E+01	6.9495624659E+01	-1.4771755020E+02	2.1100712715E+02	1.2518671356E+02	0.000E+00	0.0
	-5	1	9	9	0	501	8.9582793080E+00	9.1728275167E+01	-5.2789796121E+01	1.0629469511E+02	4.1800000000E+00	0.000E+00	0.0
	5	1	9	9	501	0	3.7969089813E+01	-2.2232650508E+01	-9.4927754076E+01	1.0471243204E+02	4.1800000000E+00	0.000E+00	0.0
</event>
<event>
    11  -1  1.0000000E+00  1.0000000E+00  -1.0000000E+00  -1.0000000E+00
	2212	-1	0	0	0	0	0.0000000000E+00	0.0000000000E+00	6.5000000000E+03	6.5000000000E+03	9.3827000000E-01	0.000E+00	0.0
	2212	-1	0	0	0	0	0.0000000000E+00	0.0000000000E+00	-6.5000000000E+03	6.5000000000E+03	9.3827000000E-01	0.000E+00	0.0
	2212	1	0	0	0	0	0.0000000000E+00	0.0000000000E+00	6.2586032393E+03	6.2586032393E+03	9.3827000000E-01	0.000E+00	0.0
	2212	1	0	0	0	0	0.0000000000E+00	0.0000000000E+00	-5.3826316836E+03	5.3826316836E+03	9.3827000000E-01	0.000E+00	0.0
	51	2	1	2	0	0	-7.7432263482E+01	3.9089265950E+01	-7.6856552173E+02	1.2950417197E+03	1.0387089913E+03	0.000E+00	0.0
	1000022	2	5	5	0	0	7.7432263482E+01	-3.9089265950E+01	-8.4165134609E+02	1.2026494809E+03	8.5467248656E+02	0.000E+00	0.0
	14	1	6	6	0	0	-1.4777646240E+02	-1.8703676002E+02	-2.4474958724E+02	4.7153790186E+02	3.2500000000E+02	0.000E+00	0.0
	-14	1	6	6	0	0	2.2520872589E+02	1.4794749407E+02	-5.9690175885E+02	7.3111157899E+02	3.2500000000E+02	0.000E+00	0.0
	25	2	5	5	0	0	-7.7432263482E+01	3.9089265950E+01	-3.4320209616E+01	1.5611559631E+02	1.2518177377E+02	0.000E+00	0.0
	-5	1	9	9	0	501	-1.1089121646E+01	-6.0656677565E+00	4.2747464646E+01	4.4772525927E+01	4.1800000000E+00	0.000E+00	0.0
	5	1	9	9	501	0	-6.6343141835E+01	4.5154933707E+01	-7.7067674262E+01	1.1134307039E+02	4.1800000000E+00	0.000E+00	0.0
</event>
<event>
    11  -1  1.0000000E+00  1.0000000E+00  -1.0000000E+00  -1.0000000E+00
	2212	-1	0	0	0	0	0.0000000000E+00	0.0000000000E+00	6.5000000000E+03	6.5000000000E+03	9.3827000000E-01	0.000E+00	0.0
	2212	-1	0	0	0	0	0.0000000000E+00	0.0000000000E+00	-6.5000000000E+03	6.5000000000E+03	9.3827000000E-01	0.000E+00	0.0
	2212	1	0	0	0	0	0.0000000000E+00	0.0000000000E+00	5.8804196399E+03	5.8804196399E+03	9.3827000000E-01	0.000E+00	0.0
	2212	1	0	0	0	0	0.0000000000E+00	0.0000000000E+00	-6.0133626145E+03	6.0133626145E+03	9.3827000000E-01	0.000E+00	0.0
	51	2	1	2	0	0	1.7108105778E+02	5.3153253659E+01	2.2390043593E+02	1.1350195013E+03	1.0982002852E+03	0.000E+00	0.0
	1000022	2	5	5	0	0	-1.7108105778E+02	-5.3153253659E+01	1.5637742480E+01	8.5817633761E+02	8.3912340614E+02	0.000E+00	0.0
	14	1	6	6	0	0	-1.8643919769E+02	-1.8644372194E+02	1.9699816123E+02	4.6255173918E+02	3.2500000000E+02	0.000E+00	0.0
	-14	1	6	6	0	0	1.5358139908E+01	1.3329046829E+02	-1.8136041875E+02	3.9562459843E+02	3.2500000000E+02	0.000E+00	0.0
	25	2	5	5	0	0	1.7108105778E+02	5.3153253659E+01	1.1730523209E+02	2.4804140804E+02	1.2517997413E+02	0.000E+00	0.0
	-5	1	9	9	0	501	1.2587326015E+02	2.8384984245E+01	1.4098133273E+02	1.9116221784E+02	4.1800000000E+00	0.000E+00	0.0
	5	1	9	9	501	0	4.5207797628E+01	2.4768269413E+01	-2.3676100645E+01	5.6879190201E+01	4.1800000000E+00	0.000E+00	0.0
</event>
<event>
    11  -1  1.0000000E+00  1.0000000E+00  -1.0000000E+00  -1.0000000E+00
	2212	-1	0	0	0	0	0.0000000000E+00	0.0000000000E+00	6.5000000000E+03	6.5000000000E+03	9.3827000000E-01	0.000E+00	0.0
	2212	-1	0	0	0	0	0.0000000000E+00	0.0000000000E+00	-6.5000000000E+03	6.5000000000E+03	9.3827000000E-01	0.000E+00	0.0
	2212	1	0	0	0	0	0.0000000000E+00	0.0000000000E+00	5.2120583027E+03	5.2120583027E+03	9.3827000000E-01	0.000E+00	0.0
	2212	1	0	0	0	0	0.0000000000E+00	0.0000000000E+00	-6.2858805030E+03	6.2858805030E+03	9.3827000000E-01	0.000E+00	0.0
	51	2	1	2	0	0	-5.1904572240E+01	3.1225557417E+01	1.2460897756E+03	1.6307981366E+03	1.0502826827E+03	0.000E+00	0.0
	1000022	2	5	5	0	0	5.1904572240E+01	-3.1225557417E+01	7.2538434324E+02	1.1268974750E+03	8.6025946885E+02	0.000E+00	0.0
	14	1	6	6	0	0	1.1221040947E+02	2.0044538889E+02	5.6820917823E+02	6.9372631502E+02	3.2500000000E+02	0.000E+00	0.0
	-14	1	6	6	0	0	-6.0305837227E+01	-2.3167094630E+02	1.5717516500E+02	4.3317116000E+02	3.2500000000E+02	0.000E+00	0.0
	25	2	5	5	0	0	-5.1904572240E+01	3.1225557417E+01	3.4843785706E+02	3.7516371925E+02	1.2517889580E+02	0.000E+00	0.0
	-5	1	9	9	0	501	-9.8251150731E+00	-4.7904597420E+01	1.1235560589E+02	1.2260765847E+02	4.1800000000E+00	0.000E+00	0.0
	5	1	9	9	501	0	-4.2079457167E+01	7.9130154838E+01	2.3608225118E+02	2.5255606079E+02	4.1800000000E+00	0.000E+00	0.0
</event>
<event>
    11  -1  1.0000000E+00  1.0000000E+00  -1.0000000E+00  -1.0000000E+00
	2212	-1	0	0	0	0	0.0000000000E+00	0.0000000000E+00	6.5000000000E+03	6.5000000000E+03	9.3827000000E-01	0.000E+00	0.0
	2212	-1	0	0	0	0	0.0000000000E+00	0.0000000000E+00	-6.5000000000E+03	6.5000000000E+03	9.3827000000E-01	0.000E+00	0.0
	2212	1	0	0	0	0	0.0000000000E+00	0.0000000000E+00	5.5561847472E+03	5.5561847472E+03	9.3827000000E-01	0.000E+00	0.0
	2212	1	0	0	0	0	0.0000000000E+00	0.0000000000E+00	-6.2039473438E+03	6.2039473438E+03	9.3827000000E-01	0.000E+00	0.0
	51	2	1	2	0	0	1.6757890068E+02	-3.6927065998E+01	7.2937501515E+02	1.2958048693E+03	1.0572019913E+03	0.000E+00	0.0
	1000022	2	5	5	0	0	-1.6757890068E+02	3.6927065998E+01	4.4022584438E+02	9.4290199606E+02	8.1597737956E+02	0.000E+00	0.0
	14	1	6	6	0	0	-1.6815306936E+02	-2.1571717972E+01	-3.0579093847E+01	3.6783267219E+02	3.2500000000E+02	0.000E+00	0.0
	-14	1	6	6	0	0	5.7416867376E-01	5.8498783970E+01	4.7080493823E+02	5.7506932387E+02	3.2500000000E+02	0.000E+00	0.0
	25	2	5	5	0	0	1.6757890068E+02	-3.6927065998E+01	2.0753675222E+02	2.9696591298E+02	1.2518368020E+02	0.000E+00	0.0
	-5	1	9	9	0	501	7.7832974109E+01	-7.5072159642E+01	7.2155831570E+01	1.3006820304E+02	4.1800000000E+00	0.000E+00	0.0
	5	1	9	9	501	0	8.9745926574E+01	3.8145093644E+01	1.3538092065E+02	1.6689770994E+02	4.1800000000E+00	0.000E+00	0.0
</event>
<event>
    11  -1  1.0000000E+00  1.0000000E+00  -1.0000000E+00  -1.0000000E+00
	2212	-1	0	0	0	0	0.0000000000E+00	0.0000000000E+00	6.5000000000E+03	6.5000000000E+03	9.3827000000E-01	0.000E+00	0.0
	2212	-1	0	0	0	0	0.0000000000E+00	0.0000000000E+00	-6.5000000000E+03	6.5000000000E+03	9.3827000000E-01	0.000E+00	0.0
	2212	1	0	0	0	0	0.0000000000E+00	0.0000000000E+00	4.9237958924E+03	4.9237958924E+03	9.3827000000E-01	0.000E+00	0.0
	2212	1	0	0	0	0	0.0000000000E+00	0.0000000000E+00	-6.3260377781E+03	6.3260377781E+03	9.3827000000E-01	0.000E+00	0.0
	51	2	1	2	0	0	-9.0843948111E+01	-5.9249768748E+01	1.4104510880E+03	1.7600952545E+03	1.0472821373E+03	0.000E+00	0.0
	1000022	2	5	5	0	0	9.0843948111E+01	5.9249768748E+01	1.1797645039E+03	1.4728049759E+03	8.7495545851E+02	0.000E+00	0.0
	14	1	6	6	0	0	1.4853712540E+02	2.1503760055E+02	9.6019463867E+02	1.0468539494E+03	3.2500000000E+02	0.000E+00	0.0
	-14	1	6	6	0	0	-5.7693177285E+01	-1.5578783180E+02	2.1956986520E+02	4.2595102646E+02	3.2500000000E+02	0.000E+00	0.0
	25	2	5	5	0	0	-9.0843948111E+01	-5.9249768748E+01	2.2247738179E+02	2.7736135366E+02	1.2517977907E+02	0.000E+00	0.0
	-5	1	9	9	0	501	-9.4945959671E+01	-9.2042551167E+01	1.7921460278E+02	2.2275976462E+02	4.1800000000E+00	0.000E+00	0.0
	5	1	9	9	501	0	4.1020115598E+00	3.2792782419E+01	4.3262779016E+01	5.4601589041E+01	4.1800000000E+00	0.000E+00	0.0
</event>
<event>
    11  -1  1.0000000E+00  1.0000000E+00  -1.0000000E+00  -1.0000000E+00
	2212	-1	0	0	0	0	0.0000000000E+00	0.0000000000E+00	6.5000000000E+03	6.5000000000E+03	9.3827000000E-01	0.000E+00	0.0
	2212	-1	0	0	0	0	0.0000000000E+00	0.0000000000E+00	-6.5000000000E+03	6.5000000000E+03	9.3827000000E-01	0.000E+00	0.0
	2212	1	0	0	0	0	0.0000000000E+00	0.0000000000E+00	5.6823116764E+03	5.6823116764E+03	9.3827000000E-01	0.000E+00	0.0
	2212	1	0	0	0	0	0.0000000000E+00	0.0000000000E+00	-6.1612957343E+03	6.1612957343E+03	9.3827000000E-01	0.000E+00	0.0
	51	2	1	2	0	0	-7.9802998900E+00	-1.2048067570E+02	5.6879835772E+02	1.2024678554E+03	1.0525293787E+03	0.000E+00	0.0
	1000022	2	5	5	0	0	7.9802998900E+00	1.2048067570E+02	3.0691432462E+02	9.1173122823E+02	8.4998714783E+02	0.000E+00	0.0
	14	1	6	6	0	0	2.2343504854E+02	2.2584275211E+02	1.7025323991E+02	4.8532394882E+02	3.2500000000E+02	0.000E+00	0.0
	-14	1	6	6	0	0	-2.1545474865E+02	-1.0536207642E+02	1.3666108471E+02	4.2640727941E+02	3.2500000000E+02	0.000E+00	0.0
	25	2	5	5	0	0	-7.9802998900E+00	-1.2048067570E+02	1.7206973328E+02	2.4466136113E+02	1.2518749983E+02	0.000E+00	0.0
	-5	1	9	9	0	501	3.3483073197E+01	-1.1791773739E+02	1.5920680704E+02	2.0097260706E+02	4.1800000000E+00	0.000E+00	0.0
	5	1	9	9	501	0	-4.1463373087E+01	-2.5629383100E+00	1.2862926247E+01	4.3688754070E+01	4.1800000000E+00	0.000E+00	0.0
</event>
<event>
    11  -1  1.0000000E+00  1.0000000E+00  -1.0000000E+00  -1.0000000E+00
	2212	-1	0	0	0	0	0.0000000000E+00	0.0000000000E+00	6.5000000000E+03	6.5000000000E+03	9.3827000000E-01	0.000E+00	0.0
	2212	-1	0	0	0	0	0.0000000000E+00	0.0000000000E+00	-6.5000000000E+03	6.5000000000E+03	9.3827000000E-01	0.000E+00	0.0
	2212	1	0	0	0	0	0.0000000000E+00	0.0000000000E+00	6.2452877288E+03	6.2452877288E+03	9.3827000000E-01	0.000E+00	0.0
	2212	1	0	0	0	0	0.0000000000E+00	0.0000000000E+00	-5.4117626672E+03	5.4117626672E+03	9.3827000000E-01	0.000E+00	0.0
	51	2	1	2	0	0	-6.8354779533E+01	-1.7526196353E+01	-9.9452261435E+02	1.4501049563E+03	1.0529717995E+03	0.000E+00	0.0
	1000022	2	5	5	0	0	6.8354779533E+01	1.7526196353E+01	-5.3136701090E+02	1.0083608563E+03	8.5408499156E+02	0.000E+00	0.0
	14	1	6	6	0	0	-1.3460554180E+02	3.9580312902E+01	-5.1407884014E+02	6.2416929349E+02	3.2500000000E+02	0.000E+00	0.0
	-14	1	6	6	0	0	2.0296032133E+02	-2.2054116549E+01	-1.7288170753E+01	3.8419156282E+02	3.2500000000E+02	0.000E+00	0.0
	25	2	5	5	0	0	-6.8354779533E+01	-1.7526196353E+01	-3.0215805071E+02	3.3458874768E+02	1.2518226319E+02	0.000E+00	0.0
	-5	1	9	9	0	501	-7.7419345253E+01	-1.8803644927E+01	-3.1107547530E+02	3.2114289003E+02	4.1800000000E+00	0.000E+00	0.0
	5	1	9	9	501	0	9.0645657203E+00	1.2774485735E+00	8.9174245897E+00	1.3445857647E+01	4.1800000000E+00	0.000E+00	0.0
</event>
<event>
    11  -1  1.0000000E+00  1.0000000E+00  -1.0000000E+00  -1.0000000E+00
	2212	-1	0	0	0	0	0.0000000000E+00	0.0000000000E+00	6.5000000000E+03	6.5000000000E+03	9.3827000000E-01	0.000E+00	0.0
	2212	-1	0	0	0	0	0.0000000000E+00	0.0000000000E+00	-6.5000000000E+03	6.5000000000E+03	9.3827000000E-01	0.000E+00	0.0
	2212	1	0	0	0	0	0.0000000000E+00	0.0000000000E+00	5.7197985080E+03	5.7197985080E+03	9.3827000000E-01	0.000E+00	0.0
	2212	1	0	0	0	0	0.0000000000E+00	0.0000000000E+00	-6.1482824710E+03	6.1482824710E+03	9.3827000000E-01	0.000E+00	0.0
	51	2	1	2	0	0	-5.7469855549E+01	-1.9778222753E+01	5.5523648824E+02	1.1872757405E+03	1.0476841908E+03	0.000E+00	0.0
	1000022	2	5	5	0	0	5.7469855549E+01	1.9778222753E+01	2.3131973990E+02	8.9055688017E+02	8.5783959594E+02	0.000E+00	0.0
	14	1	6	6	0	0	-4.2797653108E+01	3.9710355827E+01	3.9311344134E+02	5.1339237356E+02	3.2500000000E+02	0.000E+00	0.0
	-14	1	6	6	0	0	1.0026750866E+02	-1.9932133074E+01	-1.6179370143E+02	3.7716450661E+02	3.2500000000E+02	0.000E+00	0.0
	25	2	5	5	0	0	-5.7469855549E+01	-1.9778222753E+01	1.9716422311E+02	2.4136214092E+02	1.2525170578E+02	0.000E+00	0.0
	-5	1	9	9	0	501	-8.6768501335E+00	3.8272908069E+01	1.4229567515E+02	1.4766731116E+02	4.1800000000E+00	0.000E+00	0.0
	5	1	9	9	501	0	-4.8793005416E+01	-5.8051130822E+01	5.4868547963E+01	9.3694829755E+01	4.1800000000E+00	0.000E+00	0.0
</event>
<event>
    11  -1  1.0000000E+00  1.0000000E+00  -1.0000000E+00  -1.0000000E+00
	2212	-1	0	0	0	0	0.0000000000E+00	0.0000000000E+00	6.5000000000E+03	6.5000000000E+03	9.3827000000E-01	0.000E+00	0.0
	2212	-1	0	0	0	0	0.0000000000E+00	0.0000000000E+00	-6.5000000000E+03	6.5000000000E+03	9.3827000000E-01	0.000E+00	0.0
	2212	1	0	0	0	0	0.0000000000E+00	0.0000000000E+00	5.6202268831E+03	5.6202268831E+03	9.3827000000E-01	0.000E+00	0.0
	2212	1	0	0	0	0	0.0000000000E+00	0.0000000000E+00	-6.1864884130E+03	6.1864884130E+03	9.3827000000E-01	0.000E+00	0.0
	51	2	1	2	0	0	8.7522629705E+01	4.5559527133E+01	6.0801463047E+02	1.2176592038E+03	1.0503695847E+03	0.000E+00	0.0
	1000022	2	5	5	0	0	-8.7522629705E+01	-4.5559527133E+01	4.3940995743E+02	9.8958192643E+02	8.8116706543E+02	0.000E+00	0.0
	14	1	6	6	0	0	-4.3681847894E+01	-1.9797882641E+02	4.9265547926E+02	6.2404979031E+02	3.2500000000E+02	0.000E+00	0.0
	-14	1	6	6	0	0	-4.3840781811E+01	1.5241929928E+02	-5.3245521824E+01	3.6553213612E+02	3.2500000000E+02	0.000E+00	0.0
	25	2	5	5	0	0	8.7522629705E+01	4.5559527133E+01	1.2685157249E+02	2.0370277752E+02	1.2517035952E+02	0.000E+00	0.0
	-5	1	9	9	0	501	-1.0006227882E+01	1.1100438537E-01	-1.9317243345E+01	2.2153221185E+01	4.1800000000E+00	0.000E+00	0.0
	5	1	9	9	501	0	9.7528857587E+01	4.5448522748E+01	1.4616881583E+02	1.8154955633E+02	4.1800000000E+00	0.000E+00	0.0
</event>
<event>
    11  -1  1.0000000E+00  1.0000000E+00  -1.0000000E+00  -1.0000000E+00
	2212	-1	0	0	0	0	0.0000000000E+00	0.0000000000E+00	6.5000000000E+03	6.5000000000E+03	9.3827000000E-01	0.000E+00	0.0
	2212	-1	0	0	0	0	0.0000000000E+00	0.0000000000E+00	-6.5000000000E+03	6.5000000000E+03	9.3827000000E-01	0.000E+00	0.0
	2212	1	0	0	0	0	0.0000000000E+00	0.0000000000E+00	5.9296334759E+03	5.9296334759E+03	9.3827000000E-01	0.000E+00	0.0
	2212	1	0	0	0	0	0.0000000000E+00	0.0000000000E+00	-6.0295902864E+03	6.0295902864E+03	9.3827000000E-01	0.000E+00	0.0
	51	2	1	2	0	0	-5.1983907300E+01	9.0209579949E+01	2.2873779813E+01	1.0414351241E+03	1.0359651601E+03	0.000E+00	0.0
	1000022	2	5	5	0	0	5.1983907300E+01	-9.0209579949E+01	1.6042344359E+02	8.6710310999E+02	8.4574938792E+02	0.000E+00	0.0
	14	1	6	6	0	0	-1.5637096555E+02	1.9059618942E+01	2.7029867648E+02	4.5111143019E+02	3.2500000000E+02	0.000E+00	0.0
	-14	1	6	6	0	0	2.0835487285E+02	-1.0926919889E+02	-1.0987523289E+02	4.1599167981E+02	3.2500000000E+02	0.000E+00	0.0
	25	2	5	5	0	0	-5.1983907300E+01	9.0209579949E+01	-6.0466633116E+01	1.7367312766E+02	1.2516407878E+02	0.000E+00	0.0
	-5	1	9	9	0	501	-6.4911278384E+01	1.1466010573E+02	-6.1962605792E+01	1.4566142531E+02	4.1800000000E+00	0.000E+00	0.0
	5	1	9	9	501	0	1.2927371085E+01	-2.4450525780E+01	1.4959726762E+00	2.8011702346E+01	4.1800000000E+00	0.000E+00	0.0
</event>
<event>
    11  -1  1.0000000E+00  1.0000000E+00  -1.0000000E+00  -1.0000000E+00
	2212	-1	0	0	0	0	0.0000000000E+00	0.0000000000E+00	6.5000000000E+03	6.5000000000E+03	9.3827000000E-01	0.000E+00	0.0
	2212	-1	0	0	0	0	0.0000000000E+00	0.0000000000E+00	-6.5000000000E+03	6.5000000000E+03	9.3827000000E-01	0.000E+00	0.0
	2212	1	0	0	0	0	0.0000000000E+00	0.0000000000E+00	5.5480632933E+03	5.5480632933E+03	9.3827000000E-01	0.000E+00	0.0
	2212	1	0	0	0	0	0.0000000000E+00	0.0000000000E+00	-6.2079430374E+03	6.2079430374E+03	9.3827000000E-01	0.000E+00	0.0
	51	2	1	2	0	0	1.1369096302E+02	5.3466815742E+01	7.5468795500E+02	1.3028496527E+03	1.0545515504E+03	0.000E+00	0.0
	1000022	2	5	5	0	0	-1.1369096302E+02	-5.3466815742E+01	4.5089774093E+02	9.6989926410E+02	8.4947717702E+02	0.000E+00	0.0
	14	1	6	6	0	0	1.9066846098E+01	-2.8413043819E+02	1.6884547967E+02	4.6392612185E+02	3.2500000000E+02	0.000E+00	0.0
	-14	1	6	6	0	0	-1.3275780912E+02	2.3066362245E+02	2.8205226126E+02	5.0597314226E+02	3.2500000000E+02	0.000E+00	0.0
	25	2	5	5	0	0	1.1369096302E+02	5.3466815742E+01	2.0898200312E+02	2.7409440515E+02	1.2517959040E+02	0.000E+00	0.0
	-5	1	9	9	0	501	1.0836788844E+01	5.3847900880E+01	1.3927588473E+02	1.4977408617E+02	4.1800000000E+00	0.000E+00	0.0
	5	1	9	9	501	0	1.0285417417E+02	-3.8108513734E-01	6.9706118387E+01	1.2432031898E+02	4.1800000000E+00	0.000E+00	0.0
</event>
<event>
    11  -1  1.0000000E+00  1.0000000E+00  -1.0000000E+00  -1.0000000E+00
	2212	-1	0	0	0	0	0.0000000000E+00	0.0000000000E+00	6.5000000000E+03	6.5000000000E+03	9.3827000000E-01	0.000E+00	0.0
	2212	-1	0	0	0	0	0.0000000000E+00	0.0000000000E+00	-6.5000000000E+03	6.5000000000E+03	9.3827000000E-01	0.000E+00	0.0
	2212	1	0	0	0	0	0.0000000000E+00	0.0000000000E+00	6.2337024754E+03	6.2337024754E+03	9.3827000000E-01	0.000E+00	0.0
	2212	1	0	0	0	0	0.0000000000E+00	0.0000000000E+00	-5.4565293735E+03	5.4565293735E+03	9.3827000000E-01	0.000E+00	0.0
	51	2	1	2	0	0	-3.0877441457E+02	-9.0307766899E+01	-9.7943019671E+02	1.4745423770E+03	1.0542744327E+03	0.000E+00	0.0
	1000022	2	5	5	0	0	3.0877441457E+02	9.0307766899E+01	-3.4403797557E+02	7.5589567712E+02	5.9120133136E+02	0.000E+00	0.0
	14	1	6	6	0	0	0.0000000000E+00	0.0000000000E+00	0.0000000000E+00	0.0000000000E+00	0.0000000000E+00	0.000E+00	0.0
	-14	1	6	6	0	0	0.0000000000E+00	0.0000000000E+00	0.0000000000E+00	0.0000000000E+00	0.0000000000E+00	0.000E+00	0.0
	25	2	5	5	0	0	-3.0877441457E+02	-9.0307766899E+01	-4.3313512634E+02	5.5387247403E+02	1.2518605341E+02	0.000E+00	0.0
	-5	1	9	9	0	501	-1.8854448700E+02	-1.1519638624E+02	-3.0150406381E+02	3.7382001535E+02	4.1800000000E+00	0.000E+00	0.0
	5	1	9	9	501	0	-1.2022992757E+02	2.4888619341E+01	-1.3163106252E+02	1.8005245868E+02	4.1800000000E+00	0.000E+00	0.0
</event>
<event>
    11  -1  1.0000000E+00  1.0000000E+00  -1.0000000E+00  -1.0000000E+00
	2212	-1	0	0	0	0	0.0000000000E+00	0.0000000000E+00	6.5000000000E+03	6.5000000000E+03	9.3827000000E-01	0.000E+00	0.0
	2212	-1	0	0	0	0	0.0000000000E+00	0.0000000000E+00	-6.5000000000E+03	6.5000000000E+03	9.3827000000E-01	0.000E+00	0.0
	2212	1	0	0	0	0	0.0000000000E+00	0.0000000000E+00	5.6186356796E+03	5.6186356796E+03	9.3827000000E-01	0.000E+00	0.0
	2212	1	0	0	0	0	0.0000000000E+00	0.0000000000E+00	-6.1848675264E+03	6.1848675264E+03	9.3827000000E-01	0.000E+00	0.0
	51	2	1	2	0	0	6.2291713686E+01	9.5517195880E+01	6.7176709983E+02	1.2550939815E+03	1.0540332413E+03	0.000E+00	0.0
	1000022	2	5	5	0	0	-6.2291713686E+01	-9.5517195880E+01	3.6337543692E+02	9.3225159705E+02	8.5090983055E+02	0.000E+00	0.0
	14	1	6	6	0	0	-1.7413763246E+02	1.6913881136E+02	7.8225952953E+01	4.1312970392E+02	3.2500000000E+02	0.000E+00	0.0
	-14	1	6	6	0	0	1.1184591877E+02	-2.6465600724E+02	2.8514948397E+02	5.1912189313E+02	3.2500000000E+02	0.000E+00	0.0
	25	2	5	5	0	0	6.2291713686E+01	9.5517195880E+01	2.0285640988E+02	2.6424519695E+02	1.2518389984E+02	0.000E+00	0.0
	-5	1	9	9	0	501	9.3065726524E+00	4.1549759167E+01	1.8016283904E+02	1.8517320473E+02	4.1800000000E+00	0.000E+00	0.0
	5	1	9	9	501	0	5.2985141034E+01	5.3967436712E+01	2.2693570847E+01	7.9071992219E+01	4.1800000000E+00	0.000E+00	0.0
</event>
<event>
    11  -1  1.0000000E+00  1.0000000E+00  -1.0000000E+00  -1.0000000E+00
	2212	-1	0	0	0	0	0.0000000000E+00	0.0000000000E+00	6.5000000000E+03	6.5000000000E+03	9.3827000000E-01	0.000E+00	0.0
	2212	-1	0	0	0	0	0.0000000000E+00	0.0000000000E+00	-6.5000000000E+03	6.5000000000E+03	9.3827000000E-01	0.000E+00	0.0
	2212	1	0	0	0	0	0.0000000000E+00	0.0000000000E+00	6.2497242520E+03	6.2497242520E+03	9.3827000000E-01	0.000E+00	0.0
	2212	1	0	0	0	0	0.0000000000E+00	0.0000000000E+00	-5.4066063593E+03	5.4066063593E+03	9.3827000000E-01	0.000E+00	0.0
	51	2	1	2	0	0	-1.1904758482E+02	1.3773900823E+01	-8.4820602688E+02	1.3521890241E+03	1.0462311624E+03	0.000E+00	0.0
	1000022	2	5	5	0	0	1.1904758482E+02	-1.3773900823E+01	-7.0388621600E+02	1.1213663982E+03	8.6466452808E+02	0.000E+00	0.0
	14	1	6	6	0	0	4.0385519703E+01	1.2247423028E+02	-6.7369943425E+02	7.5903020691E+02	3.2500000000E+02	0.000E+00	0.0
	-14	1	6	6	0	0	7.8662065113E+01	-1.3624813111E+02	-3.0186781745E+01	3.6233619128E+02	3.2500000000E+02	0.000E+00	0.0
	25	2	5	5	0	0	-1.1904758482E+02	1.3773900823E+01	-1.3923167675E+02	2.2230299055E+02	1.2518431214E+02	0.000E+00	0.0
	-5	1	9	9	0	501	-1.4383829483E+02	1.5446688932E+01	-1.3251033012E+02	1.9622567429E+02	4.1800000000E+00	0.000E+00	0.0
	5	1	9	9	501	0	2.4790710019E+01	-1.6727881091E+00	-6.7213466257E+00	2.6077316268E+01	4.1800000000E+00	0.000E+00	0.0
</event>
<event>
    11  -1  1.0000000E+00  1.0000000E+00  -1.0000000E+00  -1.0000000E+00
	2212	-1	0	0	0	0	0.0000000000E+00	0.0000000000E+00	6.5000000000E+03	6.5000000000E+03	9.3827000000E-01	0.000E+00	0.0
	2212	-1	0	0	0	0	0.0000000000E+00	0.0000000000E+00	-6.5000000000E+03	6.5000000000E+03	9.3827000000E-01	0.000E+00	0.0
	2212	1	0	0	0	0	0.0000000000E+00	0.0000000000E+00	4.9726029674E+03	4.9726029674E+03	9.3827000000E-01	0.000E+00	0.0
	2212	1	0	0	0	0	0.0000000000E+00	0.0000000000E+00	-6.3184181491E+03	6.3184181491E+03	9.3827000000E-01	0.000E+00	0.0
	51	2	1	2	0	0	6.9988896642E+01	1.1656647582E+02	1.2684842790E+03	1.6543666086E+03	1.0532759946E+03	0.000E+00	0.0
	1000022	2	5	5	0	0	-6.9988896642E+01	-1.1656647582E+02	1.1895260730E+03	1.4669295722E+03	8.4759890433E+02	0.000E+00	0.0
	14	1	6	6	0	0	-6.4552369652E+01	7.4212080428E+00	1.0340707408E+03	1.0858864489E+03	3.2500000000E+02	0.000E+00	0.0
	-14	1	6	6	0	0	-5.4365269894E+00	-1.2398768386E+02	1.5545533216E+02	3.8104312338E+02	3.2500000000E+02	0.000E+00	0.0
	25	2	5	5	0	0	6.9988896642E+01	1.1656647582E+02	1.5628910872E+02	2.4204931123E+02	1.2520141622E+02	0.000E+00	0.0
	-5	1	9	9	0	501	1.2973252297E+00	1.0743953862E+02	5.9362020475E+01	1.2282613478E+02	4.1800000000E+00	0.000E+00	0.0
	5	1	9	9	501	0	6.8691571412E+01	9.1269371989E+00	9.6927088249E+01	1.1922317645E+02	4.1800000000E+00	0.000E+00	0.0
</event>
<event>
    11  -1  1.0000000E+00  1.0000000E+00  -1.0000000E+00  -1.0000000E+00
	2212	-1	0	0	0	0	0.0000000000E+00	0.0000000000E+00	6.5000000000E+03	6.5000000000E+03	9.3827000000E-01	0.000E+00	0.0
	2212	-1	0	0	0	0	0.0000000000E+00	0.0000000000E+00	-6.5000000000E+03	6.5000000000E+03	9.3827000000E-01	0.000E+00	0.0
	2212	1	0	0	0	0	0.0000000000E+00	0.0000000000E+00	5.5751215538E+03	5.5751215538E+03	9.3827000000E-01	0.000E+00	0.0
	2212	1	0	0	0	0	0.0000000000E+00	0.0000000000E+00	-6.2063377818E+03	6.2063377818E+03	9.3827000000E-01	0.000E+00	0.0
	51	2	1	2	0	0	8.6378849404E+01	9.8166462329E+01	6.1180949694E+02	1.2156546569E+03	1.0423086992E+03	0.000E+00	0.0
	1000022	2	5	5	0	0	-8.6378849404E+01	-9.8166462329E+01	5.4534566208E+02	1.0181925634E+03	8.4983306892E+02	0.000E+00	0.0
	14	1	6	6	0	0	2.2595457131E+02	-1.0169789829E+02	2.4414228029E+02	4.7605502186E+02	3.2500000000E+02	0.000E+00	0.0
	-14	1	6	6	0	0	-3.1233342071E+02	3.5314359560E+00	3.0120338180E+02	5.4213754153E+02	3.2500000000E+02	0.000E+00	0.0
	25	2	5	5	0	0	8.6378849404E+01	9.8166462329E+01	8.5870565924E+01	2.0034810108E+02	1.2517047400E+02	0.000E+00	0.0
	-5	1	9	9	0	501	4.3977238677E+01	2.8195719788E+01	-2.8507295572E+01	5.9658481684E+01	4.1800000000E+00	0.000E+00	0.0
	5	1	9	9	501	0	4.2401610727E+01	6.9970742541E+01	1.1437786150E+02	1.4068961939E+02	4.1800000000E+00	0.000E+00	0.0
</event>
<event>
    11  -1  1.0000000E+00  1.0000000E+00  -1.0000000E+00  -1.0000000E+00
	2212	-1	0	0	0	0	0.0000000000E+00	0.0000000000E+00	6.5000000000E+03	6.5000000000E+03	9.3827000000E-01	0.000E+00	0.0
	2212	-1	0	0	0	0	0.0000000000E+00	0.0000000000E+00	-6.5000000000E+03	6.5000000000E+03	9.3827000000E-01	0.000E+00	0.0
	2212	1	0	0	0	0	0.0000000000E+00	0.0000000000E+00	4.8981997090E+03	4.8981997090E+03	9.3827000000E-01	0.000E+00	0.0
	2212	1	0	0	0	0	0.0000000000E+00	0.0000000000E+00	-6.3277289587E+03	6.3277289587E+03	9.3827000000E-01	0.000E+00	0.0
	51	2	1	2	0	0	7.7152483457E+01	3.3432941138E+01	1.5424691155E+03	1.8681692792E+03	1.0506070705E+03	0.000E+00	0.0
	1000022	2	5	5	0	0	-7.7152483457E+01	-3.3432941138E+01	1.1014936672E+03	1.4130357591E+03	8.8108540466E+02	0.000E+00	0.0
	14	1	6	6	0	0	1.0931157441E+02	2.3781324828E+02	4.4612017526E+02	6.1086199107E+02	3.2500000000E+02	0.000E+00	0.0
	-14	1	6	6	0	0	-1.8646405787E+02	-2.7124618942E+02	6.5537349196E+02	8.0217376803E+02	3.2500000000E+02	0.000E+00	0.0
	25	2	5	5	0	0	7.7152483457E+01	3.3432941138E+01	3.2803558246E+02	3.6103557322E+02	1.2517617392E+02	0.000E+00	0.0
	-5	1	9	9	0	501	-2.8294660739E+01	-1.7264686599E+01	8.2842658612E+01	8.9325448309E+01	4.1800000000E+00	0.000E+00	0.0
	5	1	9	9	501	0	1.0544714420E+02	5.0697627738E+01	2.4519292384E+02	2.7171012491E+02	4.1800000000E+00	0.000E+00	0.0
</event>
<event>
    11  -1  1.0000000E+00  1.0000000E+00  -1.0000000E+00  -1.0000000E+00
	2212	-1	0	0	0	0	0.0000000000E+00	0.0000000000E+00	6.5000000000E+03	6.5000000000E+03	9.3827000000E-01	0.000E+00	0.0
	2212	-1	0	0	0	0	0.0000000000E+00	0.0000000000E+00	-6.5000000000E+03	6.5000000000E+03	9.3827000000E-01	0.000E+00	0.0
	2212	1	0	0	0	0	0.0000000000E+00	0.0000000000E+00	5.1171518415E+03	5.1171518415E+03	9.3827000000E-01	0.000E+00	0.0
	2212	1	0	0	0	0	0.0000000000E+00	0.0000000000E+00	-6.2990779728E+03	6.2990779728E+03	9.3827000000E-01	0.000E+00	0.0
	51	2	1	2	0	0	-1.0919701262E+02	6.6316461818E+01	1.0548353389E+03	1.4967892550E+03	1.0542194369E+03	0.000E+00	0.0
	1000022	2	5	5	0	0	1.0919701262E+02	-6.6316461818E+01	1.0960247085E+03	1.3853434996E+03	8.3760646469E+02	0.000E+00	0.0
	14	1	6	6	0	0	9.0659649763E+00	1.3190445680E+02	1.9343052439E+02	4.0065115151E+02	3.2500000000E+02	0.000E+00	0.0
	-14	1	6	6	0	0	1.0013104764E+02	-1.9822091862E+02	9.0259418406E+02	9.8469234809E+02	3.2500000000E+02	0.000E+00	0.0
	25	2	5	5	0	0	-1.0919701262E+02	6.6316461818E+01	8.5901422797E+01	1.9842668605E+02	1.2518879592E+02	0.000E+00	0.0
	-5	1	9	9	0	501	-4.0587744981E+01	8.4270129896E+01	8.6371522302E+01	1.2738262087E+02	4.1800000000E+00	0.000E+00	0.0
	5	1	9	9	501	0	-6.8609267638E+01	-1.7953668079E+01	-4.7009950515E-01	7.1044065176E+01	4.1800000000E+00	0.000E+00	0.0
</event>
<event>
    11  -1  1.0000000E+00  1.0000000E+00  -1.0000000E+00  -1.0000000E+00
	2212	-1	0	0	0	0	0.0000000000E+00	0.0000000000E+00	6.5000000000E+03	6.5000000000E+03	9.3827000000E-01	0.000E+00	0.0
	2212	-1	0	0	0	0	0.0000000000E+00	0.0000000000E+00	-6.5000000000E+03	6.5000000000E+03	9.3827000000E-01	0.000E+00	0.0
	2212	1	0	0	0	0	0.0000000000E+00	0.0000000000E+00	6.2306306060E+03	6.2306306060E+03	9.3827000000E-01	0.000E+00	0.0
	2212	1	0	0	0	0	0.0000000000E+00	0.0000000000E+00	-5.4476052817E+03	5.4476052817E+03	9.3827000000E-01	0.000E+00	0.0
	51	2	1	2	0	0	-1.1217883508E+02	5.3618760406E+01	-9.0280467556E+02	1.4015873339E+03	1.0648622962E+03	0.000E+00	0.0
	1000022	2	5	5	0	0	1.1217883508E+02	-5.3618760406E+01	-5.2570031030E+02	1.0097607615E+03	8.5311014332E+02	0.000E+00	0.0
	14	1	6	6	0	0	2.3612599771E+02	1.2685565610E+02	-1.0364886748E+02	4.3383860134E+02	3.2500000000E+02	0.000E+00	0.0
	-14	1	6	6	0	0	-1.2394716263E+02	-1.8047441651E+02	-4.2205144282E+02	5.7592216012E+02	3.2500000000E+02	0.000E+00	0.0
	25	2	5	5	0	0	-1.1217883508E+02	5.3618760406E+01	-2.5732501404E+02	3.1200335080E+02	1.2518332776E+02	0.000E+00	0.0
	-5	1	9	9	0	501	-8.9606878767E+01	2.0429788277E+01	-5.8276596211E+01	1.0890547754E+02	4.1800000000E+00	0.000E+00	0.0
	5	1	9	9	501	0	-2.2571956318E+01	3.3188972129E+01	-1.9904841783E+02	2.0309787326E+02	4.1800000000E+00	0.000E+00	0.0
</event>
<event>
    11  -1  1.0000000E+00  1.0000000E+00  -1.0000000E+00  -1.0000000E+00
	2212	-1	0	0	0	0	0.0000000000E+00	0.0000000000E+00	6.5000000000E+03	6.5000000000E+03	9.3827000000E-01	0.000E+00	0.0
	2212	-1	0	0	0	0	0.0000000000E+00	0.0000000000E+00	-6.5000000000E+03	6.5000000000E+03	9.3827000000E-01	0.000E+00	0.0
	2212	1	0	0	0	0	0.0000000000E+00	0.0000000000E+00	6.3228290332E+03	6.3228290332E+03	9.3827000000E-01	0.000E+00	0.0
	2212	1	0	0	0	0	0.0000000000E+00	0.0000000000E+00	-4.9452817095E+03	4.9452817095E+03	9.3827000000E-01	0.000E+00	0.0
	51	2	1	2	0	0	5.5407664748E+01	8.4509995630E+01	-1.3347489504E+03	1.7010498170E+03	1.0496684097E+03	0.000E+00	0.0
	1000022	2	5	5	0	0	-5.5407664748E+01	-8.4509995630E+01	-1.2124753028E+03	1.5013884907E+03	8.7969261190E+02	0.000E+00	0.0
	14	1	6	6	0	0	1.3968038866E+02	-2.2330635322E+02	-3.3648732707E+02	5.3686596059E+02	3.2500000000E+02	0.000E+00	0.0
	-14	1	6	6	0	0	-1.9508805341E+02	1.3879635759E+02	-8.7598797571E+02	9.6452253009E+02	3.2500000000E+02	0.000E+00	0.0
	25	2	5	5	0	0	5.5407664748E+01	8.4509995630E+01	-1.6507202092E+02	2.3050076659E+02	1.2517940179E+02	0.000E+00	0.0
	-5	1	9	9	0	501	3.8410383989E+01	-1.3511043291E+00	5.1950443402E+00	3.9008255111E+01	4.1800000000E+00	0.000E+00	0.0
	5	1	9	9	501	0	1.6997280759E+01	8.5861099959E+01	-1.7026706526E+02	1.9149251148E+02	4.1800000000E+00	0.000E+00	0.0
</event>
<event>
    11  -1  1.0000000E+00  1.0000000E+00  -1.0000000E+00  -1.0000000E+00
	2212	-1	0	0	0	0	0.0000000000E+00	0.0000000000E+00	6.5000000000E+03	6.5000000000E+03	9.3827000000E-01	0.000E+00	0.0
	2212	-1	0	0	0	0	0.0000000000E+00	0.0000000000E+00	-6.5000000000E+03	6.5000000000E+03	9.3827000000E-01	0.000E+00	0.0
	2212	1	0	0	0	0	0.0000000000E+00	0.0000000000E+00	5.2388154490E+03	5.2388154490E+03	9.3827000000E-01	0.000E+00	0.0
	2212	1	0	0	0	0	0.0000000000E+00	0.0000000000E+00	-6.2919939382E+03	6.2919939382E+03	9.3827000000E-01	0.000E+00	0.0
	51	2	1	2	0	0	-1.8571890823E+01	-4.4250492681E+00	8.9241147633E+02	1.3587122086E+03	1.0243710882E+03	0.000E+00	0.0
	1000022	2	5	5	0	0	1.8571890823E+01	4.4250492681E+00	1.0437269900E+03	1.3422131226E+03	8.4368568825E+02	0.000E+00	0.0
	14	1	6	6	0	0	-7.0357169037E+01	2.0584121961E+02	7.7006407481E+02	8.6368073860E+02	3.2500000000E+02	0.000E+00	0.0
	-14	1	6	6	0	0	8.8929059861E+01	-2.0141617034E+02	2.7366291523E+02	4.7853238400E+02	3.2500000000E+02	0.000E+00	0.0
	25	2	5	5	0	0	-1.8571890823E+01	-4.4250492681E+00	9.4514991713E+00	1.2697749013E+02	1.2517769759E+02	0.000E+00	0.0
	-5	1	9	9	0	501	8.9667977360E+00	5.6896084862E+01	1.4165928364E+01	5.9461868964E+01	4.1800000000E+00	0.000E+00	0.0
	5	1	9	9	501	0	-2.7538688559E+01	-6.1321134130E+01	-4.7144291927E+00	6.7515621164E+01	4.1800000000E+00	0.000E+00	0.0
</event>
<event>
    11  -1  1.0000000E+00  1.0000000E+00  -1.0000000E+00  -1.0000000E+00
	2212	-1	0	0	0	0	0.0000000000E+00	0.0000000000E+00	6.5000000000E+03	6.5000000000E+03	9.3827000000E-01	0.000E+00	0.0
	2212	-1	0	0	0	0	0.0000000000E+00	0.0000000000E+00	-6.5000000000E+03	6.5000000000E+03	9.3827000000E-01	0.000E+00	0.0
	2212	1	0	0	0	0	0.0000000000E+00	0.0000000000E+00	5.3854119305E+03	5.3854119305E+03	9.3827000000E-01	0.000E+00	0.0
	2212	1	0	0	0	0	0.0000000000E+00	0.0000000000E+00	-6.2533847813E+03	6.2533847813E+03	9.3827000000E-01	0.000E+00	0.0
	51	2	1	2	0	0	-1.2060003670E+02	-2.7281450153E+01	9.3863541458E+02	1.4127358600E+03	1.0485692739E+03	0.000E+00	0.0
	1000022	2	5	5	0	0	1.2060003670E+02	2.7281450153E+01	6.5306258589E+02	1.0834534507E+03	8.5562374465E+02	0.000E+00	0.0
	14	1	6	6	0	0	-1.6378659377E+02	1.1821530110E+02	1.4186553398E+02	4.0810750477E+02	3.2500000000E+02	0.000E+00	0.0
	-14	1	6	6	0	0	2.8438663047E+02	-9.0933850948E+01	5.1119705191E+02	6.7534594595E+02	3.2500000000E+02	0.000E+00	0.0
	25	2	5	5	0	0	-1.2060003670E+02	-2.7281450153E+01	2.1491026491E+02	2.7774983754E+02	1.2517948680E+02	0.000E+00	0.0
	-5	1	9	9	0	501	-8.3441757864E+01	-7.6667160133E+01	1.4984282381E+02	1.8791148088E+02	4.1800000000E+00	0.000E+00	0.0
	5	1	9	9	501	0	-3.7158278833E+01	4.9385709981E+01	6.5067441097E+01	8.9838356659E+01	4.1800000000E+00	0.000E+00	0.0
</event>
<event>
    11  -1  1.0000000E+00  1.0000000E+00  -1.0000000E+00  -1.0000000E+00
	2212	-1	0	0	0	0	0.0000000000E+00	0.0000000000E+00	6.5000000000E+03	6.5000000000E+03	9.3827000000E-01	0.000E+00	0.0
	2212	-1	0	0	0	0	0.0000000000E+00	0.0000000000E+00	-6.5000000000E+03	6.5000000000E+03	9.3827000000E-01	0.000E+00	0.0
	2212	1	0	0	0	0	0.0000000000E+00	0.0000000000E+00	6.2414257344E+03	6.2414257344E+03	9.3827000000E-01	0.000E+00	0.0
	2212	1	0	0	0	0	0.0000000000E+00	0.0000000000E+00	-5.4450496253E+03	5.4450496253E+03	9.3827000000E-01	0.000E+00	0.0
	51	2	1	2	0	0	-1.0234918582E+02	6.8335046903E+01	-7.3927157379E+02	1.2856125264E+03	1.0445726751E+03	0.000E+00	0.0
	1000022	2	5	5	0	0	1.0234918582E+02	-6.8335046903E+01	-7.2064718806E+02	1.1223442727E+03	8.5157457831E+02	0.000E+00	0.0
	14	1	6	6	0	0	1.3487567119E+02	-9.9962077357E+01	-4.1591217338E+01	3.6815579983E+02	3.2500000000E+02	0.000E+00	0.0
	-14	1	6	6	0	0	-3.2526485368E+01	3.1627030454E+01	-6.7905597072E+02	7.5418847291E+02	3.2500000000E+02	0.000E+00	0.0
	25	2	5	5	0	0	-1.0234918582E+02	6.8335046903E+01	-7.5728921066E+01	1.9118036762E+02	1.2517998643E+02	0.000E+00	0.0
	-5	1	9	9	0	501	-9.4759176338E+01	4.7110290253E+00	-4.2041926196E+00	9.5061258830E+01	4.1800000000E+00	0.000E+00	0.0
	5	1	9	9	501	0	-7.5900094864E+00	6.3624017878E+01	-7.1524728446E+01	9.6119108788E+01	4.1800000000E+00	0.000E+00	0.0
</event>
<event>
    11  -1  1.0000000E+00  1.0000000E+00  -1.0000000E+00  -1.0000000E+00
	2212	-1	0	0	0	0	0.0000000000E+00	0.0000000000E+00	6.5000000000E+03	6.5000000000E+03	9.3827000000E-01	0.000E+00	0.0
	2212	-1	0	0	0	0	0.0000000000E+00	0.0000000000E+00	-6.5000000000E+03	6.5000000000E+03	9.3827000000E-01	0.000E+00	0.0
	2212	1	0	0	0	0	0.0000000000E+00	0.0000000000E+00	5.5988206636E+03	5.5988206636E+03	9.3827000000E-01	0.000E+00	0.0
	2212	1	0	0	0	0	0.0000000000E+00	0.0000000000E+00	-6.1924970519E+03	6.1924970519E+03	9.3827000000E-01	0.000E+00	0.0
	51	2	1	2	0	0	1.2758747145E+02	3.9107512987E+01	6.8764904424E+02	1.2645672696E+03	1.0528348450E+03	0.000E+00	0.0
	1000022	2	5	5	0	0	-1.2758747145E+02	-3.9107512987E+01	3.9422109433E+02	9.3804226051E+02	8.4065751102E+02	0.000E+00	0.0
	14	1	6	6	0	0	1.8825514929E+02	-1.0537762949E+02	1.4167563978E+02	4.1501979825E+02	3.2500000000E+02	0.000E+00	0.0
	-14	1	6	6	0	0	-3.1584262074E+02	6.6270116501E+01	2.5254545455E+02	5.2302246226E+02	3.2500000000E+02	0.000E+00	0.0
	25	2	5	5	0	0	1.2758747145E+02	3.9107512987E+01	1.9945529393E+02	2.7064002395E+02	1.2512253131E+02	0.000E+00	0.0
	-5	1	9	9	0	501	-1.6722492883E+01	4.4751562979E+00	-4.5020075788E+00	1.8368703393E+01	4.1800000000E+00	0.000E+00	0.0
	5	1	9	9	501	0	1.4430996433E+02	3.4632356689E+01	2.0395730151E+02	2.5227132056E+02	4.1800000000E+00	0.000E+00	0.0
</event>
<event>
    11  -1  1.0000000E+00  1.0000000E+00  -1.0000000E+00  -1.0000000E+00
	2212	-1	0	0	0	0	0.0000000000E+00	0.0000000000E+00	6.5000000000E+03	6.5000000000E+03	9.3827000000E-01	0.000E+00	0.0
	2212	-1	0	0	0	0	0.0000000000E+00	0.0000000000E+00	-6.5000000000E+03	6.5000000000E+03	9.3827000000E-01	0.000E+00	0.0
	2212	1	0	0	0	0	0.0000000000E+00	0.0000000000E+00	5.5051221867E+03	5.5051221867E+03	9.3827000000E-01	0.000E+00	0.0
	2212	1	0	0	0	0	0.0000000000E+00	0.0000000000E+00	-6.1930429955E+03	6.1930429955E+03	9.3827000000E-01	0.000E+00	0.0
	51	2	1	2	0	0	6.0142564199E+00	-1.1511530205E+02	8.7741206588E+02	1.4158666926E+03	1.1052324886E+03	0.000E+00	0.0
	1000022	2	5	5	0	0	-6.0142564199E+00	1.1511530205E+02	3.6651430155E+02	9.3816393897E+02	8.5588032990E+02	0.000E+00	0.0
	14	1	6	6	0	0	-2.4770806584E+02	9.9789434889E+01	4.9390553417E+01	4.2353470220E+02	3.2500000000E+02	0.000E+00	0.0
	-14	1	6	6	0	0	2.4169380942E+02	1.5325867158E+01	3.1712374813E+02	5.1462923678E+02	3.2500000000E+02	0.000E+00	0.0
	25	2	5	5	0	0	6.0142564199E+00	-1.1511530205E+02	3.2140650724E+02	3.6367087891E+02	1.2516653397E+02	0.000E+00	0.0
	-5	1	9	9	0	501	2.0081064845E+00	-9.5716022314E+01	9.0271887455E+01	1.3165134061E+02	4.1800000000E+00	0.000E+00	0.0
	5	1	9	9	501	0	4.0061499354E+00	-1.9399279733E+01	2.3113461979E+02	2.3201953830E+02	4.1800000000E+00	0.000E+00	0.0
</event>
<event>
    11  -1  1.0000000E+00  1.0000000E+00  -1.0000000E+00  -1.0000000E+00
	2212	-1	0	0	0	0	0.0000000000E+00	0.0000000000E+00	6.5000000000E+03	6.5000000000E+03	9.3827000000E-01	0.000E+00	0.0
	2212	-1	0	0	0	0	0.0000000000E+00	0.0000000000E+00	-6.5000000000E+03	6.5000000000E+03	9.3827000000E-01	0.000E+00	0.0
	2212	1	0	0	0	0	0.0000000000E+00	0.0000000000E+00	5.5951500727E+03	5.5951500727E+03	9.3827000000E-01	0.000E+00	0.0
	2212	1	0	0	0	0	0.0000000000E+00	0.0000000000E+00	-6.1966459943E+03	6.1966459943E+03	9.3827000000E-01	0.000E+00	0.0
	51	2	1	2	0	0	6.8847293058E+01	1.1191303384E+02	5.9993316270E+02	1.2145549295E+03	1.0478355787E+03	0.000E+00	0.0
	1000022	2	5	5	0	0	-6.8847293058E+01	-1.1191303384E+02	5.0355072639E+02	1.0019747708E+03	8.5622755757E+02	0.000E+00	0.0
	14	1	6	6	0	0	5.2369060288E+01	1.2632533719E+02	4.5903137492E+02	5.7882243603E+02	3.2500000000E+02	0.000E+00	0.0
	-14	1	6	6	0	0	-1.2121635335E+02	-2.3823837104E+02	4.4519351466E+01	4.2315233476E+02	3.2500000000E+02	0.000E+00	0.0
	25	2	5	5	0	0	6.8847293058E+01	1.1191303384E+02	9.7945195225E+01	2.0622916225E+02	1.2519077117E+02	0.000E+00	0.0
	-5	1	9	9	0	501	8.7955370850E+01	8.6008157497E+01	2.3909416202E+01	1.2539012322E+02	4.1800000000E+00	0.000E+00	0.0
	5	1	9	9	501	0	-1.9108077792E+01	2.5904876348E+01	7.4035779023E+01	8.0839039028E+01	4.1800000000E+00	0.000E+00	0.0
</event>
<event>
    11  -1  1.0000000E+00  1.0000000E+00  -1.0000000E+00  -1.0000000E+00
	2212	-1	0	0	0	0	0.0000000000E+00	0.0000000000E+00	6.5000000000E+03	6.5000000000E+03	9.3827000000E-01	0.000E+00	0.0
	2212	-1	0	0	0	0	0.0000000000E+00	0.0000000000E+00	-6.5000000000E+03	6.5000000000E+03	9.3827000000E-01	0.000E+00	0.0
	2212	1	0	0	0	0	0.0000000000E+00	0.0000000000E+00	5.5066372261E+03	5.5066372261E+03	9.3827000000E-01	0.000E+00	0.0
	2212	1	0	0	0	0	0.0000000000E+00	0.0000000000E+00	-6.2232478366E+03	6.2232478366E+03	9.3827000000E-01	0.000E+00	0.0
	51	2	1	2	0	0	-9.9133037715E+01	3.5002095120E+00	6.0185865804E+02	1.2131507087E+03	1.0486473130E+03	0.000E+00	0.0
	1000022	2	5	5	0	0	9.9133037715E+01	-3.5002095120E+00	7.0900515846E+02	1.1102138771E+03	8.4855578931E+02	0.000E+00	0.0
	14	1	6	6	0	0	2.2341418496E+01	2.6866750244E+02	3.8110472897E+02	5.6881207819E+02	3.2500000000E+02	0.000E+00	0.0
	-14	1	6	6	0	0	7.6791619219E+01	-2.7216771196E+02	3.2790042949E+02	5.4140179892E+02	3.2500000000E+02	0.000E+00	0.0
	25	2	5	5	0	0	-9.9133037715E+01	3.5002095120E+00	7.6054520283E+00	1.5990106028E+02	1.2518344756E+02	0.000E+00	0.0
	-5	1	9	9	0	501	-8.9096749332E+01	5.3101853662E+01	-1.3946011817E+01	1.0473777375E+02	4.1800000000E+00	0.000E+00	0.0
	5	1	9	9	501	0	-1.0036288383E+01	-4.9601644150E+01	2.1551463845E+01	5.5163286530E+01	4.1800000000E+00	0.000E+00	0.0
</event>
<event>
    11  -1  1.0000000E+00  1.0000000E+00  -1.0000000E+00  -1.0000000E+00
	2212	-1	0	0	0	0	0.0000000000E+00	0.0000000000E+00	6.5000000000E+03	6.5000000000E+03	9.3827000000E-01	0.000E+00	0.0
	2212	-1	0	0	0	0	0.0000000000E+00	0.0000000000E+00	-6.5000000000E+03	6.5000000000E+03	9.3827000000E-01	0.000E+00	0.0
	2212	1	0	0	0	0	0.0000000000E+00	0.0000000000E+00	5.8377272295E+03	5.8377272295E+03	9.3827000000E-01	0.000E+00	0.0
	2212	1	0	0	0	0	0.0000000000E+00	0.0000000000E+00	-6.0891367601E+03	6.0891367601E+03	9.3827000000E-01	0.000E+00	0.0
	51	2	1	2	0	0	8.3369652087E+01	-7.5842234663E+01	3.3013485852E+02	1.1000480503E+03	1.0432708875E+03	0.000E+00	0.0
	1000022	2	5	5	0	0	-8.3369652087E+01	7.5842234663E+01	1.3040066884E+02	8.6573764293E+02	8.4840720677E+02	0.000E+00	0.0
	14	1	6	6	0	0	7.8356784066E+01	-1.7314704409E+02	1.8966597107E+02	4.2156596764E+02	3.2500000000E+02	0.000E+00	0.0
	-14	1	6	6	0	0	-1.6172643615E+02	2.4898927875E+02	-5.9265302232E+01	4.4417167529E+02	3.2500000000E+02	0.000E+00	0.0
	25	2	5	5	0	0	8.3369652087E+01	-7.5842234663E+01	1.2100886180E+02	2.0739836743E+02	1.2517345857E+02	0.000E+00	0.0
	-5	1	9	9	0	501	-1.4922397793E+01	-6.6156291303E+01	3.5348242439E+01	7.6591797723E+01	4.1800000000E+00	0.000E+00	0.0
	5	1	9	9	501	0	9.8292049880E+01	-9.6859433598E+00	8.5660619360E+01	1.3080656970E+02	4.1800000000E+00	0.000E+00	0.0
</event>
<event>
    11  -1  1.0000000E+00  1.0000000E+00  -1.0000000E+00  -1.0000000E+00
	2212	-1	0	0	0	0	0.0000000000E+00	0.0000000000E+00	6.5000000000E+03	6.5000000000E+03	9.3827000000E-01	0.000E+00	0.0
	2212	-1	0	0	0	0	0.0000000000E+00	0.0000000000E+00	-6.5000000000E+03	6.5000000000E+03	9.3827000000E-01	0.000E+00	0.0
	2212	1	0	0	0	0	0.0000000000E+00	0.0000000000E+00	6.3171466340E+03	6.3171466340E+03	9.3827000000E-01	0.000E+00	0.0
	2212	1	0	0	0	0	0.0000000000E+00	0.0000000000E+00	-4.9821443309E+03	4.9821443309E+03	9.3827000000E-01	0.000E+00	0.0
	51	2	1	2	0	0	-1.1466062497E+02	7.4206561085E+00	-1.2187748036E+03	1.6151762194E+03	1.0536508307E+03	0.000E+00	0.0
	1000022	2	5	5	0	0	1.1466062497E+02	-7.4206561085E+00	-1.2253159511E+03	1.4984418017E+03	8.5482543713E+02	0.000E+00	0.0
	14	1	6	6	0	0	1.3107309347E+02	-2.6541367234E+02	-5.3035728250E+02	6.8886023284E+02	3.2500000000E+02	0.000E+00	0.0
	-14	1	6	6	0	0	-1.6412468495E+01	2.5799301623E+02	-6.9495866863E+02	8.0958156887E+02	3.2500000000E+02	0.000E+00	0.0
	25	2	5	5	0	0	-1.1466062497E+02	7.4206561085E+00	-1.0968635199E+02	2.0226723345E+02	1.2521506643E+02	0.000E+00	0.0
	-5	1	9	9	0	501	-3.4744607529E+01	-2.5254768744E+01	-1.0745708652E+02	1.1579934775E+02	4.1800000000E+00	0.000E+00	0.0
	5	1	9	9	501	0	-7.9916017443E+01	3.2675424852E+01	-2.2292654715E+00	8.6467885702E+01	4.1800000000E+00	0.000E+00	0.0
</event>
<event>
    11  -1  1.0000000E+00  1.0000000E+00  -1.0000000E+00  -1.0000000E+00
	2212	-1	0	0	0	0	0.0000000000E+00	0.0000000000E+00	6.5000000000E+03	6.5000000000E+03	9.3827000000E-01	0.000E+00	0.0
	2212	-1	0	0	0	0	0.0000000000E+00	0.0000000000E+00	-6.5000000000E+03	6.5000000000E+03	9.3827000000E-01	0.000E+00	0.0
	2212	1	0	0	0	0	0.0000000000E+00	0.0000000000E+00	6.1917940469E+03	6.1917940469E+03	9.3827000000E-01	0.000E+00	0.0
	2212	1	0	0	0	0	0.0000000000E+00	0.0000000000E+00	-5.5953451486E+03	5.5953451486E+03	9.3827000000E-01	0.000E+00	0.0
	51	2	1	2	0	0	-1.4276767210E+02	-3.3557566780E+00	-5.9732756113E+02	1.2216685832E+03	1.0560681998E+03	0.000E+00	0.0
	1000022	2	5	5	0	0	1.4276767210E+02	3.3557566780E+00	-4.9358895434E+02	9.9667717325E+02	8.5401490768E+02	0.000E+00	0.0
	14	1	6	6	0	0	3.3178579998E+02	-9.2902956540E+01	-2.2266425684E+02	5.2337094653E+02	3.2500000000E+02	0.000E+00	0.0
	-14	1	6	6	0	0	-1.8901812787E+02	9.6258713218E+01	-2.7092469751E+02	4.7330622672E+02	3.2500000000E+02	0.000E+00	0.0
	25	2	5	5	0	0	-1.4276767210E+02	-3.3557566780E+00	-1.0285994397E+02	2.1618363118E+02	1.2554411582E+02	0.000E+00	0.0
	-5	1	9	9	0	501	-6.0609461073E+00	-2.1731805653E+00	2.6703101629E+01	2.7784632769E+01	4.1800000000E+00	0.000E+00	0.0
	5	1	9	9	501	0	-1.3670672599E+02	-1.1825761127E+00	-1.2956304560E+02	1.8839899841E+02	4.1800000000E+00	0.000E+00	0.0
</event>
<event>
    11  -1  1.0000000E+00  1.0000000E+00  -1.0000000E+00  -1.0000000E+00
	2212	-1	0	0	0	0	0.0000000000E+00	0.0000000000E+00	6.5000000000E+03	6.5000000000E+03	9.3827000000E-01	0.000E+00	0.0
	2212	-1	0	0	0	0	0.0000000000E+00	0.0000000000E+00	-6.5000000000E+03	6.5000000000E+03	9.3827000000E-01	0.000E+00	0.0
	2212	1	0	0	0	0	0.0000000000E+00	0.0000000000E+00	6.1796079836E+03	6.1796079836E+03	9.3827000000E-01	0.000E+00	0.0
	2212	1	0	0	0	0	0.0000000000E+00	0.0000000000E+00	-5.6201150976E+03	5.6201150976E+03	9.3827000000E-01	0.000E+00	0.0
	51	2	1	2	0	0	-1.5583374845E+01	-1.4044414349E+02	-6.3867488453E+02	1.2471990216E+03	1.0619003683E+03	0.000E+00	0.0
	1000022	2	5	5	0	0	1.5583374845E+01	1.4044414349E+02	-3.8111612840E+02	9.4055286110E+02	8.4818794037E+02	0.000E+00	0.0
	14	1	6	6	0	0	5.4556058257E+01	3.2287513576E+02	-3.1851687485E+02	5.6062707422E+02	3.2500000000E+02	0.000E+00	0.0
	-14	1	6	6	0	0	-3.8972683412E+01	-1.8243099227E+02	-6.2599253554E+01	3.7992578688E+02	3.2500000000E+02	0.000E+00	0.0
	25	2	5	5	0	0	-1.5583374845E+01	-1.4044414349E+02	-1.7837675767E+02	2.5972405771E+02	1.2518354311E+02	0.000E+00	0.0
	-5	1	9	9	0	501	4.5546743589E+01	-1.1231053110E+02	-1.1074298592E+02	1.6422436657E+02	4.1800000000E+00	0.000E+00	0.0
	5	1	9	9	501	0	-6.1130118434E+01	-2.8133612398E+01	-6.7633771749E+01	9.5499691137E+01	4.1800000000E+00	0.000E+00	0.0
</event>
<event>
    11  -1  1.0000000E+00  1.0000000E+00  -1.0000000E+00  -1.0000000E+00
	2212	-1	0	0	0	0	0.0000000000E+00	0.0000000000E+00	6.5000000000E+03	6.5000000000E+03	9.3827000000E-01	0.000E+00	0.0
	2212	-1	0	0	0	0	0.0000000000E+00	0.0000000000E+00	-6.5000000000E+03	6.5000000000E+03	9.3827000000E-01	0.000E+00	0.0
	2212	1	0	0	0	0	0.0000000000E+00	0.0000000000E+00	4.8730895741E+03	4.8730895741E+03	9.3827000000E-01	0.000E+00	0.0
	2212	1	0	0	0	0	0.0000000000E+00	0.0000000000E+00	-6.3291322811E+03	6.3291322811E+03	9.3827000000E-01	0.000E+00	0.0
	51	2	1	2	0	0	8.8893307165E+01	3.0232705271E+00	1.2803606805E+03	1.6610781215E+03	1.0544884510E+03	0.000E+00	0.0
	1000022	2	5	5	0	0	-8.8893307165E+01	-3.0232705271E+00	1.3834323708E+03	1.6279112102E+03	8.5340413851E+02	0.000E+00	0.0
	14	1	6	6	0	0	2.1302531806E+01	-1.7851666444E+02	1.0651299899E+03	1.1280287641E+03	3.2500000000E+02	0.000E+00	0.0
	-14	1	6	6	0	0	-1.1019583897E+02	1.7549339392E+02	3.1830238090E+02	4.9988244610E+02	3.2500000000E+02	0.000E+00	0.0
	25	2	5	5	0	0	8.8893307165E+01	3.0232705271E+00	7.2610336209E+01	1.6986693454E+02	1.2518527990E+02	0.000E+00	0.0
	-5	1	9	9	0	501	-2.2437426799E+01	1.7271994273E+01	-1.0132479332E+01	3.0362797054E+01	4.1800000000E+00	0.000E+00	0.0
	5	1	9	9	501	0	1.1133073396E+02	-1.4248723746E+01	8.2742815541E+01	1.3950413749E+02	4.1800000000E+00	0.000E+00	0.0
</event>
<event>
    11  -1  1.0000000E+00  1.0000000E+00  -1.0000000E+00  -1.0000000E+00
	2212	-1	0	0	0	0	0.0000000000E+00	0.0000000000E+00	6.5000000000E+03	6.5000000000E+03	9.3827000000E-01	0.000E+00	0.0
	2212	-1	0	0	0	0	0.0000000000E+00	0.0000000000E+00	-6.5000000000E+03	6.5000000000E+03	9.3827000000E-01	0.000E+00	0.0
	2212	1	0	0	0	0	0.0000000000E+00	0.0000000000E+00	5.4233864498E+03	5.4233864498E+03	9.3827000000E-01	0.000E+00	0.0
	2212	1	0	0	0	0	0.0000000000E+00	0.0000000000E+00	-6.2436097216E+03	6.2436097216E+03	9.3827000000E-01	0.000E+00	0.0
	51	2	1	2	0	0	-8.8720609095E+00	-9.5440454753E+01	7.1349036481E+02	1.2737303820E+03	1.0507773272E+03	0.000E+00	0.0
	1000022	2	5	5	0	0	8.8720609095E+00	9.5440454753E+01	7.9191197343E+02	1.1728072248E+03	8.5974683419E+02	0.000E+00	0.0
	14	1	6	6	0	0	-1.6861944318E+02	-1.7377627796E+02	4.1135457292E+02	5.7746713851E+02	3.2500000000E+02	0.000E+00	0.0
	-14	1	6	6	0	0	1.7749150408E+02	2.6921673272E+02	3.8055740051E+02	5.9534008624E+02	3.2500000000E+02	0.000E+00	0.0
	25	2	5	5	0	0	-8.8720609095E+00	-9.5440454753E+01	2.8311298414E+01	1.6019660387E+02	1.2519516127E+02	0.000E+00	0.0
	-5	1	9	9	0	501	-4.4750866539E+01	-8.6054675188E+01	-2.0025199645E+01	9.9128846450E+01	4.1800000000E+00	0.000E+00	0.0
	5	1	9	9	501	0	3.5878805630E+01	-9.3857795651E+00	4.8336498058E+01	6.1067757418E+01	4.1800000000E+00	0.000E+00	0.0
</event>
<event>
    11  -1  1.0000000E+00  1.0000000E+00  -1.0000000E+00  -1.0000000E+00
	2212	-1	0	0	0	0	0.0000000000E+00	0.0000000000E+00	6.5000000000E+03	6.5000000000E+03	9.3827000000E-01	0.000E+00	0.0
	2212	-1	0	0	0	0	0.0000000000E+00	0.0000000000E+00	-6.5000000000E+03	6.5000000000E+03	9.3827000000E-01	0.000E+00	0.0
	2212	1	0	0	0	0	0.0000000000E+00	0.0000000000E+00	6.0972781225E+03	6.0972781225E+03	9.3827000000E-01	0.000E+00	0.0
	2212	1	0	0	0	0	0.0000000000E+00	0.0000000000E+00	-5.8225010081E+03	5.8225010081E+03	9.3827000000E-01	0.000E+00	0.0
	51	2	1	2	0	0	1.0422531769E+02	-5.0089892113E+00	-2.4507159706E+02	1.0781107359E+03	1.0446887882E+03	0.000E+00	0.0
	1000022	2	5	5	0	0	-1.0422531769E+02	5.0089892113E+00	-2.6236993796E+02	9.1677496410E+02	8.7221003413E+02	0.000E+00	0.0
	14	1	6	6	0	0	2.3005947701E+01	5.4300047888E+01	-4.1691476759E+02	5.3190289740E+02	3.2500000000E+02	0.000E+00	0.0
	-14	1	6	6	0	0	-1.2723126539E+02	-4.9291058676E+01	1.5454482963E+02	3.8487206670E+02	3.2500000000E+02	0.000E+00	0.0
	25	2	5	5	0	0	1.0422531769E+02	-5.0089892113E+00	-1.2407176430E+01	1.6344590538E+02	1.2519033165E+02	0.000E+00	0.0
	-5	1	9	9	0	501	1.0580367771E+02	9.2265390151E+00	3.6448047879E+01	1.1236316048E+02	4.1800000000E+00	0.000E+00	0.0
	5	1	9	9	501	0	-1.5783600187E+00	-1.4235528226E+01	-4.8855224309E+01	5.1082744900E+01	4.1800000000E+00	0.000E+00	0.0
</event>
<event>
    11  -1  1.0000000E+00  1.0000000E+00  -1.0000000E+00  -1.0000000E+00
	2212	-1	0	0	0	0	0.0000000000E+00	0.0000000000E+00	6.5000000000E+03	6.5000000000E+03	9.3827000000E-01	0.000E+00	0.0
	2212	-1	0	0	0	0	0.0000000000E+00	0.0000000000E+00	-6.5000000000E+03	6.5000000000E+03	9.3827000000E-01	0.000E+00	0.0
	2212	1	0	0	0	0	0.0000000000E+00	0.0000000000E+00	6.3245249514E+03	6.3245249514E+03	9.3827000000E-01	0.000E+00	0.0
	2212	1	0	0	0	0	0.0000000000E+00	0.0000000000E+00	-4.9641441230E+03	4.9641441230E+03	9.3827000000E-01	0.000E+00	0.0
	51	2	1	2	0	0	-5.3090337433E+01	1.1905765371E+02	-1.4101235833E+03	1.7559781797E+03	1.0382762342E+03	0.000E+00	0.0
	1000022	2	5	5	0	0	5.3090337433E+01	-1.1905765371E+02	-1.0828981744E+03	1.3801915921E+03	8.4573463085E+02	0.000E+00	0.0
	14	1	6	6	0	0	1.7592077166E+02	1.6679425788E+02	-5.3310464370E+02	6.6977160547E+02	3.2500000000E+02	0.000E+00	0.0
	-14	1	6	6	0	0	-1.2283043423E+02	-2.8585191159E+02	-5.4979353073E+02	7.1041998661E+02	3.2500000000E+02	0.000E+00	0.0
	25	2	5	5	0	0	-5.3090337433E+01	1.1905765371E+02	-2.7748265395E+02	3.3113933347E+02	1.2515321046E+02	0.000E+00	0.0
	-5	1	9	9	0	501	3.3350653266E+01	7.7781807284E+01	-1.2477803330E+02	1.5082872940E+02	4.1800000000E+00	0.000E+00	0.0
	5	1	9	9	501	0	-8.6440990699E+01	4.1275846425E+01	-1.5270462065E+02	1.8031060407E+02	4.1800000000E+00	0.000E+00	0.0
</event>
<event>
    11  -1  1.0000000E+00  1.0000000E+00  -1.0000000E+00  -1.0000000E+00
	2212	-1	0	0	0	0	0.0000000000E+00	0.0000000000E+00	6.5000000000E+03	6.5000000000E+03	9.3827000000E-01	0.000E+00	0.0
	2212	-1	0	0	0	0	0.0000000000E+00	0.0000000000E+00	-6.5000000000E+03	6.5000000000E+03	9.3827000000E-01	0.000E+00	0.0
	2212	1	0	0	0	0	0.0000000000E+00	0.0000000000E+00	6.3107340989E+03	6.3107340989E+03	9.3827000000E-01	0.000E+00	0.0
	2212	1	0	0	0	0	0.0000000000E+00	0.0000000000E+00	-5.0519557056E+03	5.0519557056E+03	9.3827000000E-01	0.000E+00	0.0
	51	2	1	2	0	0	5.6139576911E+00	-5.3507743830E+01	-1.0783975033E+03	1.5040270620E+03	1.0470251348E+03	0.000E+00	0.0
	1000022	2	5	5	0	0	-5.6139576911E+00	5.3507743830E+01	-1.2295793958E+03	1.4979899157E+03	8.5394010447E+02	0.000E+00	0.0
	14	1	6	6	0	0	-1.7348357876E+02	-8.5007500772E+01	-9.3431758823E+02	1.0079172501E+03	3.2500000000E+02	0.000E+00	0.0
	-14	1	6	6	0	0	1.6786962107E+02	1.3851524460E+02	-2.9526180753E+02	4.9007266569E+02	3.2500000000E+02	0.000E+00	0.0
	25	2	5	5	0	0	5.6139576911E+00	-5.3507743830E+01	-2.9198997510E+01	1.3932027974E+02	1.2515176275E+02	0.000E+00	0.0
	-5	1	9	9	0	501	-5.2527762217E+01	-5.5603235421E+01	-2.6022405649E+01	8.0904410192E+01	4.1800000000E+00	0.000E+00	0.0
	5	1	9	9	501	0	5.8141719908E+01	2.0954915911E+00	-3.1765918605E+00	5.8415869545E+01	4.1800000000E+00	0.000E+00	0.0
</event>
<event>
    11  -1  1.0000000E+00  1.0000000E+00  -1.0000000E+00  -1.0000000E+00
	2212	-1	0	0	0	0	0.0000000000E+00	0.0000000000E+00	6.5000000000E+03	6.5000000000E+03	9.3827000000E-01	0.000E+00	0.0
	2212	-1	0	0	0	0	0.0000000000E+00	0.0000000000E+00	-6.5000000000E+03	6.5000000000E+03	9.3827000000E-01	0.000E+00	0.0
	2212	1	0	0	0	0	0.0000000000E+00	0.0000000000E+00	5.4517681686E+03	5.4517681686E+03	9.3827000000E-01	0.000E+00	0.0
	2212	1	0	0	0	0	0.0000000000E+00	0.0000000000E+00	-6.2395501224E+03	6.2395501224E+03	9.3827000000E-01	0.000E+00	0.0
	51	2	1	2	0	0	-5.7305704931E+00	7.4323743721E+00	9.6455716410E+02	1.4221483788E+03	1.0450107219E+03	0.000E+00	0.0
	1000022	2	5	5	0	0	5.7305704931E+00	-7.4323743721E+00	4.7822872243E+02	9.7464110164E+02	8.4919637683E+02	0.000E+00	0.0
	14	1	6	6	0	0	3.3142488010E+01	2.5782628765E+02	3.2181952066E+02	5.2608518606E+02	3.2500000000E+02	0.000E+00	0.0
	-14	1	6	6	0	0	-2.7411917516E+01	-2.6525866202E+02	1.5640920177E+02	4.4855591558E+02	3.2500000000E+02	0.000E+00	0.0
	25	2	5	5	0	0	-5.7305704931E+00	7.4323743721E+00	3.0955323138E+02	3.3404060740E+02	1.2518723859E+02	0.000E+00	0.0
	-5	1	9	9	0	501	-4.5364304220E+01	-4.2013846591E+01	1.5798535003E+02	1.6970541131E+02	4.1800000000E+00	0.000E+00	0.0
	5	1	9	9	501	0	3.9633733727E+01	4.9446220964E+01	1.5156788135E+02	1.6433519609E+02	4.1800000000E+00	0.000E+00	0.0
</event>
<event>
    11  -1  1.0000000E+00  1.0000000E+00  -1.0000000E+00  -1.0000000E+00
	2212	-1	0	0	0	0	0.0000000000E+00	0.0000000000E+00	6.5000000000E+03	6.5000000000E+03	9.3827000000E-01	0.000E+00	0.0
	2212	-1	0	0	0	0	0.0000000000E+00	0.0000000000E+00	-6.5000000000E+03	6.5000000000E+03	9.3827000000E-01	0.000E+00	0.0
	2212	1	0	0	0	0	0.0000000000E+00	0.0000000000E+00	6.2201298886E+03	6.2201298886E+03	9.3827000000E-01	0.000E+00	0.0
	2212	1	0	0	0	0	0.0000000000E+00	0.0000000000E+00	-5.5139486008E+03	5.5139486008E+03	9.3827000000E-01	0.000E+00	0.0
	51	2	1	2	0	0	-6.2519333358E+01	-4.3148592688E+01	-6.5337883334E+02	1.2395723569E+03	1.0506499226E+03	0.000E+00	0.0
	1000022	2	5	5	0	0	6.2519333358E+01	4.3148592688E+01	-6.5838707117E+02	1.1119380899E+03	8.9283946604E+02	0.000E+00	0.0
	14	1	6	6	0	0	2.6939246147E+01	2.0298309100E+02	-6.4139266702E+02	7.4762116845E+02	3.2500000000E+02	0.000E+00	0.0
	-14	1	6	6	0	0	3.5580087211E+01	-1.5983449832E+02	-1.6994404153E+01	3.6431692142E+02	3.2500000000E+02	0.000E+00	0.0
	25	2	5	5	0	0	-6.2519333358E+01	-4.3148592688E+01	-4.7794216595E+01	1.5398342079E+02	1.2512449258E+02	0.000E+00	0.0
	-5	1	9	9	0	501	2.2472233323E+01	3.1642852309E+00	-5.2126358353E+01	5.7005645393E+01	4.1800000000E+00	0.000E+00	0.0
	5	1	9	9	501	0	-8.4991566681E+01	-4.6312877919E+01	4.3321417578E+00	9.6977775393E+01	4.1800000000E+00	0.000E+00	0.0
</event>
<event>
    11  -1  1.0000000E+00  1.0000000E+00  -1.0000000E+00  -1.0000000E+00
	2212	-1	0	0	0	0	0.0000000000E+00	0.0000000000E+00	6.5000000000E+03	6.5000000000E+03	9.3827000000E-01	0.000E+00	0.0
	2212	-1	0	0	0	0	0.0000000000E+00	0.0000000000E+00	-6.5000000000E+03	6.5000000000E+03	9.3827000000E-01	0.000E+00	0.0
	2212	1	0	0	0	0	0.0000000000E+00	0.0000000000E+00	5.2668850333E+03	5.2668850333E+03	9.3827000000E-01	0.000E+00	0.0
	2212	1	0	0	0	0	0.0000000000E+00	0.0000000000E+00	-6.2771183163E+03	6.2771183163E+03	9.3827000000E-01	0.000E+00	0.0
	51	2	1	2	0	0	-1.4699969817E+02	3.5917011664E+01	9.9288022410E+02	1.4519177120E+03	1.0485012923E+03	0.000E+00	0.0
	1000022	2	5	5	0	0	1.4699969817E+02	-3.5917011664E+01	8.4804090285E+02	1.2013060924E+03	8.3729565375E+02	0.000E+00	0.0
	14	1	6	6	0	0	3.1203403145E+00	2.5605235757E+01	7.6440618888E+02	8.3102778908E+02	3.2500000000E+02	0.000E+00	0.0
	-14	1	6	6	0	0	1.4387935786E+02	-6.1522247421E+01	8.3634713967E+01	3.7027830334E+02	3.2500000000E+02	0.000E+00	0.0
	25	2	5	5	0	0	-1.4699969817E+02	3.5917011664E+01	1.6219238020E+02	2.5469055802E+02	1.2514778927E+02	0.000E+00	0.0
	-5	1	9	9	0	501	1.4600549266E+01	-1.6670377426E+01	3.7913454742E+01	4.4113263004E+01	4.1800000000E+00	0.000E+00	0.0
	5	1	9	9	501	0	-1.6160024744E+02	5.2587389090E+01	1.2427892546E+02	2.1057729502E+02	4.1800000000E+00	0.000E+00	0.0
</event>
<event>
    11  -1  1.0000000E+00  1.0000000E+00  -1.0000000E+00  -1.0000000E+00
	2212	-1	0	0	0	0	0.0000000000E+00	0.0000000000E+00	6.5000000000E+03	6.5000000000E+03	9.3827000000E-01	0.000E+00	0.0
	2212	-1	0	0	0	0	0.0000000000E+00	0.0000000000E+00	-6.5000000000E+03	6.5000000000E+03	9.3827000000E-01	0.000E+00	0.0
	2212	1	0	0	0	0	0.0000000000E+00	0.0000000000E+00	6.3336753966E+03	6.3336753966E+03	9.3827000000E-01	0.000E+00	0.0
	2212	1	0	0	0	0	0.0000000000E+00	0.0000000000E+00	-4.8501969100E+03	4.8501969100E+03	9.3827000000E-01	0.000E+00	0.0
	51	2	1	2	0	0	1.1357258056E+02	8.2447120216E+01	-1.4247624939E+03	1.7740506761E+03	1.0476694988E+03	0.000E+00	0.0
	1000022	2	5	5	0	0	-1.1357258056E+02	-8.2447120216E+01	-1.2836956630E+03	1.5417411671E+03	8.4225590662E+02	0.000E+00	0.0
	14	1	6	6	0	0	-1.5993027601E+02	-2.8071554252E+02	-8.2600818407E+02	9.4461284617E+02	3.2500000000E+02	0.000E+00	0.0
	-14	1	6	6	0	0	4.6357695445E+01	1.9826842230E+02	-4.5768747896E+02	5.9712832089E+02	3.2500000000E+02	0.000E+00	0.0
	25	2	5	5	0	0	1.1357258056E+02	8.2447120216E+01	-1.9978282350E+02	2.7438652632E+02	1.2521393920E+02	0.000E+00	0.0
	-5	1	9	9	0	501	2.1032577339E+01	-3.0108373605E+01	-7.0230879676E+01	7.9364553364E+01	4.1800000000E+00	0.000E+00	0.0
	5	1	9	9	501	0	9.2540003224E+01	1.1255549382E+02	-1.2955194383E+02	1.9502197295E+02	4.1800000000E+00	0.000E+00	0.0
</event>
<event>
    11  -1  1.0000000E+00  1.0000000E+00  -1.0000000E+00  -1.0000000E+00
	2212	-1	0	0	0	0	0.0000000000E+00	0.0000000000E+00	6.5000000000E+03	6.5000000000E+03	9.3827000000E-01	0.000E+00	0.0
	2212	-1	0	0	0	0	0.0000000000E+00	0.0000000000E+00	-6.5000000000E+03	6.5000000000E+03	9.3827000000E-01	0.000E+00	0.0
	2212	1	0	0	0	0	0.0000000000E+00	0.0000000000E+00	4.9294157511E+03	4.9294157511E+03	9.3827000000E-01	0.000E+00	0.0
	2212	1	0	0	0	0	0.0000000000E+00	0.0000000000E+00	-6.3343115932E+03	6.3343115932E+03	9.3827000000E-01	0.000E+00	0.0
	51	2	1	2	0	0	-2.2037157330E+01	-4.1735523548E+01	1.2991177875E+03	1.6525268300E+03	1.0202501692E+03	0.000E+00	0.0
	1000022	2	5	5	0	0	2.2037157330E+01	4.1735523548E+01	1.3103509789E+03	1.5724448222E+03	8.6794904273E+02	0.000E+00	0.0
	14	1	6	6	0	0	2.5377389353E+02	1.3142798554E+02	4.7689396506E+02	6.4399329060E+02	3.2500000000E+02	0.000E+00	0.0
	-14	1	6	6	0	0	-2.3173673620E+02	-8.9692461991E+01	8.3345701386E+02	9.2845153164E+02	3.2500000000E+02	0.000E+00	0.0
	25	2	5	5	0	0	-2.2037157330E+01	-4.1735523548E+01	9.4544863151E+01	1.6382783345E+02	1.2519320124E+02	0.000E+00	0.0
	-5	1	9	9	0	501	3.5353971842E+01	1.4460893680E+01	6.9796816051E+01	7.9674893799E+01	4.1800000000E+00	0.000E+00	0.0
	5	1	9	9	501	0	-5.7391129171E+01	-5.6196417228E+01	2.4748047099E+01	8.4152939652E+01	4.1800000000E+00	0.000E+00	0.0
</event>
<event>
    11  -1  1.0000000E+00  1.0000000E+00  -1.0000000E+00  -1.0000000E+00
	2212	-1	0	0	0	0	0.0000000000E+00	0.0000000000E+00	6.5000000000E+03	6.5000000000E+03	9.3827000000E-01	0.000E+00	0.0
	2212	-1	0	0	0	0	0.0000000000E+00	0.0000000000E+00	-6.5000000000E+03	6.5000000000E+03	9.3827000000E-01	0.000E+00	0.0
	2212	1	0	0	0	0	0.0000000000E+00	0.0000000000E+00	5.1789635784E+03	5.1789635784E+03	9.3827000000E-01	0.000E+00	0.0
	2212	1	0	0	0	0	0.0000000000E+00	0.0000000000E+00	-6.3013804323E+03	6.3013804323E+03	9.3827000000E-01	0.000E+00	0.0
	51	2	1	2	0	0	5.7869316145E+01	-7.0410017865E+01	1.2335411394E+03	1.6060712633E+03	1.0244680237E+03	0.000E+00	0.0
	1000022	2	5	5	0	0	-5.7869316145E+01	7.0410017865E+01	8.3208986305E+02	1.1906156481E+03	8.4669100211E+02	0.000E+00	0.0
	14	1	6	6	0	0	-9.7640022724E+01	5.9820671938E+01	7.8802468754E+02	8.6006976171E+02	3.2500000000E+02	0.000E+00	0.0
	-14	1	6	6	0	0	3.9770706579E+01	1.0589345926E+01	4.4065175508E+01	3.3054588644E+02	3.2500000000E+02	0.000E+00	0.0
	25	2	5	5	0	0	5.7869316145E+01	-7.0410017865E+01	2.9032699086E+02	3.2904034109E+02	1.2518528698E+02	0.000E+00	0.0
	-5	1	9	9	0	501	6.9450913483E+01	-4.0629398747E+01	7.1096449626E+01	1.0745396678E+02	4.1800000000E+00	0.000E+00	0.0
	5	1	9	9	501	0	-1.1581597339E+01	-2.9780619117E+01	2.1923054123E+02	2.2158637431E+02	4.1800000000E+00	0.000E+00	0.0
</event>
<event>
    11  -1  1.0000000E+00  1.0000000E+00  -1.0000000E+00  -1.0000000E+00
	2212	-1	0	0	0	0	0.0000000000E+00	0.0000000000E+00	6.5000000000E+03	6.5000000000E+03	9.3827000000E-01	0.000E+00	0.0
	2212	-1	0	0	0	0	0.0000000000E+00	0.0000000000E+00	-6.5000000000E+03	6.5000000000E+03	9.3827000000E-01	0.000E+00	0.0
	2212	1	0	0	0	0	0.0000000000E+00	0.0000000000E+00	5.9557241447E+03	5.9557241447E+03	9.3827000000E-01	0.000E+00	0.0
	2212	1	0	0	0	0	0.0000000000E+00	0.0000000000E+00	-5.9954626806E+03	5.9954626806E+03	9.3827000000E-01	0.000E+00	0.0
	51	2	1	2	0	0	-6.4923046364E+01	1.1104894456E+02	4.7243014690E+00	1.0559351841E+03	1.0480600765E+03	0.000E+00	0.0
	1000022	2	5	5	0	0	6.4923046364E+01	-1.1104894456E+02	6.8137388883E+01	8.6709240286E+02	8.5478632494E+02	0.000E+00	0.0
	14	1	6	6	0	0	1.0735019805E+02	1.1204988319E+02	2.4227699009E+02	4.3405343135E+02	3.2500000000E+02	0.000E+00	0.0
	-14	1	6	6	0	0	-4.2427151684E+01	-2.2309882774E+02	-1.7413960120E+02	4.3303897151E+02	3.2500000000E+02	0.000E+00	0.0
	25	2	5	5	0	0	-6.4923046364E+01	1.1104894456E+02	-2.8398853002E+01	1.8172077176E+02	1.2517617186E+02	0.000E+00	0.0
	-5	1	9	9	0	501	-3.2534546713E+01	1.1466735717E+02	2.2272861793E+01	1.2132869530E+02	4.1800000000E+00	0.000E+00	0.0
	5	1	9	9	501	0	-3.2388499651E+01	-3.6184126081E+00	-5.0671714795E+01	6.0392076465E+01	4.1800000000E+00	0.000E+00	0.0
</event>
<event>
    11  -1  1.0000000E+00  1.0000000E+00  -1.0000000E+00  -1.0000000E+00
	2212	-1	0	0	0	0	0.0000000000E+00	0.0000000000E+00	6.5000000000E+03	6.5000000000E+03	9.3827000000E-01	0.000E+00	0.0
	2212	-1	0	0	0	0	0.0000000000E+00	0.0000000000E+00	-6.5000000000E+03	6.5000000000E+03	9.3827000000E-01	0.000E+00	0.0
	2212	1	0	0	0	0	0.0000000000E+00	0.0000000000E+00	6.1339567651E+03	6.1339567651E+03	9.3827000000E-01	0.000E+00	0.0
	2212	1	0	0	0	0	0.0000000000E+00	0.0000000000E+00	-5.7493932594E+03	5.7493932594E+03	9.3827000000E-01	0.000E+00	0.0
	51	2	1	2	0	0	1.9811850992E+01	-5.3706051170E+01	-5.1382444227E+02	1.1688928457E+03	1.0483406307E+03	0.000E+00	0.0
	1000022	2	5	5	0	0	-1.9811850992E+01	5.3706051170E+01	-1.9163951535E+02	8.7954986772E+02	8.5650768624E+02	0.000E+00	0.0
	14	1	6	6	0	0	-2.0632671218E+02	8.6945440799E+01	9.5796749018E+01	4.0611850359E+02	3.2500000000E+02	0.000E+00	0.0
	-14	1	6	6	0	0	1.8651486119E+02	-3.3239389628E+01	-2.8743626437E+02	4.7343136413E+02	3.2500000000E+02	0.000E+00	0.0
	25	2	5	5	0	0	1.9811850992E+01	-5.3706051170E+01	-1.9292399030E+02	2.3710010782E+02	1.2537920769E+02	0.000E+00	0.0
	-5	1	9	9	0	501	4.2496808483E+01	2.6340622704E+01	-4.5316559495E+01	6.7608210301E+01	4.1800000000E+00	0.000E+00	0.0
	5	1	9	9	501	0	-2.2684957491E+01	-8.0046673874E+01	-1.4760743081E+02	1.6949189752E+02	4.1800000000E+00	0.000E+00	0.0
</event>
<event>
    11  -1  1.0000000E+00  1.0000000E+00  -1.0000000E+00  -1.0000000E+00
	2212	-1	0	0	0	0	0.0000000000E+00	0.0000000000E+00	6.5000000000E+03	6.5000000000E+03	9.3827000000E-01	0.000E+00	0.0
	2212	-1	0	0	0	0	0.0000000000E+00	0.0000000000E+00	-6.5000000000E+03	6.5000000000E+03	9.3827000000E-01	0.000E+00	0.0
	2212	1	0	0	0	0	0.0000000000E+00	0.0000000000E+00	5.6353123978E+03	5.6353123978E+03	9.3827000000E-01	0.000E+00	0.0
	2212	1	0	0	0	0	0.0000000000E+00	0.0000000000E+00	-6.1805756286E+03	6.1805756286E+03	9.3827000000E-01	0.000E+00	0.0
	51	2	1	2	0	0	1.5799317209E+01	-1.3555224776E+02	4.7577572413E+02	1.1618071032E+03	1.0510990320E+03	0.000E+00	0.0
	1000022	2	5	5	0	0	-1.5799317209E+01	1.3555224776E+02	5.1830281923E+02	9.9696730034E+02	8.4064377428E+02	0.000E+00	0.0
	14	1	6	6	0	0	-1.3547729937E+02	-1.6890033821E+02	2.3743150706E+02	4.5703407251E+02	3.2500000000E+02	0.000E+00	0.0
	-14	1	6	6	0	0	1.1967798217E+02	3.0445258597E+02	2.8087131217E+02	5.3993322783E+02	3.2500000000E+02	0.000E+00	0.0
	25	2	5	5	0	0	1.5799317209E+01	-1.3555224776E+02	2.6960411574E+01	1.8714467320E+02	1.2518879589E+02	0.000E+00	0.0
	-5	1	9	9	0	501	-5.1323628538E+01	-2.9127377426E+01	1.1996788678E+01	6.0364843250E+01	4.1800000000E+00	0.000E+00	0.0
	5	1	9	9	501	0	6.7122945747E+01	-1.0642487034E+02	1.4963622896E+01	1.2677982995E+02	4.1800000000E+00	0.000E+00	0.0
</event>
<event>
    11  -1  1.0000000E+00  1.0000000E+00  -1.0000000E+00  -1.0000000E+00
	2212	-1	0	0	0	0	0.0000000000E+00	0.0000000000E+00	6.5000000000E+03	6.5000000000E+03	9.3827000000E-01	0.000E+00	0.0
	2212	-1	0	0	0	0	0.0000000000E+00	0.0000000000E+00	-6.5000000000E+03	6.5000000000E+03	9.3827000000E-01	0.000E+00	0.0
	2212	1	0	0	0	0	0.0000000000E+00	0.0000000000E+00	4.9253243757E+03	4.9253243757E+03	9.3827000000E-01	0.000E+00	0.0
	2212	1	0	0	0	0	0.0000000000E+00	0.0000000000E+00	-6.3266235543E+03	6.3266235543E+03	9.3827000000E-01	0.000E+00	0.0
	51	2	1	2	0	0	2.4580304307E+01	-1.4204092797E+02	1.3954739077E+03	1.7493352723E+03	1.0450103594E+03	0.000E+00	0.0
	1000022	2	5	5	0	0	-2.4580304307E+01	1.4204092797E+02	1.1640069651E+03	1.4434917170E+03	8.4141327887E+02	0.000E+00	0.0
	14	1	6	6	0	0	6.2946632573E+01	-5.9283204902E+01	9.2492519637E+02	9.8416888582E+02	3.2500000000E+02	0.000E+00	0.0
	-14	1	6	6	0	0	-8.7526936880E+01	2.0132413288E+02	2.3908176870E+02	4.5932283122E+02	3.2500000000E+02	0.000E+00	0.0
	25	2	5	5	0	0	2.4580304307E+01	-1.4204092797E+02	2.3729221353E+02	3.0456035287E+02	1.2517826232E+02	0.000E+00	0.0
	-5	1	9	9	0	501	-1.6027514875E+01	1.5436696953E+01	5.9035149173E+01	6.3228111499E+01	4.1800000000E+00	0.000E+00	0.0
	5	1	9	9	501	0	4.0607819182E+01	-1.5747762493E+02	1.7825706436E+02	2.4133224137E+02	4.1800000000E+00	0.000E+00	0.0
</event>
<event>
    11  -1  1.0000000E+00  1.0000000E+00  -1.0000000E+00  -1.0000000E+00
	2212	-1	0	0	0	0	0.0000000000E+00	0.0000000000E+00	6.5000000000E+03	6.5000000000E+03	9.3827000000E-01	0.000E+00	0.0
	2212	-1	0	0	0	0	0.0000000000E+00	0.0000000000E+00	-6.5000000000E+03	6.5000000000E+03	9.3827000000E-01	0.000E+00	0.0
	2212	1	0	0	0	0	0.0000000000E+00	0.0000000000E+00	5.9957907734E+03	5.9957907734E+03	9.3827000000E-01	0.000E+00	0.0
	2212	1	0	0	0	0	0.0000000000E+00	0.0000000000E+00	-5.9544761715E+03	5.9544761715E+03	9.3827000000E-01	0.000E+00	0.0
	51	2	1	2	0	0	3.2809042779E+01	5.0540284095E+01	7.7218592616E+01	1.0534828216E+03	1.0489197256E+03	0.000E+00	0.0
	1000022	2	5	5	0	0	-3.2809042779E+01	-5.0540284095E+01	-1.5298006528E+02	8.7148603956E+02	8.5583541827E+02	0.000E+00	0.0
	14	1	6	6	0	0	-4.8427268251E+01	-5.5664740487E+01	-3.5622351353E+02	4.8781549302E+02	3.2500000000E+02	0.000E+00	0.0
	-14	1	6	6	0	0	1.5618225472E+01	5.1244563922E+00	2.0324344825E+02	3.8367054653E+02	3.2500000000E+02	0.000E+00	0.0
	25	2	5	5	0	0	3.2809042779E+01	5.0540284095E+01	1.1166546339E+02	1.7824701557E+02	1.2518813538E+02	0.000E+00	0.0
	-5	1	9	9	0	501	3.5964926759E+01	8.3188665160E+01	3.9667717691E+01	9.9019342529E+01	4.1800000000E+00	0.000E+00	0.0
	5	1	9	9	501	0	-3.1558839805E+00	-3.2648381065E+01	7.1997745694E+01	7.9227673037E+01	4.1800000000E+00	0.000E+00	0.0
</event>
<event>
    11  -1  1.0000000E+00  1.0000000E+00  -1.0000000E+00  -1.0000000E+00
	2212	-1	0	0	0	0	0.0000000000E+00	0.0000000000E+00	6.5000000000E+03	6.5000000000E+03	9.3827000000E-01	0.000E+00	0.0
	2212	-1	0	0	0	0	0.0000000000E+00	0.0000000000E+00	-6.5000000000E+03	6.5000000000E+03	9.3827000000E-01	0.000E+00	0.0
	2212	1	0	0	0	0	0.0000000000E+00	0.0000000000E+00	5.6872266698E+03	5.6872266698E+03	9.3827000000E-01	0.000E+00	0.0
	2212	1	0	0	0	0	0.0000000000E+00	0.0000000000E+00	-6.1617942023E+03	6.1617942023E+03	9.3827000000E-01	0.000E+00	0.0
	51	2	1	2	0	0	-3.4780031166E+00	-4.2069520224E+01	6.2251845418E+02	1.2201843208E+03	1.0485888660E+03	0.000E+00	0.0
	1000022	2	5	5	0	0	3.4780031166E+00	4.2069520224E+01	2.4646865780E+02	8.8738933251E+02	8.5142885031E+02	0.000E+00	0.0
	14	1	6	6	0	0	-1.2714009284E+02	2.1790330181E+02	-2.2514221456E+01	4.1204167546E+02	3.2500000000E+02	0.000E+00	0.0
	-14	1	6	6	0	0	1.3061809595E+02	-1.7583378158E+02	2.6898287926E+02	4.7534765706E+02	3.2500000000E+02	0.000E+00	0.0
	25	2	5	5	0	0	-3.4780031166E+00	-4.2069520224E+01	2.2809887474E+02	2.6358979539E+02	1.2517404898E+02	0.000E+00	0.0
	-5	1	9	9	0	501	-1.7179911320E+01	3.4751997874E+01	1.4226400165E+02	1.4751057343E+02	4.1800000000E+00	0.000E+00	0.0
	5	1	9	9	501	0	1.3701908203E+01	-7.6821518098E+01	8.5834873092E+01	1.1607922196E+02	4.1800000000E+00	0.000E+00	0.0
</event>
<event>
    11  -1  1.0000000E+00  1.0000000E+00  -1.0000000E+00  -1.0000000E+00
	2212	-1	0	0	0	0	0.0000000000E+00	0.0000000000E+00	6.5000000000E+03	6.5000000000E+03	9.3827000000E-01	0.000E+00	0.0
	2212	-1	0	0	0	0	0.0000000000E+00	0.0000000000E+00	-6.5000000000E+03	6.5000000000E+03	9.3827000000E-01	0.000E+00	0.0
	2212	1	0	0	0	0	0.0000000000E+00	0.0000000000E+00	5.2259751993E+03	5.2259751993E+03	9.3827000000E-01	0.000E+00	0.0
	2212	1	0	0	0	0	0.0000000000E+00	0.0000000000E+00	-6.2827469545E+03	6.2827469545E+03	9.3827000000E-01	0.000E+00	0.0
	51	2	1	2	0	0	6.7258289135E+00	1.2502165172E+02	9.4688907231E+02	1.4210621512E+03	1.0522086638E+03	0.000E+00	0.0
	1000022	2	5	5	0	0	-6.7258289135E+00	-1.2502165172E+02	9.8020501830E+02	1.2983829048E+03	8.4221175442E+02	0.000E+00	0.0
	14	1	6	6	0	0	1.6391263720E+02	-1.4861010034E+02	2.1205050166E+02	4.4670205933E+02	3.2500000000E+02	0.000E+00	0.0
	-14	1	6	6	0	0	-1.7063846611E+02	2.3588448620E+01	7.6815451665E+02	8.5168084543E+02	3.2500000000E+02	0.000E+00	0.0
	25	2	5	5	0	0	6.7258289135E+00	1.2502165172E+02	7.6566736915E+01	1.9289494151E+02	1.2518124095E+02	0.000E+00	0.0
	-5	1	9	9	0	501	1.1495770811E+01	8.3200992332E+01	1.1036375246E+02	1.3875225450E+02	4.1800000000E+00	0.000E+00	0.0
	5	1	9	9	501	0	-4.7699418971E+00	4.1820659388E+01	-3.3797015543E+01	5.4142687012E+01	4.1800000000E+00	0.000E+00	0.0
</event>
<event>
    11  -1  1.0000000E+00  1.0000000E+00  -1.0000000E+00  -1.0000000E+00
	2212	-1	0	0	0	0	0.0000000000E+00	0.0000000000E+00	6.5000000000E+03	6.5000000000E+03	9.3827000000E-01	0.000E+00	0.0
	2212	-1	0	0	0	0	0.0000000000E+00	0.0000000000E+00	-6.5000000000E+03	6.5000000000E+03	9.3827000000E-01	0.000E+00	0.0
	2212	1	0	0	0	0	0.0000000000E+00	0.0000000000E+00	5.1352646596E+03	5.1352646596E+03	9.3827000000E-01	0.000E+00	0.0
	2212	1	0	0	0	0	0.0000000000E+00	0.0000000000E+00	-6.2976852304E+03	6.2976852304E+03	9.3827000000E-01	0.000E+00	0.0
	51	2	1	2	0	0	4.6189154874E+01	-3.8719288854E+01	1.3125937994E+03	1.6825455618E+03	1.0509160118E+03	0.000E+00	0.0
	1000022	2	5	5	0	0	-4.6189154874E+01	3.8719288854E+01	8.3210596687E+02	1.2087074744E+03	8.7460893953E+02	0.000E+00	0.0
	14	1	6	6	0	0	7.6657588802E+01	2.4430595222E+01	7.9051335348E+02	8.5849263360E+02	3.2500000000E+02	0.000E+00	0.0
	-14	1	6	6	0	0	-1.2284674368E+02	1.4288693633E+01	4.1592613382E+01	3.5021484076E+02	3.2500000000E+02	0.000E+00	0.0
	25	2	5	5	0	0	4.6189154874E+01	-3.8719288854E+01	3.3031460399E+02	3.5834263568E+02	1.2517621813E+02	0.000E+00	0.0
	-5	1	9	9	0	501	7.5421885138E+01	7.6387888075E+00	2.4802085538E+02	2.5938124249E+02	4.1800000000E+00	0.000E+00	0.0
	5	1	9	9	501	0	-2.9232730264E+01	-4.6358077662E+01	8.2293748601E+01	9.8961393190E+01	4.1800000000E+00	0.000E+00	0.0
</event>
<event>
    11  -1  1.0000000E+00  1.0000000E+00  -1.0000000E+00  -1.0000000E+00
	2212	-1	0	0	0	0	0.0000000000E+00	0.0000000000E+00	6.5000000000E+03	6.5000000000E+03	9.3827000000E-01	0.000E+00	0.0
	2212	-1	0	0	0	0	0.0000000000E+00	0.0000000000E+00	-6.5000000000E+03	6.5000000000E+03	9.3827000000E-01	0.000E+00	0.0
	2212	1	0	0	0	0	0.0000000000E+00	0.0000000000E+00	6.1028562071E+03	6.1028562071E+03	9.3827000000E-01	0.000E+00	0.0
	2212	1	0	0	0	0	0.0000000000E+00	0.0000000000E+00	-5.8043844583E+03	5.8043844583E+03	9.3827000000E-01	0.000E+00	0.0
	51	2	1	2	0	0	-8.2210184366E+01	-1.0701276471E+02	-3.0695485450E+02	1.1033898257E+03	1.0512076762E+03	0.000E+00	0.0
	1000022	2	5	5	0	0	8.2210184366E+01	1.0701276471E+02	-2.4015827127E+02	8.9969079288E+02	8.5647958605E+02	0.000E+00	0.0
	14	1	6	6	0	0	-2.1964725906E+01	-9.9414786597E+01	-3.4757411935E+02	4.8661947908E+02	3.2500000000E+02	0.000E+00	0.0
	-14	1	6	6	0	0	1.0417491027E+02	2.0642755131E+02	1.0741584808E+02	4.1307131380E+02	3.2500000000E+02	0.000E+00	0.0
	25	2	5	5	0	0	-8.2210184366E+01	-1.0701276471E+02	-5.8313477557E+01	1.9306854171E+02	1.2515891462E+02	0.000E+00	0.0
	-5	1	9	9	0	501	-3.6105584532E+01	-4.6205590889E+01	3.8088497002E+01	7.0048382334E+01	4.1800000000E+00	0.000E+00	0.0
	5	1	9	9	501	0	-4.6104599834E+01	-6.0807173821E+01	-9.6401974559E+01	1.2302015938E+02	4.1800000000E+00	0.000E+00	0.0
</event>
<event>
    11  -1  1.0000000E+00  1.0000000E+00  -1.0000000E+00  -1.0000000E+00
	2212	-1	0	0	0	0	0.0000000000E+00	0.0000000000E+00	6.5000000000E+03	6.5000000000E+03	9.3827000000E-01	0.000E+00	0.0
	2212	-1	0	0	0	0	0.0000000000E+00	0.0000000000E+00	-6.5000000000E+03	6.5000000000E+03	9.3827000000E-01	0.000E+00	0.0
	2212	1	0	0	0	0	0.0000000000E+00	0.0000000000E+00	6.2099602625E+03	6.2099602625E+03	9.3827000000E-01	0.000E+00	0.0
	2212	1	0	0	0	0	0.0000000000E+00	0.0000000000E+00	-5.5606983110E+03	5.5606983110E+03	9.3827000000E-01	0.000E+00	0.0
	51	2	1	2	0	0	1.1705211368E+02	-5.0091335945E+01	-6.4719773568E+02	1.2348337983E+03	1.0439057722E+03	0.000E+00	0.0
	1000022	2	5	5	0	0	-1.1705211368E+02	5.0091335945E+01	-5.4503659126E+02	1.0225956489E+03	8.5581927766E+02	0.000E+00	0.0
	14	1	6	6	0	0	9.0586114189E+01	-1.7463489631E+02	-4.0379806241E+02	5.5441957604E+02	3.2500000000E+02	0.000E+00	0.0
	-14	1	6	6	0	0	-2.0763822787E+02	2.2472623225E+02	-1.4123852884E+02	4.6817607282E+02	3.2500000000E+02	0.000E+00	0.0
	25	2	5	5	0	0	1.1705211368E+02	-5.0091335945E+01	-1.0422536019E+02	2.0674577759E+02	1.2518207376E+02	0.000E+00	0.0
	-5	1	9	9	0	501	6.2459069354E+01	-9.0687883619E+01	-5.9659200347E+01	1.2530810096E+02	4.1800000000E+00	0.000E+00	0.0
	5	1	9	9	501	0	5.4593044325E+01	4.0596547674E+01	-4.4566159844E+01	8.1437676630E+01	4.1800000000E+00	0.000E+00	0.0
</event>
<event>
    11  -1  1.0000000E+00  1.0000000E+00  -1.0000000E+00  -1.0000000E+00
	2212	-1	0	0	0	0	0.0000000000E+00	0.0000000000E+00	6.5000000000E+03	6.5000000000E+03	9.3827000000E-01	0.000E+00	0.0
	2212	-1	0	0	0	0	0.0000000000E+00	0.0000000000E+00	-6.5000000000E+03	6.5000000000E+03	9.3827000000E-01	0.000E+00	0.0
	2212	1	0	0	0	0	0.0000000000E+00	0.0000000000E+00	6.2521951123E+03	6.2521951123E+03	9.3827000000E-01	0.000E+00	0.0
	2212	1	0	0	0	0	0.0000000000E+00	0.0000000000E+00	-5.4069057032E+03	5.4069057032E+03	9.3827000000E-01	0.000E+00	0.0
	51	2	1	2	0	0	6.8445387022E+00	-1.1752118980E+02	-9.5187430302E+02	1.4154219174E+03	1.0409113496E+03	0.000E+00	0.0
	1000022	2	5	5	0	0	-6.8445387022E+00	1.1752118980E+02	-5.9353422034E+02	1.0360899627E+03	8.4103594594E+02	0.000E+00	0.0
	14	1	6	6	0	0	-1.2795951706E+01	1.8314761345E+02	-2.0269861407E+01	3.7382168473E+02	3.2500000000E+02	0.000E+00	0.0
	-14	1	6	6	0	0	5.9514130033E+00	-6.5626423654E+01	-5.7326435893E+02	6.6226827798E+02	3.2500000000E+02	0.000E+00	0.0
	25	2	5	5	0	0	6.8445387022E+00	-1.1752118980E+02	-2.5175518882E+02	3.0480922179E+02	1.2517950642E+02	0.000E+00	0.0
	-5	1	9	9	0	501	5.6809838272E+01	-6.0401940873E+01	-7.2950566045E+01	1.1052153488E+02	4.1800000000E+00	0.000E+00	0.0
	5	1	9	9	501	0	-4.9965299570E+01	-5.7119248926E+01	-1.7880462278E+02	1.9428768691E+02	4.1800000000E+00	0.000E+00	0.0
</event>
<event>
    11  -1  1.0000000E+00  1.0000000E+00  -1.0000000E+00  -1.0000000E+00
	2212	-1	0	0	0	0	0.0000000000E+00	0.0000000000E+00	6.5000000000E+03	6.5000000000E+03	9.3827000000E-01	0.000E+00	0.0
	2212	-1	0	0	0	0	0.0000000000E+00	0.0000000000E+00	-6.5000000000E+03	6.5000000000E+03	9.3827000000E-01	0.000E+00	0.0
	2212	1	0	0	0	0	0.0000000000E+00	0.0000000000E+00	5.9731026934E+03	5.9731026934E+03	9.3827000000E-01	0.000E+00	0.0
	2212	1	0	0	0	0	0.0000000000E+00	0.0000000000E+00	-5.9814947890E+03	5.9814947890E+03	9.3827000000E-01	0.000E+00	0.0
	51	2	1	2	0	0	8.2185524634E+01	4.2944815098E+01	-8.8583074522E+01	1.0532054289E+03	1.0453688328E+03	0.000E+00	0.0
	1000022	2	5	5	0	0	-8.2185524634E+01	-4.2944815098E+01	1.0396261818E+02	8.6262280890E+02	8.5129969273E+02	0.000E+00	0.0
	14	1	6	6	0	0	-3.0479787233E+02	-1.0416698273E+02	4.9055620482E+01	4.6019991001E+02	3.2500000000E+02	0.000E+00	0.0
	-14	1	6	6	0	0	2.2261234770E+02	6.1222167630E+01	5.4906997696E+01	4.0242289889E+02	3.2500000000E+02	0.000E+00	0.0
	25	2	5	5	0	0	8.2185524634E+01	4.2944815098E+01	-9.5570522613E+01	1.8277970877E+02	1.2520375211E+02	0.000E+00	0.0
	-5	1	9	9	0	501	5.7415539330E+01	7.3217014189E+01	-1.0695869197E+02	1.4182704083E+02	4.1800000000E+00	0.000E+00	0.0
	5	1	9	9	501	0	2.4769985304E+01	-3.0272199092E+01	1.1388169356E+01	4.0952667936E+01	4.1800000000E+00	0.000E+00	0.0
</event>
<event>
    11  -1  1.0000000E+00  1.0000000E+00  -1.0000000E+00  -1.0000000E+00
	2212	-1	0	0	0	0	0.0000000000E+00	0.0000000000E+00	6.5000000000E+03	6.5000000000E+03	9.3827000000E-01	0.000E+00	0.0
	2212	-1	0	0	0	0	0.0000000000E+00	0.0000000000E+00	-6.5000000000E+03	6.5000000000E+03	9.3827000000E-01	0.000E+00	0.0
	2212	1	0	0	0	0	0.0000000000E+00	0.0000000000E+00	6.2973570407E+03	6.2973570407E+03	9.3827000000E-01	0.000E+00	0.0
	2212	1	0	0	0	0	0.0000000000E+00	0.0000000000E+00	-5.1197621406E+03	5.1197621406E+03	9.3827000000E-01	0.000E+00	0.0
	51	2	1	2	0	0	4.6390163327E+01	7.2223179881E+01	-1.3851601673E+03	1.7449409335E+03	1.0577248873E+03	0.000E+00	0.0
	1000022	2	5	5	0	0	-4.6390163327E+01	-7.2223179881E+01	-7.6012875576E+02	1.1386794749E+03	8.4346131281E+02	0.000E+00	0.0
	14	1	6	6	0	0	-3.6065213066E+00	-2.0193237268E+02	-6.7515901180E+02	7.7605050180E+02	3.2500000000E+02	0.000E+00	0.0
	-14	1	6	6	0	0	-4.2783642020E+01	1.2970919280E+02	-8.4969743958E+01	3.6262897307E+02	3.2500000000E+02	0.000E+00	0.0
	25	2	5	5	0	0	4.6390163327E+01	7.2223179881E+01	-4.1746614437E+02	4.4420134379E+02	1.2517434707E+02	0.000E+00	0.0
	-5	1	9	9	0	501	7.9063419091E+00	2.6005681878E+01	-3.5955673907E+02	3.6060688671E+02	4.1800000000E+00	0.000E+00	0.0
	5	1	9	9	501	0	3.8483821418E+01	4.6217498003E+01	-5.7909405307E+01	8.3594457086E+01	4.1800000000E+00	0.000E+00	0.0
</event>
<event>
    11  -1  1.0000000E+00  1.0000000E+00  -1.0000000E+00  -1.0000000E+00
	2212	-1	0	0	0	0	0.0000000000E+00	0.0000000000E+00	6.5000000000E+03	6.5000000000E+03	9.3827000000E-01	0.000E+00	0.0
	2212	-1	0	0	0	0	0.0000000000E+00	0.0000000000E+00	-6.5000000000E+03	6.5000000000E+03	9.3827000000E-01	0.000E+00	0.0
	2212	1	0	0	0	0	0.0000000000E+00	0.0000000000E+00	6.3300223323E+03	6.3300223323E+03	9.3827000000E-01	0.000E+00	0.0
	2212	1	0	0	0	0	0.0000000000E+00	0.0000000000E+00	-4.8668909045E+03	4.8668909045E+03	9.3827000000E-01	0.000E+00	0.0
	51	2	1	2	0	0	9.0970108556E+00	1.3041794639E+02	-1.5716885923E+03	1.8967511507E+03	1.0537401485E+03	0.000E+00	0.0
	1000022	2	5	5	0	0	-9.0970108556E+00	-1.3041794639E+02	-1.1048669751E+03	1.4016961539E+03	8.5260159449E+02	0.000E+00	0.0
	14	1	6	6	0	0	-2.3630593093E+02	8.3511287888E+01	-5.6913189037E+02	7.0167708872E+02	3.2500000000E+02	0.000E+00	0.0
	-14	1	6	6	0	0	2.2720892008E+02	-2.1392923428E+02	-5.3573508472E+02	7.0001906520E+02	3.2500000000E+02	0.000E+00	0.0
	25	2	5	5	0	0	9.0970108556E+00	1.3041794639E+02	-3.5826445267E+02	4.0139060922E+02	1.2517750106E+02	0.000E+00	0.0
	-5	1	9	9	0	501	1.9371201335E+01	1.2777237525E+02	-3.6562750248E+02	3.8781692368E+02	4.1800000000E+00	0.000E+00	0.0
	5	1	9	9	501	0	-1.0274190479E+01	2.6455711402E+00	7.3630498089E+00	1.3573685540E+01	4.1800000000E+00	0.000E+00	0.0
</event>
<event>
    11  -1  1.0000000E+00  1.0000000E+00  -1.0000000E+00  -1.0000000E+00
	2212	-1	0	0	0	0	0.0000000000E+00	0.0000000000E+00	6.5000000000E+03	6.5000000000E+03	9.3827000000E-01	0.000E+00	0.0
	2212	-1	0	0	0	0	0.0000000000E+00	0.0000000000E+00	-6.5000000000E+03	6.5000000000E+03	9.3827000000E-01	0.000E+00	0.0
	2212	1	0	0	0	0	0.0000000000E+00	0.0000000000E+00	5.4199404549E+03	5.4199404549E+03	9.3827000000E-01	0.000E+00	0.0
	2212	1	0	0	0	0	0.0000000000E+00	0.0000000000E+00	-6.2444321942E+03	6.2444321942E+03	9.3827000000E-01	0.000E+00	0.0
	51	2	1	2	0	0	-2.2587565416E+01	6.0050806415E+01	6.6835180756E+02	1.2469660093E+03	1.0507681915E+03	0.000E+00	0.0
	1000022	2	5	5	0	0	2.2587565416E+01	-6.0050806415E+01	8.3869060129E+02	1.1943526411E+03	8.4791509543E+02	0.000E+00	0.0
	14	1	6	6	0	0	-1.3270038927E+02	1.4297733739E+02	1.8725644144E+02	4.2277876860E+02	3.2500000000E+02	0.000E+00	0.0
	-14	1	6	6	0	0	1.5528795468E+02	-2.0302814381E+02	6.5143415985E+02	7.7157387246E+02	3.2500000000E+02	0.000E+00	0.0
	25	2	5	5	0	0	-2.2587565416E+01	6.0050806415E+01	-1.4198862017E+01	1.4127470979E+02	1.2506253828E+02	0.000E+00	0.0
	-5	1	9	9	0	501	4.2739187110E+01	1.6982390879E+01	-3.7541795412E+01	5.9513851476E+01	4.1800000000E+00	0.000E+00	0.0
	5	1	9	9	501	0	-6.5326752526E+01	4.3068415536E+01	2.3342933394E+01	8.1760858312E+01	4.1800000000E+00	0.000E+00	0.0
</event>
<event>
    11  -1  1.0000000E+00  1.0000000E+00  -1.0000000E+00  -1.0000000E+00
	2212	-1	0	0	0	0	0.0000000000E+00	0.0000000000E+00	6.5000000000E+03	6.5000000000E+03	9.3827000000E-01	0.000E+00	0.0
	2212	-1	0	0	0	0	0.0000000000E+00	0.0000000000E+00	-6.5000000000E+03	6.5000000000E+03	9.3827000000E-01	0.000E+00	0.0
	2212	1	0	0	0	0	0.0000000000E+00	0.0000000000E+00	6.1681230908E+03	6.1681230908E+03	9.3827000000E-01	0.000E+00	0.0
	2212	1	0	0	0	0	0.0000000000E+00	0.0000000000E+00	-5.6652507429E+03	5.6652507429E+03	9.3827000000E-01	0.000E+00	0.0
	51	2	1	2	0	0	-1.3194063604E+02	-4.5995582419E+01	-5.6678113470E+02	1.2037029507E+03	1.0526803949E+03	0.000E+00	0.0
	1000022	2	5	5	0	0	1.3194063604E+02	4.5995582419E+01	-3.5087263756E+02	9.2518504042E+02	8.4458973839E+02	0.000E+00	0.0
	14	1	6	6	0	0	2.0720233191E+02	2.5488968732E+02	-2.0309525103E+02	5.0475166175E+02	3.2500000000E+02	0.000E+00	0.0
	-14	1	6	6	0	0	-7.5261695862E+01	-2.0889410490E+02	-1.4777738653E+02	4.2043337867E+02	3.2500000000E+02	0.000E+00	0.0
	25	2	5	5	0	0	-1.3194063604E+02	-4.5995582419E+01	-1.5199971027E+02	2.4144112591E+02	1.2516381391E+02	0.000E+00	0.0
	-5	1	9	9	0	501	-7.8672714081E+01	-2.1000692981E+01	-3.4498165742E+00	8.1607589604E+01	4.1800000000E+00	0.000E+00	0.0
	5	1	9	9	501	0	-5.3267921964E+01	-2.4994889439E+01	-1.4854989370E+02	1.5983353630E+02	4.1800000000E+00	0.000E+00	0.0
</event>
<event>
    11  -1  1.0000000E+00  1.0000000E+00  -1.0000000E+00  -1.0000000E+00
	2212	-1	0	0	0	0	0.0000000000E+00	0.0000000000E+00	6.5000000000E+03	6.5000000000E+03	9.3827000000E-01	0.000E+00	0.0
	2212	-1	0	0	0	0	0.0000000000E+00	0.0000000000E+00	-6.5000000000E+03	6.5000000000E+03	9.3827000000E-01	0.000E+00	0.0
	2212	1	0	0	0	0	0.0000000000E+00	0.0000000000E+00	6.2018701911E+03	6.2018701911E+03	9.3827000000E-01	0.000E+00	0.0
	2212	1	0	0	0	0	0.0000000000E+00	0.0000000000E+00	-5.5378058434E+03	5.5378058434E+03	9.3827000000E-01	0.000E+00	0.0
	51	2	1	2	0	0	9.2499363413E+01	-1.1339863794E+02	-7.5616314735E+02	1.3193305608E+03	1.0711839431E+03	0.000E+00	0.0
	1000022	2	5	5	0	0	-9.2499363413E+01	1.1339863794E+02	-4.5222752925E+02	9.7406726205E+02	8.5022462295E+02	0.000E+00	0.0
	14	1	6	6	0	0	1.0471646866E+02	2.8515789650E+02	-2.5302342755E+02	5.1178747507E+02	3.2500000000E+02	0.000E+00	0.0
	-14	1	6	6	0	0	-1.9721583207E+02	-1.7175925857E+02	-1.9920410170E+02	4.6227978699E+02	3.2500000000E+02	0.000E+00	0.0
	25	2	5	5	0	0	9.2499363413E+01	-1.1339863794E+02	-2.1183681849E+02	2.8625670341E+02	1.2511066805E+02	0.000E+00	0.0
	-5	1	9	9	0	501	4.4186105030E+00	-4.4547268986E+01	1.9107492178E+00	4.5001185045E+01	4.1800000000E+00	0.000E+00	0.0
	5	1	9	9	501	0	8.8080752910E+01	-6.8851368951E+01	-2.1374756771E+02	2.4125551837E+02	4.1800000000E+00	0.000E+00	0.0
</event>
<event>
    11  -1  1.0000000E+00  1.0000000E+00  -1.0000000E+00  -1.0000000E+00
	2212	-1	0	0	0	0	0.0000000000E+00	0.0000000000E+00	6.5000000000E+03	6.5000000000E+03	9.3827000000E-01	0.000E+00	0.0
	2212	-1	0	0	0	0	0.0000000000E+00	0.0000000000E+00	-6.5000000000E+03	6.5000000000E+03	9.3827000000E-01	0.000E+00	0.0
	2212	1	0	0	0	0	0.0000000000E+00	0.0000000000E+00	5.0141721968E+03	5.0141721968E+03	9.3827000000E-01	0.000E+00	0.0
	2212	1	0	0	0	0	0.0000000000E+00	0.0000000000E+00	-6.3129410748E+03	6.3129410748E+03	9.3827000000E-01	0.000E+00	0.0
	51	2	1	2	0	0	-9.1517792612E+01	9.6660147557E+01	1.1611111505E+03	1.5740543833E+03	1.0543952805E+03	0.000E+00	0.0
	1000022	2	5	5	0	0	9.1517792612E+01	-9.6660147557E+01	1.1975028606E+03	1.4639719686E+03	8.3155404710E+02	0.000E+00	0.0
	14	1	6	6	0	0	3.1271127439E+01	1.4594638014E+02	2.6439772254E+02	4.4475766994E+02	3.2500000000E+02	0.000E+00	0.0
	-14	1	6	6	0	0	6.0246665173E+01	-2.4260652770E+02	9.3310513803E+02	1.0192142986E+03	3.2500000000E+02	0.000E+00	0.0
	25	2	5	5	0	0	-9.1517792612E+01	9.6660147557E+01	1.0126601741E+02	2.0891475977E+02	1.2518737987E+02	0.000E+00	0.0
	-5	1	9	9	0	501	-7.4480628801E+00	8.7002683895E+01	8.6367179700E+01	1.2288898557E+02	4.1800000000E+00	0.000E+00	0.0
	5	1	9	9	501	0	-8.4069729732E+01	9.6574636623E+00	1.4898837712E+01	8.6025774200E+01	4.1800000000E+00	0.000E+00	0.0
</event>
<event>
    11  -1  1.0000000E+00  1.0000000E+00  -1.0000000E+00  -1.0000000E+00
	2212	-1	0	0	0	0	0.0000000000E+00	0.0000000000E+00	6.5000000000E+03	6.5000000000E+03	9.3827000000E-01	0.000E+00	0.0
	2212	-1	0	0	0	0	0.0000000000E+00	0.0000000000E+00	-6.5000000000E+03	6.5000000000E+03	9.3827000000E-01	0.000E+00	0.0
	2212	1	0	0	0	0	0.0000000000E+00	0.0000000000E+00	6.1893754357E+03	6.1893754357E+03	9.3827000000E-01	0.000E+00	0.0
	2212	1	0	0	0	0	0.0000000000E+00	0.0000000000E+00	-5.5929914468E+03	5.5929914468E+03	9.3827000000E-01	0.000E+00	0.0
	51	2	1	2	0	0	-5.8224706143E+01	1.0571391319E+02	-4.5186995080E+02	1.1600467866E+03	1.0615820961E+03	0.000E+00	0.0
	1000022	2	5	5	0	0	5.8224706143E+01	-1.0571391319E+02	-6.2627796715E+02	1.0412004552E+03	8.2298769607E+02	0.000E+00	0.0
	14	1	6	6	0	0	2.0127436605E+02	1.2795908643E+02	-3.5318706261E+02	5.3595802021E+02	3.2500000000E+02	0.000E+00	0.0
	-14	1	6	6	0	0	-1.4304965991E+02	-2.3367299962E+02	-2.7309090454E+02	5.0524243497E+02	3.2500000000E+02	0.000E+00	0.0
	25	2	5	5	0	0	-5.8224706143E+01	1.0571391319E+02	2.9893978291E+01	1.7643266237E+02	1.2517702091E+02	0.000E+00	0.0
	-5	1	9	9	0	501	-9.1599881045E+01	1.0579327546E+02	2.7779456759E+01	1.4273025593E+02	4.1800000000E+00	0.000E+00	0.0
	5	1	9	9	501	0	3.3375174902E+01	-7.9362275819E-02	2.1145215314E+00	3.3702406434E+01	4.1800000000E+00	0.000E+00	0.0
</event>
<event>
    11  -1  1.0000000E+00  1.0000000E+00  -1.0000000E+00  -1.0000000E+00
	2212	-1	0	0	0	0	0.0000000000E+00	0.0000000000E+00	6.5000000000E+03	6.5000000000E+03	9.3827000000E-01	0.000E+00	0.0
	2212	-1	0	0	0	0	0.0000000000E+00	0.0000000000E+00	-6.5000000000E+03	6.5000000000E+03	9.3827000000E-01	0.000E+00	0.0
	2212	1	0	0	0	0	0.0000000000E+00	0.0000000000E+00	4.9047092044E+03	4.9047092044E+03	9.3827000000E-01	0.000E+00	0.0
	2212	1	0	0	0	0	0.0000000000E+00	0.0000000000E+00	-6.3290537440E+03	6.3290537440E+03	9.3827000000E-01	0.000E+00	0.0
	51	2	1	2	0	0	-8.8386974285E+01	9.0705833204E+01	1.5186641389E+03	1.8474892495E+03	1.0444309238E+03	0.000E+00	0.0
	1000022	2	5	5	0	0	8.8386974285E+01	-9.0705833204E+01	1.0901698938E+03	1.3875562060E+03	8.4900060185E+02	0.000E+00	0.0
	14	1	6	6	0	0	8.7625106111E+01	1.3744231795E+02	2.0498782830E+02	4.1738897893E+02	3.2500000000E+02	0.000E+00	0.0
	-14	1	6	6	0	0	7.6186817417E-01	-2.2814815115E+02	8.8518206549E+02	9.7016722702E+02	3.2500000000E+02	0.000E+00	0.0
	25	2	5	5	0	0	-8.8386974285E+01	9.0705833204E+01	3.3417464585E+02	3.7868084560E+02	1.2524649094E+02	0.000E+00	0.0
	-5	1	9	9	0	501	-6.0572194571E+00	3.5592744717E+00	-1.0742118004E+01	1.3499031133E+01	4.1800000000E+00	0.000E+00	0.0
	5	1	9	9	501	0	-8.2329754828E+01	8.7146558732E+01	3.4491676385E+02	3.6518181447E+02	4.1800000000E+00	0.000E+00	0.0
</event>
<event>
    11  -1  1.0000000E+00  1.0000000E+00  -1.0000000E+00  -1.0000000E+00
	2212	-1	0	0	0	0	0.0000000000E+00	0.0000000000E+00	6.5000000000E+03	6.5000000000E+03	9.3827000000E-01	0.000E+00	0.0
	2212	-1	0	0	0	0	0.0000000000E+00	0.0000000000E+00	-6.5000000000E+03	6.5000000000E+03	9.3827000000E-01	0.000E+00	0.0
	2212	1	0	0	0	0	0.0000000000E+00	0.0000000000E+00	5.0222015262E+03	5.0222015262E+03	9.3827000000E-01	0.000E+00	0.0
	2212	1	0	0	0	0	0.0000000000E+00	0.0000000000E+00	-6.3150788427E+03	6.3150788427E+03	9.3827000000E-01	0.000E+00	0.0
	51	2	1	2	0	0	-1.3214100784E+02	2.7456216241E+01	1.2956006280E+03	1.6702996419E+03	1.0455165309E+03	0.000E+00	0.0
	1000022	2	5	5	0	0	1.3214100784E+02	-2.7456216241E+01	1.0731846612E+03	1.3761037192E+03	8.5071795525E+02	0.000E+00	0.0
	14	1	6	6	0	0	-1.1956588180E+02	1.1590705722E+02	7.4908223251E+02	8.3335444864E+02	3.2500000000E+02	0.000E+00	0.0
	-14	1	6	6	0	0	2.5170688964E+02	-1.4336327346E+02	3.2410242864E+02	5.4274927058E+02	3.2500000000E+02	0.000E+00	0.0
	25	2	5	5	0	0	-1.3214100784E+02	2.7456216241E+01	2.1969265532E+02	2.8661591194E+02	1.2517479144E+02	0.000E+00	0.0
	-5	1	9	9	0	501	1.4695236379E+01	1.8683224533E+01	2.4983555394E+00	2.4263697814E+01	4.1800000000E+00	0.000E+00	0.0
	5	1	9	9	501	0	-1.4683624422E+02	8.7729917080E+00	2.1719429979E+02	2.6235221413E+02	4.1800000000E+00	0.000E+00	0.0
</event>
<event>
    11  -1  1.0000000E+00  1.0000000E+00  -1.0000000E+00  -1.0000000E+00
	2212	-1	0	0	0	0	0.0000000000E+00	0.0000000000E+00	6.5000000000E+03	6.5000000000E+03	9.3827000000E-01	0.000E+00	0.0
	2212	-1	0	0	0	0	0.0000000000E+00	0.0000000000E+00	-6.5000000000E+03	6.5000000000E+03	9.3827000000E-01	0.000E+00	0.0
	2212	1	0	0	0	0	0.0000000000E+00	0.0000000000E+00	5.6320323752E+03	5.6320323752E+03	9.3827000000E-01	0.000E+00	0.0
	2212	1	0	0	0	0	0.0000000000E+00	0.0000000000E+00	-6.1841867374E+03	6.1841867374E+03	9.3827000000E-01	0.000E+00	0.0
	51	2	1	2	0	0	-1.3303665048E+02	-1.1102977738E+02	6.4793057886E+02	1.2435043814E+03	1.0471211724E+03	0.000E+00	0.0
	1000022	2	5	5	0	0	1.3303665048E+02	1.1102977738E+02	3.4557937919E+02	8.8651247672E+02	7.9777998360E+02	0.000E+00	0.0
	14	1	6	6	0	0	2.7883434314E+02	9.2886047686E+01	8.8953890763E+01	4.4711766175E+02	3.2500000000E+02	0.000E+00	0.0
	-14	1	6	6	0	0	-1.4579769266E+02	1.8143729693E+01	2.5662548843E+02	4.3939481497E+02	3.2500000000E+02	0.000E+00	0.0
	25	2	5	5	0	0	-1.3303665048E+02	-1.1102977738E+02	2.0657498301E+02	2.9726841065E+02	1.2517556682E+02	0.000E+00	0.0
	-5	1	9	9	0	501	-1.3308965197E+02	-4.9441433990E+01	1.8190712003E+02	2.3079207866E+02	4.1800000000E+00	0.000E+00	0.0
	5	1	9	9	501	0	5.3001484086E-02	-6.1588343389E+01	2.4667862984E+01	6.6476331989E+01	4.1800000000E+00	0.000E+00	0.0
</event>
<event>
    11  -1  1.0000000E+00  1.0000000E+00  -1.0000000E+00  -1.0000000E+00
	2212	-1	0	0	0	0	0.0000000000E+00	0.0000000000E+00	6.5000000000E+03	6.5000000000E+03	9.3827000000E-01	0.000E+00	0.0
	2212	-1	0	0	0	0	0.0000000000E+00	0.0000000000E+00	-6.5000000000E+03	6.5000000000E+03	9.3827000000E-01	0.000E+00	0.0
	2212	1	0	0	0	0	0.0000000000E+00	0.0000000000E+00	6.1651490292E+03	6.1651490292E+03	9.3827000000E-01	0.000E+00	0.0
	2212	1	0	0	0	0	0.0000000000E+00	0.0000000000E+00	-5.6824066600E+03	5.6824066600E+03	9.3827000000E-01	0.000E+00	0.0
	51	2	1	2	0	0	-5.8198051429E+01	-1.2646768545E+02	-5.2118289661E+02	1.1773276498E+03	1.0464643781E+03	0.000E+00	0.0
	1000022	2	5	5	0	0	5.8198051429E+01	1.2646768545E+02	-3.6123140245E+02	9.2924803882E+02	8.4476783964E+02	0.000E+00	0.0
	14	1	6	6	0	0	3.7514824672E-01	5.5911600155E+01	1.1172370833E+02	3.4818591984E+02	3.2500000000E+02	0.000E+00	0.0
	-14	1	6	6	0	0	5.7822903183E+01	7.0556085297E+01	-4.7295511078E+02	5.8106211899E+02	3.2500000000E+02	0.000E+00	0.0
	25	2	5	5	0	0	-5.8198051429E+01	-1.2646768545E+02	-1.2151096673E+02	2.2319627204E+02	1.2518215594E+02	0.000E+00	0.0
	-5	1	9	9	0	501	-5.7111237724E+01	-4.2821818424E+01	-1.1968630806E+02	1.3941910323E+02	4.1800000000E+00	0.000E+00	0.0
	5	1	9	9	501	0	-1.0868137054E+00	-8.3645867028E+01	-1.8246586628E+00	8.3777168812E+01	4.1800000000E+00	0.000E+00	0.0
</event>
<event>
    11  -1  1.0000000E+00  1.0000000E+00  -1.0000000E+00  -1.0000000E+00
	2212	-1	0	0	0	0	0.0000000000E+00	0.0000000000E+00	6.5000000000E+03	6.5000000000E+03	9.3827000000E-01	0.000E+00	0.0
	2212	-1	0	0	0	0	0.0000000000E+00	0.0000000000E+00	-6.5000000000E+03	6.5000000000E+03	9.3827000000E-01	0.000E+00	0.0
	2212	1	0	0	0	0	0.0000000000E+00	0.0000000000E+00	5.8753799962E+03	5.8753799962E+03	9.3827000000E-01	0.000E+00	0.0
	2212	1	0	0	0	0	0.0000000000E+00	0.0000000000E+00	-6.0845522451E+03	6.0845522451E+03	9.3827000000E-01	0.000E+00	0.0
	51	2	1	2	0	0	9.0761766899E+01	-1.1702359208E+01	1.5026498655E+02	1.0338965725E+03	1.0188169183E+03	0.000E+00	0.0
	1000022	2	5	5	0	0	-9.0761766899E+01	1.1702359208E+01	2.3521626817E+02	8.8283294979E+02	8.4598621791E+02	0.000E+00	0.0
	14	1	6	6	0	0	1.4800733454E+02	1.3556772962E+02	-3.2211728419E+01	3.8333715687E+02	3.2500000000E+02	0.000E+00	0.0
	-14	1	6	6	0	0	-2.3876910144E+02	-1.2386537041E+02	2.6742799658E+02	4.9949579292E+02	3.2500000000E+02	0.000E+00	0.0
	25	2	5	5	0	0	9.0761766899E+01	-1.1702359208E+01	-2.6044019325E+01	1.5723480888E+02	1.2517927400E+02	0.000E+00	0.0
	-5	1	9	9	0	501	7.4146228633E+00	3.4000124416E+01	3.0579161116E+01	4.6513896709E+01	4.1800000000E+00	0.000E+00	0.0
	5	1	9	9	501	0	8.3347144036E+01	-4.5702483624E+01	-5.6623180441E+01	1.1072091217E+02	4.1800000000E+00	0.000E+00	0.0
</event>
<event>
    11  -1  1.0000000E+00  1.0000000E+00  -1.0000000E+00  -1.0000000E+00
	2212	-1	0	0	0	0	0.0000000000E+00	0.0000000000E+00	6.5000000000E+03	6.5000000000E+03	9.3827000000E-01	0.000E+00	0.0
	2212	-1	0	0	0	0	0.0000000000E+00	0.0000000000E+00	-6.5000000000E+03	6.5000000000E+03	9.3827000000E-01	0.000E+00	0.0
	2212	1	0	0	0	0	0.0000000000E+00	0.0000000000E+00	6.2512907889E+03	6.2512907889E+03	9.3827000000E-01	0.000E+00	0.0
	2212	1	0	0	0	0	0.0000000000E+00	0.0000000000E+00	-5.3942534831E+03	5.3942534831E+03	9.3827000000E-01	0.000E+00	0.0
	51	2	1	2	0	0	6.1932565110E+01	1.0479329804E+02	-8.2101609398E+02	1.3375059178E+03	1.0488266661E+03	0.000E+00	0.0
	1000022	2	5	5	0	0	-6.1932565110E+01	-1.0479329804E+02	-7.5407027161E+02	1.1517494921E+03	8.6202531287E+02	0.000E+00	0.0
	14	1	6	6	0	0	-1.5270329733E+02	1.9806472094E+02	-4.3158015854E+02	5.9534390393E+02	3.2500000000E+02	0.000E+00	0.0
	-14	1	6	6	0	0	9.0770732224E+01	-3.0285801899E+02	-3.2249011307E+02	5.5640558815E+02	3.2500000000E+02	0.000E+00	0.0
	25	2	5	5	0	0	6.1932565110E+01	1.0479329804E+02	-1.0296703422E+02	2.0270623592E+02	1.2518118873E+02	0.000E+00	0.0
	-5	1	9	9	0	501	2.5044324872E+00	1.9610417135E+01	2.8607635181E+01	3.5024417667E+01	4.1800000000E+00	0.000E+00	0.0
	5	1	9	9	501	0	5.9428132623E+01	8.5182880907E+01	-1.3157466940E+02	1.6768181826E+02	4.1800000000E+00	0.000E+00	0.0
</event>
<event>
    11  -1  1.0000000E+00  1.0000000E+00  -1.0000000E+00  -1.0000000E+00
	2212	-1	0	0	0	0	0.0000000000E+00	0.0000000000E+00	6.5000000000E+03	6.5000000000E+03	9.3827000000E-01	0.000E+00	0.0
	2212	-1	0	0	0	0	0.0000000000E+00	0.0000000000E+00	-6.5000000000E+03	6.5000000000E+03	9.3827000000E-01	0.000E+00	0.0
	2212	1	0	0	0	0	0.0000000000E+00	0.0000000000E+00	6.1136692483E+03	6.1136692483E+03	9.3827000000E-01	0.000E+00	0.0
	2212	1	0	0	0	0	0.0000000000E+00	0.0000000000E+00	-5.8018345554E+03	5.8018345554E+03	9.3827000000E-01	0.000E+00	0.0
	51	2	1	2	0	0	5.4224338648E+01	-5.0482717771E+01	-2.1391331362E+02	1.0630798716E+03	1.0386968393E+03	0.000E+00	0.0
	1000022	2	5	5	0	0	-5.4224338648E+01	5.0482717771E+01	-3.5957575955E+02	9.3139583140E+02	8.5598754909E+02	0.000E+00	0.0
	14	1	6	6	0	0	2.0920538721E+02	-7.6399169024E+01	-2.8886943229E+02	4.8854301344E+02	3.2500000000E+02	0.000E+00	0.0
	-14	1	6	6	0	0	-2.6342972586E+02	1.2688188679E+02	-7.0706327262E+01	4.4285281796E+02	3.2500000000E+02	0.000E+00	0.0
	25	2	5	5	0	0	5.4224338648E+01	-5.0482717771E+01	4.7741066598E+01	1.5310036485E+02	1.2518677479E+02	0.000E+00	0.0
	-5	1	9	9	0	501	8.7885465474E+01	-5.2642291008E+01	5.7741079960E+01	1.1767145176E+02	4.1800000000E+00	0.000E+00	0.0
	5	1	9	9	501	0	-3.3661126826E+01	2.1595732370E+00	-1.0000013362E+01	3.5428913094E+01	4.1800000000E+00	0.000E+00	0.0
</event>
<event>
    11  -1  1.0000000E+00  1.0000000E+00  -1.0000000E+00  -1.0000000E+00
	2212	-1	0	0	0	0	0.0000000000E+00	0.0000000000E+00	6.5000000000E+03	6.5000000000E+03	9.3827000000E-01	0.000E+00	0.0
	2212	-1	0	0	0	0	0.0000000000E+00	0.0000000000E+00	-6.5000000000E+03	6.5000000000E+03	9.3827000000E-01	0.000E+00	0.0
	2212	1	0	0	0	0	0.0000000000E+00	0.0000000000E+00	5.4625785410E+03	5.4625785410E+03	9.3827000000E-01	0.000E+00	0.0
	2212	1	0	0	0	0	0.0000000000E+00	0.0000000000E+00	-6.2170934140E+03	6.2170934140E+03	9.3827000000E-01	0.000E+00	0.0
	51	2	1	2	0	0	-6.9040834261E+01	1.1223385596E+02	6.3500787638E+02	1.2627634501E+03	1.0835005550E+03	0.000E+00	0.0
	1000022	2	5	5	0	0	6.9040834261E+01	-1.1223385596E+02	7.3677663983E+02	1.1377267630E+03	8.5686597268E+02	0.000E+00	0.0
	14	1	6	6	0	0	2.4093440727E+02	3.9400982652E+01	5.8433669039E+02	7.1181190899E+02	3.2500000000E+02	0.000E+00	0.0
	-14	1	6	6	0	0	-1.7189357301E+02	-1.5163483861E+02	1.5243994944E+02	4.2591485406E+02	3.2500000000E+02	0.000E+00	0.0
	25	2	5	5	0	0	-6.9040834261E+01	1.1223385596E+02	1.7738233194E+01	1.8260128191E+02	1.2516192720E+02	0.000E+00	0.0
	-5	1	9	9	0	501	2.7041004044E+00	-6.2677474850E+00	4.1259343879E+01	4.2028593539E+01	4.1800000000E+00	0.000E+00	0.0
	5	1	9	9	501	0	-7.1744934665E+01	1.1850160344E+02	-2.3521110685E+01	1.4057268837E+02	4.1800000000E+00	0.000E+00	0.0
</event>
<event>
    11  -1  1.0000000E+00  1.0000000E+00  -1.0000000E+00  -1.0000000E+00
	2212	-1	0	0	0	0	0.0000000000E+00	0.0000000000E+00	6.5000000000E+03	6.5000000000E+03	9.3827000000E-01	0.000E+00	0.0
	2212	-1	0	0	0	0	0.0000000000E+00	0.0000000000E+00	-6.5000000000E+03	6.5000000000E+03	9.3827000000E-01	0.000E+00	0.0
	2212	1	0	0	0	0	0.0000000000E+00	0.0000000000E+00	5.7984202676E+03	5.7984202676E+03	9.3827000000E-01	0.000E+00	0.0
	2212	1	0	0	0	0	0.0000000000E+00	0.0000000000E+00	-6.0984970503E+03	6.0984970503E+03	9.3827000000E-01	0.000E+00	0.0
	51	2	1	2	0	0	6.8739858592E+01	4.5200556453E+01	4.2027085013E+02	1.1446139847E+03	1.0614826084E+03	0.000E+00	0.0
	1000022	2	5	5	0	0	-6.8739858592E+01	-4.5200556453E+01	1.2940650782E+02	8.7600076870E+02	8.6247495270E+02	0.000E+00	0.0
	14	1	6	6	0	0	-2.2806068450E+02	-2.3119382836E+02	6.7041117856E+01	4.6430784354E+02	3.2500000000E+02	0.000E+00	0.0
	-14	1	6	6	0	0	1.5932082591E+02	1.8599327191E+02	6.2365389963E+01	4.1169292516E+02	3.2500000000E+02	0.000E+00	0.0
	25	2	5	5	0	0	6.8739858592E+01	4.5200556453E+01	1.7067027488E+02	2.2708191336E+02	1.2517824964E+02	0.000E+00	0.0
	-5	1	9	9	0	501	5.3901099348E+01	7.5649408709E+01	5.8545888117E+01	1.0987836440E+02	4.1800000000E+00	0.000E+00	0.0
	5	1	9	9	501	0	1.4838759245E+01	-3.0448852255E+01	1.1212438677E+02	1.1720354895E+02	4.1800000000E+00	0.000E+00	0.0
</event>
<event>
    11  -1  1.0000000E+00  1.0000000E+00  -1.0000000E+00  -1.0000000E+00
	2212	-1	0	0	0	0	0.0000000000E+00	0.0000000000E+00	6.5000000000E+03	6.5000000000E+03	9.3827000000E-01	0.000E+00	0.0
	2212	-1	0	0	0	0	0.0000000000E+00	0.0000000000E+00	-6.5000000000E+03	6.5000000000E+03	9.3827000000E-01	0.000E+00	0.0
	2212	1	0	0	0	0	0.0000000000E+00	0.0000000000E+00	4.9691412524E+03	4.9691412524E+03	9.3827000000E-01	0.000E+00	0.0
	2212	1	0	0	0	0	0.0000000000E+00	0.0000000000E+00	-6.3192873076E+03	6.3192873076E+03	9.3827000000E-01	0.000E+00	0.0
	51	2	1	2	0	0	-1.0478506480E+02	-4.8564021634E+01	1.2003633628E+03	1.6002477935E+03	1.0519422150E+03	0.000E+00	0.0
	1000022	2	5	5	0	0	1.0478506480E+02	4.8564021634E+01	1.2601629294E+03	1.5189455062E+03	8.4014669454E+02	0.000E+00	0.0
	14	1	6	6	0	0	2.9876706680E+02	1.3119646521E+02	6.9608871384E+02	8.3464889039E+02	3.2500000000E+02	0.000E+00	0.0
	-14	1	6	6	0	0	-1.9398200200E+02	-8.2632443578E+01	5.6407421555E+02	6.8429661586E+02	3.2500000000E+02	0.000E+00	0.0
	25	2	5	5	0	0	-1.0478506480E+02	-4.8564021634E+01	8.9983125830E+01	1.9262593374E+02	1.2517752759E+02	0.000E+00	0.0
	-5	1	9	9	0	501	-3.8621562756E+01	4.2151310444E+01	3.8379419911E+01	6.8984131179E+01	4.1800000000E+00	0.000E+00	0.0
	5	1	9	9	501	0	-6.6163502045E+01	-9.0715332078E+01	5.1603705919E+01	1.2364180256E+02	4.1800000000E+00	0.000E+00	0.0
</event>
<event>
    11  -1  1.0000000E+00  1.0000000E+00  -1.0000000E+00  -1.0000000E+00
	2212	-1	0	0	0	0	0.0000000000E+00	0.0000000000E+00	6.5000000000E+03	6.5000000000E+03	9.3827000000E-01	0.000E+00	0.0
	2212	-1	0	0	0	0	0.0000000000E+00	0.0000000000E+00	-6.5000000000E+03	6.5000000000E+03	9.3827000000E-01	0.000E+00	0.0
	2212	1	0	0	0	0	0.0000000000E+00	0.0000000000E+00	6.3198465589E+03	6.3198465589E+03	9.3827000000E-01	0.000E+00	0.0
	2212	1	0	0	0	0	0.0000000000E+00	0.0000000000E+00	-4.9636664275E+03	4.9636664275E+03	9.3827000000E-01	0.000E+00	0.0
	51	2	1	2	0	0	-1.2868429613E+02	-5.1793522469E+01	-1.4362612138E+03	1.7858307899E+03	1.0521896782E+03	0.000E+00	0.0
	1000022	2	5	5	0	0	1.2868429613E+02	5.1793522469E+01	-1.0422311230E+03	1.3511418074E+03	8.4858485313E+02	0.000E+00	0.0
	14	1	6	6	0	0	6.3637474466E+01	1.7718960144E+02	-1.7512060533E+02	4.1441296966E+02	3.2500000000E+02	0.000E+00	0.0
	-14	1	6	6	0	0	6.5046821662E+01	-1.2539607897E+02	-8.6711051766E+02	9.3672883775E+02	3.2500000000E+02	0.000E+00	0.0
	25	2	5	5	0	0	-1.2868429613E+02	-5.1793522469E+01	-3.1394900844E+02	3.6534520615E+02	1.2518355609E+02	0.000E+00	0.0
	-5	1	9	9	0	501	-1.1752358138E+02	1.9079677904E-01	-1.3708292257E+02	1.8061292491E+02	4.1800000000E+00	0.000E+00	0.0
	5	1	9	9	501	0	-1.1160714746E+01	-5.1984319248E+01	-1.7686608587E+02	1.8473228124E+02	4.1800000000E+00	0.000E+00	0.0
</event>
<event>
    11  -1  1.0000000E+00  1.0000000E+00  -1.0000000E+00  -1.0000000E+00
	2212	-1	0	0	0	0	0.0000000000E+00	0.0000000000E+00	6.5000000000E+03	6.5000000000E+03	9.3827000000E-01	0.000E+00	0.0
	2212	-1	0	0	0	0	0.0000000000E+00	0.0000000000E+00	-6.5000000000E+03	6.5000000000E+03	9.3827000000E-01	0.000E+00	0.0
	2212	1	0	0	0	0	0.0000000000E+00	0.0000000000E+00	6.2808017006E+03	6.2808017006E+03	9.3827000000E-01	0.000E+00	0.0
	2212	1	0	0	0	0	0.0000000000E+00	0.0000000000E+00	-5.2499350777E+03	5.2499350777E+03	9.3827000000E-01	0.000E+00	0.0
	51	2	1	2	0	0	5.9593996115E+01	1.3339709669E+02	-1.0378267014E+03	1.4813773699E+03	1.0469233115E+03	0.000E+00	0.0
	1000022	2	5	5	0	0	-5.9593996115E+01	-1.3339709669E+02	-8.4445147593E+02	1.2013771566E+03	8.4193975280E+02	0.000E+00	0.0
	14	1	6	6	0	0	-2.8976698703E+02	-1.3312884974E+02	-4.2207843926E+02	6.2085699344E+02	3.2500000000E+02	0.000E+00	0.0
	-14	1	6	6	0	0	2.3017299092E+02	-2.6824695625E-01	-4.2237303666E+02	5.8052016313E+02	3.2500000000E+02	0.000E+00	0.0
	25	2	5	5	0	0	5.9593996115E+01	1.3339709669E+02	-1.8641514700E+02	2.6788606506E+02	1.2516432018E+02	0.000E+00	0.0
	-5	1	9	9	0	501	2.6450738907E+01	-1.8060033580E+01	-5.8585302357E+01	6.6899300848E+01	4.1800000000E+00	0.000E+00	0.0
	5	1	9	9	501	0	3.3143257208E+01	1.5145713027E+02	-1.2782984464E+02	2.0098676422E+02	4.1800000000E+00	0.000E+00	0.0
</event>
<event>
    11  -1  1.0000000E+00  1.0000000E+00  -1.0000000E+00  -1.0000000E+00
	2212	-1	0	0	0	0	0.0000000000E+00	0.0000000000E+00	6.5000000000E+03	6.5000000000E+03	9.3827000000E-01	0.000E+00	0.0
	2212	-1	0	0	0	0	0.0000000000E+00	0.0000000000E+00	-6.5000000000E+03	6.5000000000E+03	9.3827000000E-01	0.000E+00	0.0
	2212	1	0	0	0	0	0.0000000000E+00	0.0000000000E+00	6.3361174942E+03	6.3361174942E+03	9.3827000000E-01	0.000E+00	0.0
	2212	1	0	0	0	0	0.0000000000E+00	0.0000000000E+00	-4.8499582292E+03	4.8499582292E+03	9.3827000000E-01	0.000E+00	0.0
	51	2	1	2	0	0	4.4496820436E+01	4.9494190408E+01	-1.6906817941E+03	1.9860731334E+03	1.0400249614E+03	0.000E+00	0.0
	1000022	2	5	5	0	0	-4.4496820436E+01	-4.9494190408E+01	-1.0360136204E+03	1.3419813516E+03	8.5038819628E+02	0.000E+00	0.0
	14	1	6	6	0	0	-1.3830072965E+02	-2.1110201025E+02	-2.7876902409E+02	4.9701943558E+02	3.2500000000E+02	0.000E+00	0.0
	-14	1	6	6	0	0	9.3803909211E+01	1.6160781984E+02	-7.5724459635E+02	8.4496191601E+02	3.2500000000E+02	0.000E+00	0.0
	25	2	5	5	0	0	4.4496820436E+01	4.9494190408E+01	-4.5014564461E+02	4.7194292504E+02	1.2517739900E+02	0.000E+00	0.0
	-5	1	9	9	0	501	-4.3584875598E+01	2.2291197275E+01	-1.7268509311E+02	1.7953872183E+02	4.1800000000E+00	0.000E+00	0.0
	5	1	9	9	501	0	8.8081696034E+01	2.7202993133E+01	-2.7746055150E+02	2.9240420320E+02	4.1800000000E+00	0.000E+00	0.0
</event>
<event>
    11  -1  1.0000000E+00  1.0000000E+00  -1.0000000E+00  -1.0000000E+00
	2212	-1	0	0	0	0	0.0000000000E+00	0.0000000000E+00	6.5000000000E+03	6.5000000000E+03	9.3827000000E-01	0.000E+00	0.0
	2212	-1	0	0	0	0	0.0000000000E+00	0.0000000000E+00	-6.5000000000E+03	6.5000000000E+03	9.3827000000E-01	0.000E+00	0.0
	2212	1	0	0	0	0	0.0000000000E+00	0.0000000000E+00	6.3217964161E+03	6.3217964161E+03	9.3827000000E-01	0.000E+00	0.0
	2212	1	0	0	0	0	0.0000000000E+00	0.0000000000E+00	-4.9313113678E+03	4.9313113678E+03	9.3827000000E-01	0.000E+00	0.0
	51	2	1	2	0	0	-8.8899172284E+00	-7.4583487683E+01	-1.6453950557E+03	1.9573324606E+03	1.0574420763E+03	0.000E+00	0.0
	1000022	2	5	5	0	0	8.8899172284E+00	7.4583487683E+01	-8.8193879383E+02	1.2178040390E+03	8.3641431960E+02	0.000E+00	0.0
	14	1	6	6	0	0	-3.0599557335E+01	2.9516035798E+02	-5.3037846848E+02	6.8918958905E+02	3.2500000000E+02	0.000E+00	0.0
	-14	1	6	6	0	0	3.9489474564E+01	-2.2057687030E+02	-3.5156032536E+02	5.2861444993E+02	3.2500000000E+02	0.000E+00	0.0
	25	2	5	5	0	0	-8.8899172284E+00	-7.4583487683E+01	-5.0854625446E+02	5.2908817702E+02	1.2519296657E+02	0.000E+00	0.0
	-5	1	9	9	0	501	-4.5063315757E+00	-5.5074603367E+01	-6.6471091589E+01	8.6541304458E+01	4.1800000000E+00	0.000E+00	0.0
	5	1	9	9	501	0	-4.3835856527E+00	-1.9508884316E+01	-4.4207516287E+02	4.4254687257E+02	4.1800000000E+00	0.000E+00	0.0
</event>
<event>
    11  -1  1.0000000E+00  1.0000000E+00  -1.0000000E+00  -1.0000000E+00
	2212	-1	0	0	0	0	0.0000000000E+00	0.0000000000E+00	6.5000000000E+03	6.5000000000E+03	9.3827000000E-01	0.000E+00	0.0
	2212	-1	0	0	0	0	0.0000000000E+00	0.0000000000E+00	-6.5000000000E+03	6.5000000000E+03	9.3827000000E-01	0.000E+00	0.0
	2212	1	0	0	0	0	0.0000000000E+00	0.0000000000E+00	5.5963460286E+03	5.5963460286E+03	9.3827000000E-01	0.000E+00	0.0
	2212	1	0	0	0	0	0.0000000000E+00	0.0000000000E+00	-6.1959652980E+03	6.1959652980E+03	9.3827000000E-01	0.000E+00	0.0
	51	2	1	2	0	0	1.2866735729E+00	1.3034618560E+02	6.3041811940E+02	1.2301981355E+03	1.0483170625E+03	0.000E+00	0.0
	1000022	2	5	5	0	0	-1.2866735729E+00	-1.3034618560E+02	4.6945875008E+02	9.8505561843E+02	8.5612573244E+02	0.000E+00	0.0
	14	1	6	6	0	0	1.1784461732E+02	7.4097904657E+00	-4.6241555626E+01	3.4886321143E+02	3.2500000000E+02	0.000E+00	0.0
	-14	1	6	6	0	0	-1.1913129089E+02	-1.3775597606E+02	5.1570030571E+02	6.3619240699E+02	3.2500000000E+02	0.000E+00	0.0
	25	2	5	5	0	0	1.2866735729E+00	1.3034618560E+02	1.3016051929E+02	2.2263305495E+02	1.2502772790E+02	0.000E+00	0.0
	-5	1	9	9	0	501	-9.9348387204E+00	1.2046347024E+02	3.4567904966E+01	1.2578776227E+02	4.1800000000E+00	0.000E+00	0.0
	5	1	9	9	501	0	1.1221512293E+01	9.8827153589E+00	9.5592614325E+01	9.6845292681E+01	4.1800000000E+00	0.000E+00	0.0
</event>
<event>
    11  -1  1.0000000E+00  1.0000000E+00  -1.0000000E+00  -1.0000000E+00
	2212	-1	0	0	0	0	0.0000000000E+00	0.0000000000E+00	6.5000000000E+03	6.5000000000E+03	9.3827000000E-01	0.000E+00	0.0
	2212	-1	0	0	0	0	0.0000000000E+00	0.0000000000E+00	-6.5000000000E+03	6.5000000000E+03	9.3827000000E-01	0.000E+00	0.0
	2212	1	0	0	0	0	0.0000000000E+00	0.0000000000E+00	6.2504839106E+03	6.2504839106E+03	9.3827000000E-01	0.000E+00	0.0
	2212	1	0	0	0	0	0.0000000000E+00	0.0000000000E+00	-5.3884423180E+03	5.3884423180E+03	9.3827000000E-01	0.000E+00	0.0
	51	2	1	2	0	0	-1.1258287170E+02	-9.5441478935E+01	-8.2358841864E+02	1.3451720953E+03	1.0532834869E+03	0.000E+00	0.0
	1000022	2	5	5	0	0	1.1258287170E+02	9.5441478935E+01	-7.4822229727E+02	1.1365530992E+03	8.4269351615E+02	0.000E+00	0.0
	14	1	6	6	0	0	-1.4682769638E+02	1.7992282263E+02	-2.1032630385E+02	4.5143410219E+02	3.2500000000E+02	0.000E+00	0.0
	-14	1	6	6	0	0	2.5941056808E+02	-8.4481343692E+01	-5.3789599342E+02	6.8511899697E+02	3.2500000000E+02	0.000E+00	0.0
	25	2	5	5	0	0	-1.1258287170E+02	-9.5441478935E+01	-1.1381929533E+02	2.2452067225E+02	1.2518275192E+02	0.000E+00	0.0
	-5	1	9	9	0	501	-1.3290704398E+02	-5.2149997850E+01	-6.8141987311E+01	1.5825519723E+02	4.1800000000E+00	0.000E+00	0.0
	5	1	9	9	501	0	2.0324172273E+01	-4.3291481085E+01	-4.5677308016E+01	6.6265475028E+01	4.1800000000E+00	0.000E+00	0.0
</event>
<event>
    11  -1  1.0000000E+00  1.0000000E+00  -1.0000000E+00  -1.0000000E+00
	2212	-1	0	0	0	0	0.0000000000E+00	0.0000000000E+00	6.5000000000E+03	6.5000000000E+03	9.3827000000E-01	0.000E+00	0.0
	2212	-1	0	0	0	0	0.0000000000E+00	0.0000000000E+00	-6.5000000000E+03	6.5000000000E+03	9.3827000000E-01	0.000E+00	0.0
	2212	1	0	0	0	0	0.0000000000E+00	0.0000000000E+00	6.2350052609E+03	6.2350052609E+03	9.3827000000E-01	0.000E+00	0.0
	2212	1	0	0	0	0	0.0000000000E+00	0.0000000000E+00	-5.4181306376E+03	5.4181306376E+03	9.3827000000E-01	0.000E+00	0.0
	51	2	1	2	0	0	-4.5627631589E+01	8.6995330609E+01	-9.8143025609E+02	1.4558894785E+03	1.0708682261E+03	0.000E+00	0.0
	1000022	2	5	5	0	0	4.5627631589E+01	-8.6995330609E+01	-5.0736733362E+02	9.9884221568E+02	8.5475966931E+02	0.000E+00	0.0
	14	1	6	6	0	0	-6.5553963658E+01	2.0880825128E+02	-1.4247235618E+02	4.1691915311E+02	3.2500000000E+02	0.000E+00	0.0
	-14	1	6	6	0	0	1.1118159525E+02	-2.9580358189E+02	-3.6489497744E+02	5.8192306257E+02	3.2500000000E+02	0.000E+00	0.0
	25	2	5	5	0	0	-4.5627631589E+01	8.6995330609E+01	-3.0950728968E+02	3.4802188582E+02	1.2519745337E+02	0.000E+00	0.0
	-5	1	9	9	0	501	-8.6950208240E+01	7.6617949221E+01	-2.3612721634E+02	2.6306688038E+02	4.1800000000E+00	0.000E+00	0.0
	5	1	9	9	501	0	4.1322576651E+01	1.0377381388E+01	-7.3380073339E+01	8.4955005437E+01	4.1800000000E+00	0.000E+00	0.0
</event>
<event>
    11  -1  1.0000000E+00  1.0000000E+00  -1.0000000E+00  -1.0000000E+00
	2212	-1	0	0	0	0	0.0000000000E+00	0.0000000000E+00	6.5000000000E+03	6.5000000000E+03	9.3827000000E-01	0.000E+00	0.0
	2212	-1	0	0	0	0	0.0000000000E+00	0.0000000000E+00	-6.5000000000E+03	6.5000000000E+03	9.3827000000E-01	0.000E+00	0.0
	2212	1	0	0	0	0	0.0000000000E+00	0.0000000000E+00	6.1507565621E+03	6.1507565621E+03	9.3827000000E-01	0.000E+00	0.0
	2212	1	0	0	0	0	0.0000000000E+00	0.0000000000E+00	-5.6919464710E+03	5.6919464710E+03	9.3827000000E-01	0.000E+00	0.0
	51	2	1	2	0	0	-6.8249184028E+00	2.9003513594E+01	-2.9912044509E+02	1.1041695495E+03	1.0624639147E+03	0.000E+00	0.0
	1000022	2	5	5	0	0	6.8249184028E+00	-2.9003513594E+01	-5.3761656701E+02	1.0064056649E+03	8.5025467120E+02	0.000E+00	0.0
	14	1	6	6	0	0	-6.6059993060E+01	-2.3029553470E+02	-9.0761068005E+01	4.1383876988E+02	3.2500000000E+02	0.000E+00	0.0
	-14	1	6	6	0	0	7.2884911463E+01	2.0129202111E+02	-4.4685549901E+02	5.9256689502E+02	3.2500000000E+02	0.000E+00	0.0
	25	2	5	5	0	0	-6.8249184028E+00	2.9003513594E+01	7.8806475996E+01	1.5089130201E+02	1.2517963513E+02	0.000E+00	0.0
	-5	1	9	9	0	501	-5.3554488202E+01	3.7660726480E+01	8.8250098489E+00	6.6194914641E+01	4.1800000000E+00	0.000E+00	0.0
	5	1	9	9	501	0	4.6729569799E+01	-8.6572128854E+00	6.9981466147E+01	8.4696387365E+01	4.1800000000E+00	0.000E+00	0.0
</event>
<event>
    11  -1  1.0000000E+00  1.0000000E+00  -1.0000000E+00  -1.0000000E+00
	2212	-1	0	0	0	0	0.0000000000E+00	0.0000000000E+00	6.5000000000E+03	6.5000000000E+03	9.3827000000E-01	0.000E+00	0.0
	2212	-1	0	0	0	0	0.0000000000E+00	0.0000000000E+00	-6.5000000000E+03	6.5000000000E+03	9.3827000000E-01	0.000E+00	0.0
	2212	1	0	0	0	0	0.0000000000E+00	0.0000000000E+00	5.6179075462E+03	5.6179075462E+03	9.3827000000E-01	0.000E+00	0.0
	2212	1	0	0	0	0	0.0000000000E+00	0.0000000000E+00	-6.1884193046E+03	6.1884193046E+03	9.3827000000E-01	0.000E+00	0.0
	51	2	1	2	0	0	1.0171850253E+02	-2.7621074903E+01	4.6515816321E+02	1.1518913208E+03	1.0485093804E+03	0.000E+00	0.0
	1000022	2	5	5	0	0	-1.0171850253E+02	2.7621074903E+01	5.7760976617E+02	1.0298762939E+03	8.4611025354E+02	0.000E+00	0.0
	14	1	6	6	0	0	-6.8376504382E+01	2.3199303187E+02	1.0203888622E+02	4.1777152547E+02	3.2500000000E+02	0.000E+00	0.0
	-14	1	6	6	0	0	-3.3341998151E+01	-2.0437195697E+02	4.7557087995E+02	6.1210476840E+02	3.2500000000E+02	0.000E+00	0.0
	25	2	5	5	0	0	1.0171850253E+02	-2.7621074903E+01	-7.0980078404E+00	1.6379685532E+02	1.2517767597E+02	0.000E+00	0.0
	-5	1	9	9	0	501	-1.0909340900E-01	-4.2108010647E+01	-3.7418496536E+01	5.6486394335E+01	4.1800000000E+00	0.000E+00	0.0
	5	1	9	9	501	0	1.0182759594E+02	1.4486935744E+01	3.0320488696E+01	1.0731046099E+02	4.1800000000E+00	0.000E+00	0.0
</event>
<event>
    11  -1  1.0000000E+00  1.0000000E+00  -1.0000000E+00  -1.0000000E+00
	2212	-1	0	0	0	0	0.0000000000E+00	0.0000000000E+00	6.5000000000E+03	6.5000000000E+03	9.3827000000E-01	0.000E+00	0.0
	2212	-1	0	0	0	0	0.0000000000E+00	0.0000000000E+00	-6.5000000000E+03	6.5000000000E+03	9.3827000000E-01	0.000E+00	0.0
	2212	1	0	0	0	0	0.0000000000E+00	0.0000000000E+00	6.1644855460E+03	6.1644855460E+03	9.3827000000E-01	0.000E+00	0.0
	2212	1	0	0	0	0	0.0000000000E+00	0.0000000000E+00	-5.6814427694E+03	5.6814427694E+03	9.3827000000E-01	0.000E+00	0.0
	51	2	1	2	0	0	6.4464204902E+01	1.3325369928E+02	-5.1961674051E+02	1.1791797438E+03	1.0481178985E+03	0.000E+00	0.0
	1000022	2	5	5	0	0	-6.4464204902E+01	-1.3325369928E+02	-3.6112538977E+02	9.2506361355E+02	8.3870075706E+02	0.000E+00	0.0
	14	1	6	6	0	0	-1.9630127901E+02	-1.7064780374E+02	5.5220920200E+00	4.1630560717E+02	3.2500000000E+02	0.000E+00	0.0
	-14	1	6	6	0	0	1.3183707410E+02	3.7394104456E+01	-3.6664748179E+02	5.0875800638E+02	3.2500000000E+02	0.000E+00	0.0
	25	2	5	5	0	0	6.4464204902E+01	1.3325369928E+02	-1.2191738682E+02	2.2900807099E+02	1.2517453929E+02	0.000E+00	0.0
	-5	1	9	9	0	501	3.9651287551E+00	8.2307147863E+01	-1.2496500620E+02	1.4974616526E+02	4.1800000000E+00	0.000E+00	0.0
	5	1	9	9	501	0	6.0499076147E+01	5.0946551418E+01	3.0476193861E+00	7.9261905730E+01	4.1800000000E+00	0.000E+00	0.0
</event>
<event>
    11  -1  1.0000000E+00  1.0000000E+00  -1.0000000E+00  -1.0000000E+00
	2212	-1	0	0	0	0	0.0000000000E+00	0.0000000000E+00	6.5000000000E+03	6.5000000000E+03	9.3827000000E-01	0.000E+00	0.0
	2212	-1	0	0	0	0	0.0000000000E+00	0.0000000000E+00	-6.5000000000E+03	6.5000000000E+03	9.3827000000E-01	0.000E+00	0.0
	2212	1	0	0	0	0	0.0000000000E+00	0.0000000000E+00	6.3106213718E+03	6.3106213718E+03	9.3827000000E-01	0.000E+00	0.0
	2212	1	0	0	0	0	0.0000000000E+00	0.0000000000E+00	-4.8508984953E+03	4.8508984953E+03	9.3827000000E-01	0.000E+00	0.0
	51	2	1	2	0	0	1.5529409708E+02	1.2245792859E+02	-1.3994074289E+03	1.8018522902E+03	1.1176843574E+03	0.000E+00	0.0
	1000022	2	5	5	0	0	-1.5529409708E+02	-1.2245792859E+02	-1.2312628971E+03	1.5114034026E+03	8.5394362970E+02	0.000E+00	0.0
	14	1	6	6	0	0	-3.2229731918E+02	-5.8087563879E+01	-4.4037855250E+02	6.3781501748E+02	3.2500000000E+02	0.000E+00	0.0
	-14	1	6	6	0	0	1.6700322210E+02	-6.4370364713E+01	-7.9088434460E+02	8.7358838510E+02	3.2500000000E+02	0.000E+00	0.0
	25	2	5	5	0	0	1.5529409708E+02	1.2245792859E+02	-2.2845997945E+02	3.2707673034E+02	1.2519195043E+02	0.000E+00	0.0
	-5	1	9	9	0	501	3.9907297662E+01	-1.0536189749E+01	-1.0241360463E+02	1.1049716067E+02	4.1800000000E+00	0.000E+00	0.0
	5	1	9	9	501	0	1.1538679942E+02	1.3299411834E+02	-1.2604637481E+02	2.1657956967E+02	4.1800000000E+00	0.000E+00	0.0
</event>
<event>
    11  -1  1.0000000E+00  1.0000000E+00  -1.0000000E+00  -1.0000000E+00
	2212	-1	0	0	0	0	0.0000000000E+00	0.0000000000E+00	6.5000000000E+03	6.5000000000E+03	9.3827000000E-01	0.000E+00	0.0
	2212	-1	0	0	0	0	0.0000000000E+00	0.0000000000E+00	-6.5000000000E+03	6.5000000000E+03	9.3827000000E-01	0.000E+00	0.0
	2212	1	0	0	0	0	0.0000000000E+00	0.0000000000E+00	5.4774167989E+03	5.4774167989E+03	9.3827000000E-01	0.000E+00	0.0
	2212	1	0	0	0	0	0.0000000000E+00	0.0000000000E+00	-6.2310570930E+03	6.2310570930E+03	9.3827000000E-01	0.000E+00	0.0
	51	2	1	2	0	0	1.2709966478E+01	-1.0500157889E+02	6.9758300587E+02	1.2640707733E+03	1.0488403096E+03	0.000E+00	0.0
	1000022	2	5	5	0	0	-1.2709966478E+01	1.0500157889E+02	6.9136863507E+02	1.1161991263E+03	8.6989828445E+02	0.000E+00	0.0
	14	1	6	6	0	0	-1.3343680790E+02	7.2740229002E+01	6.7879146826E+02	7.6777560524E+02	3.2500000000E+02	0.000E+00	0.0
	-14	1	6	6	0	0	1.2072684142E+02	3.2261349886E+01	1.2577166803E+01	3.4842352111E+02	3.2500000000E+02	0.000E+00	0.0
	25	2	5	5	0	0	1.2709966478E+01	-1.0500157889E+02	6.2271659009E+01	1.7532698176E+02	1.2519950559E+02	0.000E+00	0.0
	-5	1	9	9	0	501	2.0770685892E+01	-2.0785052112E+00	-3.0009553919E+01	3.6793848708E+01	4.1800000000E+00	0.000E+00	0.0
	5	1	9	9	501	0	-8.0607194135E+00	-1.0292307368E+02	9.2281212928E+01	1.3853313305E+02	4.1800000000E+00	0.000E+00	0.0
</event>
<event>
    11  -1  1.0000000E+00  1.0000000E+00  -1.0000000E+00  -1.0000000E+00
	2212	-1	0	0	0	0	0.0000000000E+00	0.0000000000E+00	6.5000000000E+03	6.5000000000E+03	9.3827000000E-01	0.000E+00	0.0
	2212	-1	0	0	0	0	0.0000000000E+00	0.0000000000E+00	-6.5000000000E+03	6.5000000000E+03	9.3827000000E-01	0.000E+00	0.0
	2212	1	0	0	0	0	0.0000000000E+00	0.0000000000E+00	5.3456451531E+03	5.3456451531E+03	9.3827000000E-01	0.000E+00	0.0
	2212	1	0	0	0	0	0.0000000000E+00	0.0000000000E+00	-6.2613861795E+03	6.2613861795E+03	9.3827000000E-01	0.000E+00	0.0
	51	2	1	2	0	0	-1.3782801560E+02	-3.9714059927E+01	9.5633344212E+02	1.4272096909E+03	1.0496571253E+03	0.000E+00	0.0
	1000022	2	5	5	0	0	1.3782801560E+02	3.9714059927E+01	7.1651769728E+02	1.1174280999E+03	8.4538404255E+02	0.000E+00	0.0
	14	1	6	6	0	0	1.0010424738E+02	-1.4609870764E+02	6.3104325145E+02	7.3157793701E+02	3.2500000000E+02	0.000E+00	0.0
	-14	1	6	6	0	0	3.7723768226E+01	1.8581276757E+02	8.5474445835E+01	3.8585016285E+02	3.2500000000E+02	0.000E+00	0.0
	25	2	5	5	0	0	-1.3782801560E+02	-3.9714059927E+01	1.9922332912E+02	2.7554056746E+02	1.2513553057E+02	0.000E+00	0.0
	-5	1	9	9	0	501	-6.0775655395E+01	-5.0201399078E+01	2.1976911713E+01	8.1940940967E+01	4.1800000000E+00	0.000E+00	0.0
	5	1	9	9	501	0	-7.7052360209E+01	1.0487339151E+01	1.7724641740E+02	1.9359962649E+02	4.1800000000E+00	0.000E+00	0.0
</event>
<event>
    11  -1  1.0000000E+00  1.0000000E+00  -1.0000000E+00  -1.0000000E+00
	2212	-1	0	0	0	0	0.0000000000E+00	0.0000000000E+00	6.5000000000E+03	6.5000000000E+03	9.3827000000E-01	0.000E+00	0.0
	2212	-1	0	0	0	0	0.0000000000E+00	0.0000000000E+00	-6.5000000000E+03	6.5000000000E+03	9.3827000000E-01	0.000E+00	0.0
	2212	1	0	0	0	0	0.0000000000E+00	0.0000000000E+00	6.2625283559E+03	6.2625283559E+03	9.3827000000E-01	0.000E+00	0.0
	2212	1	0	0	0	0	0.0000000000E+00	0.0000000000E+00	-5.3550354798E+03	5.3550354798E+03	9.3827000000E-01	0.000E+00	0.0
	51	2	1	2	0	0	9.7677144895E-01	-1.4560292049E+00	-1.0900864834E+03	1.5086013535E+03	1.0428741191E+03	0.000E+00	0.0
	1000022	2	5	5	0	0	-9.7677144895E-01	1.4560292049E+00	-5.7370008668E+02	1.0259405530E+03	8.5054050739E+02	0.000E+00	0.0
	14	1	6	6	0	0	-6.2299372522E+01	-2.5678556041E+02	-3.7270880361E+02	5.6067538571E+02	3.2500000000E+02	0.000E+00	0.0
	-14	1	6	6	0	0	6.1322601073E+01	2.5824158962E+02	-2.0099128307E+02	4.6526516727E+02	3.2500000000E+02	0.000E+00	0.0
	25	2	5	5	0	0	9.7677144895E-01	-1.4560292049E+00	-3.3379278937E+02	3.5649561129E+02	1.2517356161E+02	0.000E+00	0.0
	-5	1	9	9	0	501	5.4476900944E+01	2.1265945697E+01	-2.3108892699E+02	2.3841043971E+02	4.1800000000E+00	0.000E+00	0.0
	5	1	9	9	501	0	-5.3500129495E+01	-2.2721974902E+01	-1.0270386238E+02	1.1808517158E+02	4.1800000000E+00	0.000E+00	0.0
</event>
<event>
    11  -1  1.0000000E+00  1.0000000E+00  -1.0000000E+00  -1.0000000E+00
	2212	-1	0	0	0	0	0.0000000000E+00	0.0000000000E+00	6.5000000000E+03	6.5000000000E+03	9.3827000000E-01	0.000E+00	0.0
	2212	-1	0	0	0	0	0.0000000000E+00	0.0000000000E+00	-6.5000000000E+03	6.5000000000E+03	9.3827000000E-01	0.000E+00	0.0
	2212	1	0	0	0	0	0.0000000000E+00	0.0000000000E+00	6.3203635697E+03	6.3203635697E+03	9.3827000000E-01	0.000E+00	0.0
	2212	1	0	0	0	0	0.0000000000E+00	0.0000000000E+00	-4.8968916421E+03	4.8968916421E+03	9.3827000000E-01	0.000E+00	0.0
	51	2	1	2	0	0	-9.1907989961E+01	-7.7769989032E+00	-1.6714580340E+03	1.9885135581E+03	1.0732691419E+03	0.000E+00	0.0
	1000022	2	5	5	0	0	9.1907989961E+01	7.7769989032E+00	-9.1596332500E+02	1.2519521322E+03	8.4846200158E+02	0.000E+00	0.0
	14	1	6	6	0	0	-1.5961378584E+02	-6.7093584983E+01	-6.7709600438E+02	7.7075424677E+02	3.2500000000E+02	0.000E+00	0.0
	-14	1	6	6	0	0	2.5152177580E+02	7.4870583886E+01	-2.3886732063E+02	4.8119788538E+02	3.2500000000E+02	0.000E+00	0.0
	25	2	5	5	0	0	-9.1907989961E+01	-7.7769989032E+00	-5.0750860264E+02	5.3079265600E+02	1.2517308647E+02	0.000E+00	0.0
	-5	1	9	9	0	501	-2.9187643618E+01	-6.4318455585E+01	-2.4411671676E+02	2.5416377805E+02	4.1800000000E+00	0.000E+00	0.0
	5	1	9	9	501	0	-6.2720346343E+01	5.6541456682E+01	-2.6339188588E+02	2.7662887795E+02	4.1800000000E+00	0.000E+00	0.0
</event>
<event>
    11  -1  1.0000000E+00  1.0000000E+00  -1.0000000E+00  -1.0000000E+00
	2212	-1	0	0	0	0	0.0000000000E+00	0.0000000000E+00	6.5000000000E+03	6.5000000000E+03	9.3827000000E-01	0.000E+00	0.0
	2212	-1	0	0	0	0	0.0000000000E+00	0.0000000000E+00	-6.5000000000E+03	6.5000000000E+03	9.3827000000E-01	0.000E+00	0.0
	2212	1	0	0	0	0	0.0000000000E+00	0.0000000000E+00	4.9678232908E+03	4.9678232908E+03	9.3827000000E-01	0.000E+00	0.0
	2212	1	0	0	0	0	0.0000000000E+00	0.0000000000E+00	-6.3184446334E+03	6.3184446334E+03	9.3827000000E-01	0.000E+00	0.0
	51	2	1	2	0	0	1.1016071112E+02	3.7830516883E+01	1.2502844711E+03	1.6399626231E+03	1.0548457784E+03	0.000E+00	0.0
	1000022	2	5	5	0	0	-1.1016071112E+02	-3.7830516883E+01	1.2261303503E+03	1.5022293283E+03	8.6007603656E+02	0.000E+00	0.0
	14	1	6	6	0	0	-8.2547324079E+01	-9.0818389724E+01	1.5340889101E+02	3.7976483311E+02	3.2500000000E+02	0.000E+00	0.0
	-14	1	6	6	0	0	-2.7613387040E+01	5.2987872841E+01	1.0727214593E+03	1.1224644952E+03	3.2500000000E+02	0.000E+00	0.0
	25	2	5	5	0	0	1.1016071112E+02	3.7830516883E+01	1.2449099239E+02	2.1150274746E+02	1.2517537584E+02	0.000E+00	0.0
	-5	1	9	9	0	501	1.3338985697E+02	1.1200638196E+01	8.6397568562E+01	1.5937477997E+02	4.1800000000E+00	0.000E+00	0.0
	5	1	9	9	501	0	-2.3229145849E+01	2.6629878687E+01	3.8093423828E+01	5.2127967490E+01	4.1800000000E+00	0.000E+00	0.0
</event>
<event>
    11  -1  1.0000000E+00  1.0000000E+00  -1.0000000E+00  -1.0000000E+00
	2212	-1	0	0	0	0	0.0000000000E+00	0.0000000000E+00	6.5000000000E+03	6.5000000000E+03	9.3827000000E-01	0.000E+00	0.0
	2212	-1	0	0	0	0	0.0000000000E+00	0.0000000000E+00	-6.5000000000E+03	6.5000000000E+03	9.3827000000E-01	0.000E+00	0.0
	2212	1	0	0	0	0	0.0000000000E+00	0.0000000000E+00	5.6865903316E+03	5.6865903316E+03	9.3827000000E-01	0.000E+00	0.0
	2212	1	0	0	0	0	0.0000000000E+00	0.0000000000E+00	-6.1562528191E+03	6.1562528191E+03	9.3827000000E-01	0.000E+00	0.0
	51	2	1	2	0	0	1.0188488511E+02	1.0626185678E+02	4.7419020038E+02	1.1683139904E+03	1.0575580939E+03	0.000E+00	0.0
	1000022	2	5	5	0	0	-1.0188488511E+02	-1.0626185678E+02	3.8384433900E+02	9.4571591551E+02	8.5168656456E+02	0.000E+00	0.0
	14	1	6	6	0	0	-5.1056388801E+01	5.5170593478E+01	4.6317964794E+02	5.7079850690E+02	3.2500000000E+02	0.000E+00	0.0
	-14	1	6	6	0	0	-5.0828496312E+01	-1.6143245026E+02	-7.9335308937E+01	3.7491740861E+02	3.2500000000E+02	0.000E+00	0.0
	25	2	5	5	0	0	1.0188488511E+02	1.0626185678E+02	8.5818148507E+01	2.1144093387E+02	1.2518147580E+02	0.000E+00	0.0
	-5	1	9	9	0	501	7.3057390649E+01	3.5469181990E+00	7.3819129658E+01	1.0400336178E+02	4.1800000000E+00	0.000E+00	0.0
	5	1	9	9	501	0	2.8827494464E+01	1.0271493858E+02	1.1999018849E+01	1.0743757209E+02	4.1800000000E+00	0.000E+00	0.0
</event>
<event>
    11  -1  1.0000000E+00  1.0000000E+00  -1.0000000E+00  -1.0000000E+00
	2212	-1	0	0	0	0	0.0000000000E+00	0.0000000000E+00	6.5000000000E+03	6.5000000000E+03	9.3827000000E-01	0.000E+00	0.0
	2212	-1	0	0	0	0	0.0000000000E+00	0.0000000000E+00	-6.5000000000E+03	6.5000000000E+03	9.3827000000E-01	0.000E+00	0.0
	2212	1	0	0	0	0	0.0000000000E+00	0.0000000000E+00	4.9309433239E+03	4.9309433239E+03	9.3827000000E-01	0.000E+00	0.0
	2212	1	0	0	0	0	0.0000000000E+00	0.0000000000E+00	-6.3257651466E+03	6.3257651466E+03	9.3827000000E-01	0.000E+00	0.0
	51	2	1	2	0	0	2.2812484215E+01	-1.1412177166E+02	1.3093107757E+03	1.6796953103E+03	1.0457234051E+03	0.000E+00	0.0
	1000022	2	5	5	0	0	-2.2812484215E+01	1.1412177166E+02	1.2504495606E+03	1.5195724667E+03	8.5553035576E+02	0.000E+00	0.0
	14	1	6	6	0	0	6.5323194935E+01	-2.0020730966E+02	4.3025547510E+02	5.7887378632E+02	3.2500000000E+02	0.000E+00	0.0
	-14	1	6	6	0	0	-8.8135679150E+01	3.1432908132E+02	8.2019408551E+02	9.4069868035E+02	3.2500000000E+02	0.000E+00	0.0
	25	2	5	5	0	0	2.2812484215E+01	-1.1412177166E+02	1.4437226203E+02	2.2371906282E+02	1.2515063253E+02	0.000E+00	0.0
	-5	1	9	9	0	501	-1.2054649099E+01	1.6335218518E+01	-5.9923120651E+00	2.1576240006E+01	4.1800000000E+00	0.000E+00	0.0
	5	1	9	9	501	0	3.4867133314E+01	-1.3045699018E+02	1.5036457410E+02	2.0214282282E+02	4.1800000000E+00	0.000E+00	0.0
</event>
<event>
    11  -1  1.0000000E+00  1.0000000E+00  -1.0000000E+00  -1.0000000E+00
	2212	-1	0	0	0	0	0.0000000000E+00	0.0000000000E+00	6.5000000000E+03	6.5000000000E+03	9.3827000000E-01	0.000E+00	0.0
	2212	-1	0	0	0	0	0.0000000000E+00	0.0000000000E+00	-6.5000000000E+03	6.5000000000E+03	9.3827000000E-01	0.000E+00	0.0
	2212	1	0	0	0	0	0.0000000000E+00	0.0000000000E+00	6.3252635782E+03	6.3252635782E+03	9.3827000000E-01	0.000E+00	0.0
	2212	1	0	0	0	0	0.0000000000E+00	0.0000000000E+00	-4.9236223286E+03	4.9236223286E+03	9.3827000000E-01	0.000E+00	0.0
	51	2	1	2	0	0	3.0430341555E+01	-4.6092124967E+01	-1.1910986830E+03	1.5885744984E+03	1.0496677449E+03	0.000E+00	0.0
	1000022	2	5	5	0	0	-3.0430341555E+01	4.6092124967E+01	-1.3696041664E+03	1.6105913717E+03	8.4565862161E+02	0.000E+00	0.0
	14	1	6	6	0	0	-7.4733229801E+01	5.6943858794E+01	-1.9388732472E+02	3.8992942102E+02	3.2500000000E+02	0.000E+00	0.0
	-14	1	6	6	0	0	4.4302888246E+01	-1.0851733827E+01	-1.1757168417E+03	1.2206619507E+03	3.2500000000E+02	0.000E+00	0.0
	25	2	5	5	0	0	3.0430341555E+01	-4.6092124967E+01	-3.2037083291E+01	1.4052272153E+02	1.2517895545E+02	0.000E+00	0.0
	-5	1	9	9	0	501	5.7587419069E+01	-5.5103161693E+01	-6.0343618089E+01	1.0005745303E+02	4.1800000000E+00	0.000E+00	0.0
	5	1	9	9	501	0	-2.7157077513E+01	9.0110367256E+00	2.8306534798E+01	4.0465268493E+01	4.1800000000E+00	0.000E+00	0.0
</event>
<event>
    11  -1  1.0000000E+00  1.0000000E+00  -1.0000000E+00  -1.0000000E+00
	2212	-1	0	0	0	0	0.0000000000E+00	0.0000000000E+00	6.5000000000E+03	6.5000000000E+03	9.3827000000E-01	0.000E+00	0.0
	2212	-1	0	0	0	0	0.0000000000E+00	0.0000000000E+00	-6.5000000000E+03	6.5000000000E+03	9.3827000000E-01	0.000E+00	0.0
	2212	1	0	0	0	0	0.0000000000E+00	0.0000000000E+00	6.2949028469E+03	6.2949028469E+03	9.3827000000E-01	0.000E+00	0.0
	2212	1	0	0	0	0	0.0000000000E+00	0.0000000000E+00	-5.1415340162E+03	5.1415340162E+03	9.3827000000E-01	0.000E+00	0.0
	51	2	1	2	0	0	-9.3092142501E+01	-9.3010827683E+00	-1.3031348766E+03	1.6796973500E+03	1.0556846232E+03	0.000E+00	0.0
	1000022	2	5	5	0	0	9.3092142501E+01	9.3010827683E+00	-8.1299026598E+02	1.1890252808E+03	8.6259798783E+02	0.000E+00	0.0
	14	1	6	6	0	0	1.0230718978E+02	-1.8340033519E+02	-6.9084749049E+02	7.9183186293E+02	3.2500000000E+02	0.000E+00	0.0
	-14	1	6	6	0	0	-9.2150472766E+00	1.9270141796E+02	-1.2214277549E+02	3.9719341785E+02	3.2500000000E+02	0.000E+00	0.0
	25	2	5	5	0	0	-9.3092142501E+01	-9.3010827683E+00	-3.4037856470E+02	3.7453785619E+02	1.2517340482E+02	0.000E+00	0.0
	-5	1	9	9	0	501	-1.6082065330E+01	3.0829672457E+01	-2.3649688007E+02	2.3907603019E+02	4.1800000000E+00	0.000E+00	0.0
	5	1	9	9	501	0	-7.7010077171E+01	-4.0130755226E+01	-1.0388168463E+02	1.3546182600E+02	4.1800000000E+00	0.000E+00	0.0
</event>
<event>
    11  -1  1.0000000E+00  1.0000000E+00  -1.0000000E+00  -1.0000000E+00
	2212	-1	0	0	0	0	0.0000000000E+00	0.0000000000E+00	6.5000000000E+03	6.5000000000E+03	9.3827000000E-01	0.000E+00	0.0
	2212	-1	0	0	0	0	0.0000000000E+00	0.0000000000E+00	-6.5000000000E+03	6.5000000000E+03	9.3827000000E-01	0.000E+00	0.0
	2212	1	0	0	0	0	0.0000000000E+00	0.0000000000E+00	6.2636714911E+03	6.2636714911E+03	9.3827000000E-01	0.000E+00	0.0
	2212	1	0	0	0	0	0.0000000000E+00	0.0000000000E+00	-5.3008982872E+03	5.3008982872E+03	9.3827000000E-01	0.000E+00	0.0
	51	2	1	2	0	0	2.5553161103E+01	1.0264537859E+02	-1.1280821305E+03	1.5547623645E+03	1.0646725691E+03	0.000E+00	0.0
	1000022	2	5	5	0	0	-2.5553161103E+01	-1.0264537859E+02	-6.2674342364E+02	1.0615647456E+03	8.5024899429E+02	0.000E+00	0.0
	14	1	6	6	0	0	7.5668141315E+01	1.5102628331E+02	-4.9752435636E+02	6.1781072428E+02	3.2500000000E+02	0.000E+00	0.0
	-14	1	6	6	0	0	-1.0122130242E+02	-2.5367166190E+02	-1.2921906728E+02	4.4375402135E+02	3.2500000000E+02	0.000E+00	0.0
	25	2	5	5	0	0	2.5553161103E+01	1.0264537859E+02	-3.3602978021E+02	3.7386547607E+02	1.2518124151E+02	0.000E+00	0.0
	-5	1	9	9	0	501	-5.0378018638E+01	3.0869020192E+01	-1.1569300008E+02	1.2997378135E+02	4.1800000000E+00	0.000E+00	0.0
	5	1	9	9	501	0	7.5931179741E+01	7.1776358402E+01	-2.2033678012E+02	2.4389169473E+02	4.1800000000E+00	0.000E+00	0.0
</event>
<event>
    11  -1  1.0000000E+00  1.0000000E+00  -1.0000000E+00  -1.0000000E+00
	2212	-1	0	0	0	0	0.0000000000E+00	0.0000000000E+00	6.5000000000E+03	6.5000000000E+03	9.3827000000E-01	0.000E+00	0.0
	2212	-1	0	0	0	0	0.0000000000E+00	0.0000000000E+00	-6.5000000000E+03	6.5000000000E+03	9.3827000000E-01	0.000E+00	0.0
	2212	1	0	0	0	0	0.0000000000E+00	0.0000000000E+00	5.4750022098E+03	5.4750022098E+03	9.3827000000E-01	0.000E+00	0.0
	2212	1	0	0	0	0	0.0000000000E+00	0.0000000000E+00	-6.2321794435E+03	6.2321794435E+03	9.3827000000E-01	0.000E+00	0.0
	51	2	1	2	0	0	1.1702614128E+02	-1.3355378676E+01	8.6628634083E+02	1.3646931605E+03	1.0478844947E+03	0.000E+00	0.0
	1000022	2	5	5	0	0	-1.1702614128E+02	1.3355378676E+01	5.1735034526E+02	9.9775358678E+02	8.4497772534E+02	0.000E+00	0.0
	14	1	6	6	0	0	-2.7764921492E+02	-1.1586434687E+02	1.5518199371E+02	4.6927612830E+02	3.2500000000E+02	0.000E+00	0.0
	-14	1	6	6	0	0	1.6062307365E+02	1.2921972555E+02	3.6216835154E+02	5.2847745848E+02	3.2500000000E+02	0.000E+00	0.0
	25	2	5	5	0	0	1.1702614128E+02	-1.3355378676E+01	2.3982688844E+02	2.9506475989E+02	1.2519102295E+02	0.000E+00	0.0
	-5	1	9	9	0	501	4.3916120593E+01	-5.0330384628E+01	3.7448350768E+01	7.6691750795E+01	4.1800000000E+00	0.000E+00	0.0
	5	1	9	9	501	0	7.3110020684E+01	3.6975005952E+01	2.0237853767E+02	2.1837300909E+02	4.1800000000E+00	0.000E+00	0.0
</event>
<event>
    11  -1  1.0000000E+00  1.0000000E+00  -1.0000000E+00  -1.0000000E+00
	2212	-1	0	0	0	0	0.0000000000E+00	0.0000000000E+00	6.5000000000E+03	6.5000000000E+03	9.3827000000E-01	0.000E+00	0.0
	2212	-1	0	0	0	0	0.0000000000E+00	0.0000000000E+00	-6.5000000000E+03	6.5000000000E+03	9.3827000000E-01	0.000E+00	0.0
	2212	1	0	0	0	0	0.0000000000E+00	0.0000000000E+00	5.9661163185E+03	5.9661163185E+03	9.3827000000E-01	0.000E+00	0.0
	2212	1	0	0	0	0	0.0000000000E+00	0.0000000000E+00	-5.9783874247E+03	5.9783874247E+03	9.3827000000E-01	0.000E+00	0.0
	51	2	1	2	0	0	-1.7880575040E+01	1.4629802596E+02	3.6501728405E+00	1.0656725197E+03	1.0554249230E+03	0.000E+00	0.0
	1000022	2	5	5	0	0	1.7880575040E+01	-1.4629802596E+02	1.8760646971E+01	8.6198876482E+02	8.4908765239E+02	0.000E+00	0.0
	14	1	6	6	0	0	-2.6103580532E+02	-1.0156574398E+02	-2.0949945287E+01	4.2955697203E+02	3.2500000000E+02	0.000E+00	0.0
	-14	1	6	6	0	0	2.7891638036E+02	-4.4732281970E+01	3.9710592258E+01	4.3243179279E+02	3.2500000000E+02	0.000E+00	0.0
	25	2	5	5	0	0	-1.7880575040E+01	1.4629802596E+02	-6.4895407277E+00	1.9350749200E+02	1.2522063711E+02	0.000E+00	0.0
	-5	1	9	9	0	501	-4.1913236491E+01	6.8775786484E+00	2.3653072885E+01	4.8795089283E+01	4.1800000000E+00	0.000E+00	0.0
	5	1	9	9	501	0	2.4032661451E+01	1.3942044731E+02	-3.0142613613E+01	1.4471240271E+02	4.1800000000E+00	0.000E+00	0.0
</event>
<event>
    11  -1  1.0000000E+00  1.0000000E+00  -1.0000000E+00  -1.0000000E+00
	2212	-1	0	0	0	0	0.0000000000E+00	0.0000000000E+00	6.5000000000E+03	6.5000000000E+03	9.3827000000E-01	0.000E+00	0.0
	2212	-1	0	0	0	0	0.0000000000E+00	0.0000000000E+00	-6.5000000000E+03	6.5000000000E+03	9.3827000000E-01	0.000E+00	0.0
	2212	1	0	0	0	0	0.0000000000E+00	0.0000000000E+00	5.9516883015E+03	5.9516883015E+03	9.3827000000E-01	0.000E+00	0.0
	2212	1	0	0	0	0	0.0000000000E+00	0.0000000000E+00	-6.0070517777E+03	6.0070517777E+03	9.3827000000E-01	0.000E+00	0.0
	51	2	1	2	0	0	4.5496353282E+01	-4.5933478682E+01	1.6608564193E+02	1.0549508762E+03	1.0397870494E+03	0.000E+00	0.0
	1000022	2	5	5	0	0	-4.5496353282E+01	4.5933478682E+01	-6.4464945086E+01	8.5630119583E+02	8.5142011146E+02	0.000E+00	0.0
	14	1	6	6	0	0	1.1308900990E+02	-1.5249972892E+02	1.3271470507E+02	3.9910335055E+02	3.2500000000E+02	0.000E+00	0.0
	-14	1	6	6	0	0	-1.5858536318E+02	1.9843320760E+02	-1.9717965015E+02	4.5719784528E+02	3.2500000000E+02	0.000E+00	0.0
	25	2	5	5	0	0	4.5496353282E+01	-4.5933478682E+01	1.1982842136E+02	1.8495872498E+02	1.2518417134E+02	0.000E+00	0.0
	-5	1	9	9	0	501	-2.0891520593E+01	-1.6350618672E+01	1.0789380990E+02	1.1118608266E+02	4.1800000000E+00	0.000E+00	0.0
	5	1	9	9	501	0	6.6387873875E+01	-2.9582860010E+01	1.1934611467E+01	7.3772642320E+01	4.1800000000E+00	0.000E+00	0.0
</event>
<event>
    11  -1  1.0000000E+00  1.0000000E+00  -1.0000000E+00  -1.0000000E+00
	2212	-1	0	0	0	0	0.0000000000E+00	0.0000000000E+00	6.5000000000E+03	6.5000000000E+03	9.3827000000E-01	0.000E+00	0.0
	2212	-1	0	0	0	0	0.0000000000E+00	0.0000000000E+00	-6.5000000000E+03	6.5000000000E+03	9.3827000000E-01	0.000E+00	0.0
	2212	1	0	0	0	0	0.0000000000E+00	0.0000000000E+00	5.7018321342E+03	5.7018321342E+03	9.3827000000E-01	0.000E+00	0.0
	2212	1	0	0	0	0	0.0000000000E+00	0.0000000000E+00	-6.1693647689E+03	6.1693647689E+03	9.3827000000E-01	0.000E+00	0.0
	51	2	1	2	0	0	-1.0628080715E+02	1.4641456913E+01	5.0758219401E+02	1.1509818995E+03	1.0274286677E+03	0.000E+00	0.0
	1000022	2	5	5	0	0	1.0628080715E+02	-1.4641456913E+01	3.5368306929E+02	9.2844277434E+02	8.5170669218E+02	0.000E+00	0.0
	14	1	6	6	0	0	2.6394854020E+02	1.3623407498E+02	3.0123742997E+02	5.3347684512E+02	3.2500000000E+02	0.000E+00	0.0
	-14	1	6	6	0	0	-1.5766773305E+02	-1.5087553189E+02	5.2445639318E+01	3.9496592923E+02	3.2500000000E+02	0.000E+00	0.0
	25	2	5	5	0	0	-1.0628080715E+02	1.4641456913E+01	1.1384956544E+02	2.0036032260E+02	1.2519006786E+02	0.000E+00	0.0
	-5	1	9	9	0	501	-9.5526082840E+01	6.1672508330E+01	9.5592458291E+01	1.4860727192E+02	4.1800000000E+00	0.000E+00	0.0
	5	1	9	9	501	0	-1.0754724307E+01	-4.7031051417E+01	1.8257107153E+01	5.1753050672E+01	4.1800000000E+00	0.000E+00	0.0
</event>
<event>
    11  -1  1.0000000E+00  1.0000000E+00  -1.0000000E+00  -1.0000000E+00
	2212	-1	0	0	0	0	0.0000000000E+00	0.0000000000E+00	6.5000000000E+03	6.5000000000E+03	9.3827000000E-01	0.000E+00	0.0
	2212	-1	0	0	0	0	0.0000000000E+00	0.0000000000E+00	-6.5000000000E+03	6.5000000000E+03	9.3827000000E-01	0.000E+00	0.0
	2212	1	0	0	0	0	0.0000000000E+00	0.0000000000E+00	5.7652983801E+03	5.7652983801E+03	9.3827000000E-01	0.000E+00	0.0
	2212	1	0	0	0	0	0.0000000000E+00	0.0000000000E+00	-6.1250838177E+03	6.1250838177E+03	9.3827000000E-01	0.000E+00	0.0
	51	2	1	2	0	0	8.1032579133E+01	1.0986631746E+02	3.2439507890E+02	1.1071021451E+03	1.0496695222E+03	0.000E+00	0.0
	1000022	2	5	5	0	0	-8.1032579133E+01	-1.0986631746E+02	3.3371242515E+02	9.2257367270E+02	8.4920039582E+02	0.000E+00	0.0
	14	1	6	6	0	0	1.5664522764E+02	-5.3544541432E+01	3.6348580588E+02	5.1492880706E+02	3.2500000000E+02	0.000E+00	0.0
	-14	1	6	6	0	0	-2.3767780677E+02	-5.6321776032E+01	-2.9773380730E+01	4.0764486564E+02	3.2500000000E+02	0.000E+00	0.0
	25	2	5	5	0	0	8.1032579133E+01	1.0986631746E+02	2.6073012432E+01	1.8704412950E+02	1.2517514852E+02	0.000E+00	0.0
	-5	1	9	9	0	501	3.7169892383E+01	1.2786825789E+02	9.6408470479E-01	1.3323022981E+02	4.1800000000E+00	0.000E+00	0.0
	5	1	9	9	501	0	4.3862686750E+01	-1.8001940426E+01	2.5108927727E+01	5.3813899688E+01	4.1800000000E+00	0.000E+00	0.0
</event>
<event>
    11  -1  1.0000000E+00  1.0000000E+00  -1.0000000E+00  -1.0000000E+00
	2212	-1	0	0	0	0	0.0000000000E+00	0.0000000000E+00	6.5000000000E+03	6.5000000000E+03	9.3827000000E-01	0.000E+00	0.0
	2212	-1	0	0	0	0	0.0000000000E+00	0.0000000000E+00	-6.5000000000E+03	6.5000000000E+03	9.3827000000E-01	0.000E+00	0.0
	2212	1	0	0	0	0	0.0000000000E+00	0.0000000000E+00	5.0084786570E+03	5.0084786570E+03	9.3827000000E-01	0.000E+00	0.0
	2212	1	0	0	0	0	0.0000000000E+00	0.0000000000E+00	-6.3149277723E+03	6.3149277723E+03	9.3827000000E-01	0.000E+00	0.0
	51	2	1	2	0	0	1.2732211820E+02	2.1365139459E+01	1.4036544099E+03	1.7581438518E+03	1.0507886135E+03	0.000E+00	0.0
	1000022	2	5	5	0	0	-1.2732211820E+02	-2.1365139459E+01	9.8689753100E+02	1.3097016291E+03	8.5128387134E+02	0.000E+00	0.0
	14	1	6	6	0	0	-1.2086607321E+02	-2.7731517554E+02	5.6780435234E+02	7.2079060536E+02	3.2500000000E+02	0.000E+00	0.0
	-14	1	6	6	0	0	-6.4560449987E+00	2.5595003608E+02	4.1909317866E+02	5.8891102374E+02	3.2500000000E+02	0.000E+00	0.0
	25	2	5	5	0	0	1.2732211820E+02	2.1365139459E+01	3.1955158428E+02	3.6689194153E+02	1.2581371457E+02	0.000E+00	0.0
	-5	1	9	9	0	501	1.1748351964E+02	6.3493283939E+01	2.0847565883E+02	2.4761532105E+02	4.1800000000E+00	0.000E+00	0.0
	5	1	9	9	501	0	9.8385985643E+00	-4.2128144480E+01	1.1107592544E+02	1.1927662047E+02	4.1800000000E+00	0.000E+00	0.0
</event>
<event>
    11  -1  1.0000000E+00  1.0000000E+00  -1.0000000E+00  -1.0000000E+00
	2212	-1	0	0	0	0	0.0000000000E+00	0.0000000000E+00	6.5000000000E+03	6.5000000000E+03	9.3827000000E-01	0.000E+00	0.0
	2212	-1	0	0	0	0	0.0000000000E+00	0.0000000000E+00	-6.5000000000E+03	6.5000000000E+03	9.3827000000E-01	0.000E+00	0.0
	2212	1	0	0	0	0	0.0000000000E+00	0.0000000000E+00	6.3294789968E+03	6.3294789968E+03	9.3827000000E-01	0.000E+00	0.0
	2212	1	0	0	0	0	0.0000000000E+00	0.0000000000E+00	-4.8813128648E+03	4.8813128648E+03	9.3827000000E-01	0.000E+00	0.0
	51	2	1	2	0	0	2.1043447295E+01	-1.2627035856E+02	-1.3793088510E+03	1.7386663145E+03	1.0507524050E+03	0.000E+00	0.0
	1000022	2	5	5	0	0	-2.1043447295E+01	1.2627035856E+02	-1.2738713801E+03	1.5393358134E+03	8.5464578807E+02	0.000E+00	0.0
	14	1	6	6	0	0	1.9892160396E+02	-4.3961606169E+01	-3.4170093071E+02	5.1369928303E+02	3.2500000000E+02	0.000E+00	0.0
	-14	1	6	6	0	0	-2.1996505125E+02	1.7023196473E+02	-9.3217044943E+02	1.0256365303E+03	3.2500000000E+02	0.000E+00	0.0
	25	2	5	5	0	0	2.1043447295E+01	-1.2627035856E+02	-1.7429475184E+02	2.4987232500E+02	1.2518182040E+02	0.000E+00	0.0
	-5	1	9	9	0	501	4.1407923913E+01	-9.1695575089E+01	-3.7831379685E+01	1.0757035067E+02	4.1800000000E+00	0.000E+00	0.0
	5	1	9	9	501	0	-2.0364476618E+01	-3.4574783476E+01	-1.3646337215E+02	1.4230197433E+02	4.1800000000E+00	0.000E+00	0.0
</event>
<event>
    11  -1  1.0000000E+00  1.0000000E+00  -1.0000000E+00  -1.0000000E+00
	2212	-1	0	0	0	0	0.0000000000E+00	0.0000000000E+00	6.5000000000E+03	6.5000000000E+03	9.3827000000E-01	0.000E+00	0.0
	2212	-1	0	0	0	0	0.0000000000E+00	0.0000000000E+00	-6.5000000000E+03	6.5000000000E+03	9.3827000000E-01	0.000E+00	0.0
	2212	1	0	0	0	0	0.0000000000E+00	0.0000000000E+00	6.1572111760E+03	6.1572111760E+03	9.3827000000E-01	0.000E+00	0.0
	2212	1	0	0	0	0	0.0000000000E+00	0.0000000000E+00	-5.6774421250E+03	5.6774421250E+03	9.3827000000E-01	0.000E+00	0.0
	51	2	1	2	0	0	3.0421905752E+01	-1.3496904915E+02	-4.0913182268E+02	1.1464665592E+03	1.0620049842E+03	0.000E+00	0.0
	1000022	2	5	5	0	0	-3.0421905752E+01	1.3496904915E+02	-4.6559736452E+02	9.7822816326E+02	8.4912148540E+02	0.000E+00	0.0
	14	1	6	6	0	0	8.6528254862E+01	1.6833968994E+02	2.5432266333E+01	3.7695780967E+02	3.2500000000E+02	0.000E+00	0.0
	-14	1	6	6	0	0	-1.1695016061E+02	-3.3370640788E+01	-4.9102963085E+02	6.0127035359E+02	3.2500000000E+02	0.000E+00	0.0
	25	2	5	5	0	0	3.0421905752E+01	-1.3496904915E+02	-1.4171686557E+01	1.8711853575E+02	1.2518136101E+02	0.000E+00	0.0
	-5	1	9	9	0	501	7.8713464457E+01	-9.4129826872E+01	-3.3659351188E+00	1.2282115336E+02	4.1800000000E+00	0.000E+00	0.0
	5	1	9	9	501	0	-4.8291558706E+01	-4.0839222277E+01	-1.0805751438E+01	6.4297382393E+01	4.1800000000E+00	0.000E+00	0.0
</event>
<event>
    11  -1  1.0000000E+00  1.0000000E+00  -1.0000000E+00  -1.0000000E+00
	2212	-1	0	0	0	0	0.0000000000E+00	0.0000000000E+00	6.5000000000E+03	6.5000000000E+03	9.3827000000E-01	0.000E+00	0.0
	2212	-1	0	0	0	0	0.0000000000E+00	0.0000000000E+00	-6.5000000000E+03	6.5000000000E+03	9.3827000000E-01	0.000E+00	0.0
	2212	1	0	0	0	0	0.0000000000E+00	0.0000000000E+00	6.2256518946E+03	6.2256518946E+03	9.3827000000E-01	0.000E+00	0.0
	2212	1	0	0	0	0	0.0000000000E+00	0.0000000000E+00	-5.5208202944E+03	5.5208202944E+03	9.3827000000E-01	0.000E+00	0.0
	51	2	1	2	0	0	-4.1596413737E+01	6.3565730653E+01	-5.6988841418E+02	1.1853641031E+03	1.0366023290E+03	0.000E+00	0.0
	1000022	2	5	5	0	0	4.1596413737E+01	-6.3565730653E+01	-7.1874539818E+02	1.1064433608E+03	8.3776553969E+02	0.000E+00	0.0
	14	1	6	6	0	0	2.7207970971E+02	-1.1085640539E+02	-4.1186109098E+02	6.0130779915E+02	3.2500000000E+02	0.000E+00	0.0
	-14	1	6	6	0	0	-2.3048329597E+02	4.7290674734E+01	-3.0688430720E+02	5.0513556165E+02	3.2500000000E+02	0.000E+00	0.0
	25	2	5	5	0	0	-4.1596413737E+01	6.3565730653E+01	1.3913797995E+01	1.4708445028E+02	1.2517738610E+02	0.000E+00	0.0
	-5	1	9	9	0	501	-7.6158903395E+01	4.1584869272E+01	-2.5034578485E+01	9.0408420175E+01	4.1800000000E+00	0.000E+00	0.0
	5	1	9	9	501	0	3.4562489658E+01	2.1980861381E+01	3.8948376480E+01	5.6676030108E+01	4.1800000000E+00	0.000E+00	0.0
</event>
<event>
    11  -1  1.0000000E+00  1.0000000E+00  -1.0000000E+00  -1.0000000E+00
	2212	-1	0	0	0	0	0.0000000000E+00	0.0000000000E+00	6.5000000000E+03	6.5000000000E+03	9.3827000000E-01	0.000E+00	0.0
	2212	-1	0	0	0	0	0.0000000000E+00	0.0000000000E+00	-6.5000000000E+03	6.5000000000E+03	9.3827000000E-01	0.000E+00	0.0
	2212	1	0	0	0	0	0.0000000000E+00	0.0000000000E+00	5.1310756334E+03	5.1310756334E+03	9.3827000000E-01	0.000E+00	0.0
	2212	1	0	0	0	0	0.0000000000E+00	0.0000000000E+00	-6.2931448349E+03	6.2931448349E+03	9.3827000000E-01	0.000E+00	0.0
	51	2	1	2	0	0	1.5151074118E+01	8.9733933531E+01	9.7410095099E+02	1.4456246747E+03	1.0642726640E+03	0.000E+00	0.0
	1000022	2	5	5	0	0	-1.5151074118E+01	-8.9733933531E+01	1.1386227948E+03	1.4192536221E+03	8.4234033573E+02	0.000E+00	0.0
	14	1	6	6	0	0	1.7645476936E+02	-1.5101397516E+02	8.5365788381E+02	9.4249577661E+02	3.2500000000E+02	0.000E+00	0.0
	-14	1	6	6	0	0	-1.9160584348E+02	6.1280041634E+01	2.8496491095E+02	4.7675784549E+02	3.2500000000E+02	0.000E+00	0.0
	25	2	5	5	0	0	1.5151074118E+01	8.9733933531E+01	2.3446406704E+01	1.5652590957E+02	1.2517544689E+02	0.000E+00	0.0
	-5	1	9	9	0	501	-4.1542245907E+01	-5.2971173435E+00	-4.4747492518E+00	4.2323910831E+01	4.1800000000E+00	0.000E+00	0.0
	5	1	9	9	501	0	5.6693320025E+01	9.5031050874E+01	2.7921155956E+01	1.1420199874E+02	4.1800000000E+00	0.000E+00	0.0
</event>
<event>
    11  -1  1.0000000E+00  1.0000000E+00  -1.0000000E+00  -1.0000000E+00
	2212	-1	0	0	0	0	0.0000000000E+00	0.0000000000E+00	6.5000000000E+03	6.5000000000E+03	9.3827000000E-01	0.000E+00	0.0
	2212	-1	0	0	0	0	0.0000000000E+00	0.0000000000E+00	-6.5000000000E+03	6.5000000000E+03	9.3827000000E-01	0.000E+00	0.0
	2212	1	0	0	0	0	0.0000000000E+00	0.0000000000E+00	6.3165947582E+03	6.3165947582E+03	9.3827000000E-01	0.000E+00	0.0
	2212	1	0	0	0	0	0.0000000000E+00	0.0000000000E+00	-4.9936597135E+03	4.9936597135E+03	9.3827000000E-01	0.000E+00	0.0
	51	2	1	2	0	0	-3.4295817787E+01	4.8972641955E+01	-1.1298093455E+03	1.5443854758E+03	1.0512291938E+03	0.000E+00	0.0
	1000022	2	5	5	0	0	3.4295817787E+01	-4.8972641955E+01	-1.2907567773E+03	1.5473315350E+03	8.5123868466E+02	0.000E+00	0.0
	14	1	6	6	0	0	4.0735361331E+01	2.4678028001E+02	-6.9576418879E+02	8.0763400292E+02	3.2500000000E+02	0.000E+00	0.0
	-14	1	6	6	0	0	-6.4395435443E+00	-2.9575292197E+02	-5.9499258854E+02	7.3969753210E+02	3.2500000000E+02	0.000E+00	0.0
	25	2	5	5	0	0	-3.4295817787E+01	4.8972641955E+01	-3.2178267431E+01	1.4241399330E+02	1.2518698741E+02	0.000E+00	0.0
	-5	1	9	9	0	501	4.7514391856E+01	2.0771153069E+01	-1.4286786166E+01	5.3950374347E+01	4.1800000000E+00	0.000E+00	0.0
	5	1	9	9	501	0	-8.1810209643E+01	2.8201488886E+01	-1.7891481264E+01	8.8463618957E+01	4.1800000000E+00	0.000E+00	0.0
</event>
<event>
    11  -1  1.0000000E+00  1.0000000E+00  -1.0000000E+00  -1.0000000E+00
	2212	-1	0	0	0	0	0.0000000000E+00	0.0000000000E+00	6.5000000000E+03	6.5000000000E+03	9.3827000000E-01	0.000E+00	0.0
	2212	-1	0	0	0	0	0.0000000000E+00	0.0000000000E+00	-6.5000000000E+03	6.5000000000E+03	9.3827000000E-01	0.000E+00	0.0
	2212	1	0	0	0	0	0.0000000000E+00	0.0000000000E+00	5.7408607062E+03	5.7408607062E+03	9.3827000000E-01	0.000E+00	0.0
	2212	1	0	0	0	0	0.0000000000E+00	0.0000000000E+00	-6.1383170542E+03	6.1383170542E+03	9.3827000000E-01	0.000E+00	0.0
	51	2	1	2	0	0	-2.9462649974E+01	9.5258771164E+01	4.9935773122E+02	1.1651486468E+03	1.0479842290E+03	0.000E+00	0.0
	1000022	2	5	5	0	0	2.9462649974E+01	-9.5258771164E+01	2.2883581458E+02	8.8834861163E+02	8.5255800068E+02	0.000E+00	0.0
	14	1	6	6	0	0	-2.3792676851E+01	-3.1953688505E+02	1.6223916091E+02	4.8437223054E+02	3.2500000000E+02	0.000E+00	0.0
	-14	1	6	6	0	0	5.3255326825E+01	2.2427811389E+02	6.6596653674E+01	4.0397638110E+02	3.2500000000E+02	0.000E+00	0.0
	25	2	5	5	0	0	-2.9462649974E+01	9.5258771164E+01	1.6862053336E+02	2.3247362794E+02	1.2517516604E+02	0.000E+00	0.0
	-5	1	9	9	0	501	-8.0466820722E+00	1.0880159491E+02	1.7476733368E+02	2.0606705091E+02	4.1800000000E+00	0.000E+00	0.0
	5	1	9	9	501	0	-2.1415967902E+01	-1.3542823751E+01	-6.1468003252E+00	2.6406577032E+01	4.1800000000E+00	0.000E+00	0.0
</event>
<event>
    11  -1  1.0000000E+00  1.0000000E+00  -1.0000000E+00  -1.0000000E+00
	2212	-1	0	0	0	0	0.0000000000E+00	0.0000000000E+00	6.5000000000E+03	6.5000000000E+03	9.3827000000E-01	0.000E+00	0.0
	2212	-1	0	0	0	0	0.0000000000E+00	0.0000000000E+00	-6.5000000000E+03	6.5000000000E+03	9.3827000000E-01	0.000E+00	0.0
	2212	1	0	0	0	0	0.0000000000E+00	0.0000000000E+00	5.7136266117E+03	5.7136266117E+03	9.3827000000E-01	0.000E+00	0.0
	2212	1	0	0	0	0	0.0000000000E+00	0.0000000000E+00	-6.1453732138E+03	6.1453732138E+03	9.3827000000E-01	0.000E+00	0.0
	51	2	1	2	0	0	1.1865012140E+02	-6.6911692707E+01	5.0750464915E+02	1.1796576896E+03	1.0561611003E+03	0.000E+00	0.0
	1000022	2	5	5	0	0	-1.1865012140E+02	6.6911692707E+01	2.8012297022E+02	9.0184856162E+02	8.4634917364E+02	0.000E+00	0.0
	14	1	6	6	0	0	-2.8671813189E+02	-1.0861729582E+02	1.9347405470E+02	4.8689035105E+02	3.2500000000E+02	0.000E+00	0.0
	-14	1	6	6	0	0	1.6806801049E+02	1.7552898852E+02	8.6648915526E+01	4.1495821057E+02	3.2500000000E+02	0.000E+00	0.0
	25	2	5	5	0	0	1.1865012140E+02	-6.6911692707E+01	1.5162363183E+02	2.3915161284E+02	1.2509493301E+02	0.000E+00	0.0
	-5	1	9	9	0	501	-1.2020061385E+01	1.7739574525E+01	4.6135842639E+01	5.1040795017E+01	4.1800000000E+00	0.000E+00	0.0
	5	1	9	9	501	0	1.3067018278E+02	-8.4651267232E+01	1.0548778920E+02	1.8811081782E+02	4.1800000000E+00	0.000E+00	0.0
</event>
<event>
    11  -1  1.0000000E+00  1.0000000E+00  -1.0000000E+00  -1.0000000E+00
	2212	-1	0	0	0	0	0.0000000000E+00	0.0000000000E+00	6.5000000000E+03	6.5000000000E+03	9.3827000000E-01	0.000E+00	0.0
	2212	-1	0	0	0	0	0.0000000000E+00	0.0000000000E+00	-6.5000000000E+03	6.5000000000E+03	9.3827000000E-01	0.000E+00	0.0
	2212	1	0	0	0	0	0.0000000000E+00	0.0000000000E+00	5.7360238898E+03	5.7360238898E+03	9.3827000000E-01	0.000E+00	0.0
	2212	1	0	0	0	0	0.0000000000E+00	0.0000000000E+00	-6.1395634878E+03	6.1395634878E+03	9.3827000000E-01	0.000E+00	0.0
	51	2	1	2	0	0	1.2899527054E+02	-5.5716534429E+01	4.3725068599E+02	1.1455967059E+03	1.0495044250E+03	0.000E+00	0.0
	1000022	2	5	5	0	0	-1.2899527054E+02	5.5716534429E+01	3.0041782156E+02	9.0982433612E+02	8.4722213325E+02	0.000E+00	0.0
	14	1	6	6	0	0	-2.7044229424E+02	2.7554457155E+01	-2.9565597516E+01	4.2473215934E+02	3.2500000000E+02	0.000E+00	0.0
	-14	1	6	6	0	0	1.4144702370E+02	2.8162077275E+01	3.2998341907E+02	4.8509217678E+02	3.2500000000E+02	0.000E+00	0.0
	25	2	5	5	0	0	1.2899527054E+02	-5.5716534429E+01	1.0312177643E+02	2.1458828623E+02	1.2517955017E+02	0.000E+00	0.0
	-5	1	9	9	0	501	8.8445279046E+01	2.5953873806E+01	2.8152269105E+01	9.6468614621E+01	4.1800000000E+00	0.000E+00	0.0
	5	1	9	9	501	0	4.0549991493E+01	-8.1670408235E+01	7.4969507327E+01	1.1811967161E+02	4.1800000000E+00	0.000E+00	0.0
</event>
<event>
    11  -1  1.0000000E+00  1.0000000E+00  -1.0000000E+00  -1.0000000E+00
	2212	-1	0	0	0	0	0.0000000000E+00	0.0000000000E+00	6.5000000000E+03	6.5000000000E+03	9.3827000000E-01	0.000E+00	0.0
	2212	-1	0	0	0	0	0.0000000000E+00	0.0000000000E+00	-6.5000000000E+03	6.5000000000E+03	9.3827000000E-01	0.000E+00	0.0
	2212	1	0	0	0	0	0.0000000000E+00	0.0000000000E+00	6.0256528262E+03	6.0256528262E+03	9.3827000000E-01	0.000E+00	0.0
	2212	1	0	0	0	0	0.0000000000E+00	0.0000000000E+00	-5.9261752371E+03	5.9261752371E+03	9.3827000000E-01	0.000E+00	0.0
	51	2	1	2	0	0	5.0672776422E+01	5.1979909802E+01	2.2205120433E+01	1.0461985122E+03	1.0434407593E+03	0.000E+00	0.0
	1000022	2	5	5	0	0	-5.0672776422E+01	-5.1979909802E+01	-2.0402958426E+02	8.6964305636E+02	8.4224778594E+02	0.000E+00	0.0
	14	1	6	6	0	0	-1.6825891750E+02	-2.2056442093E+02	-2.2806027050E+02	4.8435133331E+02	3.2500000000E+02	0.000E+00	0.0
	-14	1	6	6	0	0	1.1758614108E+02	1.6858451113E+02	2.4030686248E+01	3.8529172304E+02	3.2500000000E+02	0.000E+00	0.0
	25	2	5	5	0	0	5.0672776422E+01	5.1979909802E+01	1.0455199513E+02	1.7852888040E+02	1.2518706067E+02	0.000E+00	0.0
	-5	1	9	9	0	501	1.3169952787E+01	-1.9569216235E+00	-2.7578975365E+01	3.0908728230E+01	4.1800000000E+00	0.000E+00	0.0
	5	1	9	9	501	0	3.7502823635E+01	5.3936831426E+01	1.3213097049E+02	1.4762015217E+02	4.1800000000E+00	0.000E+00	0.0
</event>
<event>
    11  -1  1.0000000E+00  1.0000000E+00  -1.0000000E+00  -1.0000000E+00
	2212	-1	0	0	0	0	0.0000000000E+00	0.0000000000E+00	6.5000000000E+03	6.5000000000E+03	9.3827000000E-01	0.000E+00	0.0
	2212	-1	0	0	0	0	0.0000000000E+00	0.0000000000E+00	-6.5000000000E+03	6.5000000000E+03	9.3827000000E-01	0.000E+00	0.0
	2212	1	0	0	0	0	0.0000000000E+00	0.0000000000E+00	5.1291850691E+03	5.1291850691E+03	9.3827000000E-01	0.000E+00	0.0
	2212	1	0	0	0	0	0.0000000000E+00	0.0000000000E+00	-6.3086888080E+03	6.3086888080E+03	9.3827000000E-01	0.000E+00	0.0
	51	2	1	2	0	0	9.7007754721E+00	5.1306425598E+01	1.0353567097E+03	1.4572916401E+03	1.0242113814E+03	0.000E+00	0.0
	1000022	2	5	5	0	0	-9.7007754721E+00	-5.1306425598E+01	1.1372208720E+03	1.4200542151E+03	8.4885582276E+02	0.000E+00	0.0
	14	1	6	6	0	0	-1.1005040183E+02	-2.5371281029E+02	7.6891102326E+02	8.7939208703E+02	3.2500000000E+02	0.000E+00	0.0
	-14	1	6	6	0	0	1.0034962636E+02	2.0240638469E+02	3.6830984875E+02	5.4066212810E+02	3.2500000000E+02	0.000E+00	0.0
	25	2	5	5	0	0	9.7007754721E+00	5.1306425598E+01	4.2282866876E+01	1.4207190776E+02	1.2518039699E+02	0.000E+00	0.0
	-5	1	9	9	0	501	-1.6748420548E+01	3.8887461897E+01	8.2122191252E+01	9.2489301974E+01	4.1800000000E+00	0.000E+00	0.0
	5	1	9	9	501	0	2.6449196020E+01	1.2418963701E+01	-3.9839324376E+01	4.9582605783E+01	4.1800000000E+00	0.000E+00	0.0
</event>
<event>
    11  -1  1.0000000E+00  1.0000000E+00  -1.0000000E+00  -1.0000000E+00
	2212	-1	0	0	0	0	0.0000000000E+00	0.0000000000E+00	6.5000000000E+03	6.5000000000E+03	9.3827000000E-01	0.000E+00	0.0
	2212	-1	0	0	0	0	0.0000000000E+00	0.0000000000E+00	-6.5000000000E+03	6.5000000000E+03	9.3827000000E-01	0.000E+00	0.0
	2212	1	0	0	0	0	0.0000000000E+00	0.0000000000E+00	5.8660749123E+03	5.8660749123E+03	9.3827000000E-01	0.000E+00	0.0
	2212	1	0	0	0	0	0.0000000000E+00	0.0000000000E+00	-6.1014523433E+03	6.1014523433E+03	9.3827000000E-01	0.000E+00	0.0
	51	2	1	2	0	0	2.9771317208E+01	3.2047487195E+00	3.1644128173E+02	1.0543382377E+03	1.0052847522E+03	0.000E+00	0.0
	1000022	2	5	5	0	0	-2.9771317208E+01	-3.2047487195E+00	1.1987537538E+02	8.5954558131E+02	8.5061853906E+02	0.000E+00	0.0
	14	1	6	6	0	0	3.8052372054E+01	3.7866874605E+01	3.2856714289E+02	4.6525611291E+02	3.2500000000E+02	0.000E+00	0.0
	-14	1	6	6	0	0	-6.7823689262E+01	-4.1071623324E+01	-2.0869176751E+02	3.9428946840E+02	3.2500000000E+02	0.000E+00	0.0
	25	2	5	5	0	0	2.9771317208E+01	3.2047487195E+00	1.1550205554E+02	1.7292716309E+02	1.2516579868E+02	0.000E+00	0.0
	-5	1	9	9	0	501	5.4273975484E+01	3.3177467986E+01	1.1777634819E+02	1.3392217662E+02	4.1800000000E+00	0.000E+00	0.0
	5	1	9	9	501	0	-2.4502658276E+01	-2.9972719266E+01	-2.2742926535E+00	3.9004986474E+01	4.1800000000E+00	0.000E+00	0.0
</event>
<event>
    11  -1  1.0000000E+00  1.0000000E+00  -1.0000000E+00  -1.0000000E+00
	2212	-1	0	0	0	0	0.0000000000E+00	0.0000000000E+00	6.5000000000E+03	6.5000000000E+03	9.3827000000E-01	0.000E+00	0.0
	2212	-1	0	0	0	0	0.0000000000E+00	0.0000000000E+00	-6.5000000000E+03	6.5000000000E+03	9.3827000000E-01	0.000E+00	0.0
	2212	1	0	0	0	0	0.0000000000E+00	0.0000000000E+00	6.2732732390E+03	6.2732732390E+03	9.3827000000E-01	0.000E+00	0.0
	2212	1	0	0	0	0	0.0000000000E+00	0.0000000000E+00	-5.2758566235E+03	5.2758566235E+03	9.3827000000E-01	0.000E+00	0.0
	51	2	1	2	0	0	-6.4230845198E+01	2.2746908976E+01	-8.2648834293E+02	1.3408617585E+03	1.0536528134E+03	0.000E+00	0.0
	1000022	2	5	5	0	0	6.4230845198E+01	-2.2746908976E+01	-9.9472170812E+02	1.3083213774E+03	8.4710715179E+02	0.000E+00	0.0
	14	1	6	6	0	0	1.3009273903E+02	-2.6499251227E+02	-5.2506520233E+02	6.8444402182E+02	3.2500000000E+02	0.000E+00	0.0
	-14	1	6	6	0	0	-6.5861893827E+01	2.4224560330E+02	-4.6965650579E+02	6.2387735558E+02	3.2500000000E+02	0.000E+00	0.0
	25	2	5	5	0	0	-6.4230845198E+01	2.2746908976E+01	-2.6949073693E+00	1.4254876013E+02	1.2517932396E+02	0.000E+00	0.0
	-5	1	9	9	0	501	-3.9440753561E+01	7.4430299587E+01	-8.5869284779E+00	8.4774113259E+01	4.1800000000E+00	0.000E+00	0.0
	5	1	9	9	501	0	-2.4790091637E+01	-5.1683390611E+01	5.8920211086E+00	5.7774646872E+01	4.1800000000E+00	0.000E+00	0.0
</event>
<event>
    11  -1  1.0000000E+00  1.0000000E+00  -1.0000000E+00  -1.0000000E+00
	2212	-1	0	0	0	0	0.0000000000E+00	0.0000000000E+00	6.5000000000E+03	6.5000000000E+03	9.3827000000E-01	0.000E+00	0.0
	2212	-1	0	0	0	0	0.0000000000E+00	0.0000000000E+00	-6.5000000000E+03	6.5000000000E+03	9.3827000000E-01	0.000E+00	0.0
	2212	1	0	0	0	0	0.0000000000E+00	0.0000000000E+00	5.2396826423E+03	5.2396826423E+03	9.3827000000E-01	0.000E+00	0.0
	2212	1	0	0	0	0	0.0000000000E+00	0.0000000000E+00	-6.2820954598E+03	6.2820954598E+03	9.3827000000E-01	0.000E+00	0.0
	51	2	1	2	0	0	-1.1629979117E+02	3.0912648024E+01	1.0201514184E+03	1.4675509011E+03	1.0481009005E+03	0.000E+00	0.0
	1000022	2	5	5	0	0	1.1629979117E+02	-3.0912648024E+01	8.9776243298E+02	1.2521990924E+03	8.6460623855E+02	0.000E+00	0.0
	14	1	6	6	0	0	5.3470272708E+00	1.4767040137E+01	8.4020483272E+02	9.0100822255E+02	3.2500000000E+02	0.000E+00	0.0
	-14	1	6	6	0	0	1.1095276390E+02	-4.5679688162E+01	5.7557600259E+01	3.5119086986E+02	3.2500000000E+02	0.000E+00	0.0
	25	2	5	5	0	0	-1.1629979117E+02	3.0912648024E+01	1.4465038450E+02	2.2602280556E+02	1.2522516387E+02	0.000E+00	0.0
	-5	1	9	9	0	501	-1.4024603815E+02	4.1381869547E+01	1.3038099269E+02	1.9595429569E+02	4.1800000000E+00	0.000E+00	0.0
	5	1	9	9	501	0	2.3946246979E+01	-1.0469221522E+01	1.4269391808E+01	3.0068509877E+01	4.1800000000E+00	0.000E+00	0.0
</event>
<event>
    11  -1  1.0000000E+00  1.0000000E+00  -1.0000000E+00  -1.0000000E+00
	2212	-1	0	0	0	0	0.0000000000E+00	0.0000000000E+00	6.5000000000E+03	6.5000000000E+03	9.3827000000E-01	0.000E+00	0.0
	2212	-1	0	0	0	0	0.0000000000E+00	0.0000000000E+00	-6.5000000000E+03	6.5000000000E+03	9.3827000000E-01	0.000E+00	0.0
	2212	1	0	0	0	0	0.0000000000E+00	0.0000000000E+00	5.9319156658E+03	5.9319156658E+03	9.3827000000E-01	0.000E+00	0.0
	2212	1	0	0	0	0	0.0000000000E+00	0.0000000000E+00	-6.0062371742E+03	6.0062371742E+03	9.3827000000E-01	0.000E+00	0.0
	51	2	1	2	0	0	9.5098051434E+01	4.2937512849E+01	1.8101829674E+02	1.0796529988E+03	1.0592429866E+03	0.000E+00	0.0
	1000022	2	5	5	0	0	-9.5098051434E+01	-4.2937512849E+01	-4.5278068806E+01	8.5969643891E+02	8.5213883503E+02	0.000E+00	0.0
	14	1	6	6	0	0	-2.0767178089E+02	1.8852628668E+02	-1.0203061128E+02	4.4125386682E+02	3.2500000000E+02	0.000E+00	0.0
	-14	1	6	6	0	0	1.1257372946E+02	-2.3146379953E+02	5.6752542476E+01	4.1844257209E+02	3.2500000000E+02	0.000E+00	0.0
	25	2	5	5	0	0	9.5098051434E+01	4.2937512849E+01	1.1959957721E+02	2.0215072117E+02	1.2519419237E+02	0.000E+00	0.0
	-5	1	9	9	0	501	7.4645107975E+01	5.1832809266E+01	1.1501661107E+01	9.1696744049E+01	4.1800000000E+00	0.000E+00	0.0
	5	1	9	9	501	0	2.0452943459E+01	-8.8952964172E+00	1.0809791611E+02	1.1045397712E+02	4.1800000000E+00	0.000E+00	0.0
</event>
<event>
    11  -1  1.0000000E+00  1.0000000E+00  -1.0000000E+00  -1.0000000E+00
	2212	-1	0	0	0	0	0.0000000000E+00	0.0000000000E+00	6.5000000000E+03	6.5000000000E+03	9.3827000000E-01	0.000E+00	0.0
	2212	-1	0	0	0	0	0.0000000000E+00	0.0000000000E+00	-6.5000000000E+03	6.5000000000E+03	9.3827000000E-01	0.000E+00	0.0
	2212	1	0	0	0	0	0.0000000000E+00	0.0000000000E+00	5.6747767079E+03	5.6747767079E+03	9.3827000000E-01	0.000E+00	0.0
	2212	1	0	0	0	0	0.0000000000E+00	0.0000000000E+00	-6.1641995657E+03	6.1641995657E+03	9.3827000000E-01	0.000E+00	0.0
	51	2	1	2	0	0	1.2563074033E+02	-5.0175067698E+01	5.3929892350E+02	1.1906239158E+03	1.0528254174E+03	0.000E+00	0.0
	1000022	2	5	5	0	0	-1.2563074033E+02	5.0175067698E+01	3.5614049155E+02	9.3356458492E+02	8.5229464633E+02	0.000E+00	0.0
	14	1	6	6	0	0	-2.2149733473E+02	1.0216740993E+02	4.2050593396E+02	5.8476447347E+02	3.2500000000E+02	0.000E+00	0.0
	-14	1	6	6	0	0	9.5866594397E+01	-5.1992342229E+01	-6.4365442409E+01	3.4880011145E+02	3.2500000000E+02	0.000E+00	0.0
	25	2	5	5	0	0	1.2563074033E+02	-5.0175067698E+01	1.3328236621E+02	2.2745914150E+02	1.2519125997E+02	0.000E+00	0.0
	-5	1	9	9	0	501	3.0908107533E+01	1.8159237157E+01	-1.4631688814E+01	3.8943904824E+01	4.1800000000E+00	0.000E+00	0.0
	5	1	9	9	501	0	9.4722632796E+01	-6.8334304855E+01	1.4791405503E+02	1.8851523668E+02	4.1800000000E+00	0.000E+00	0.0
</event>
<event>
    11  -1  1.0000000E+00  1.0000000E+00  -1.0000000E+00  -1.0000000E+00
	2212	-1	0	0	0	0	0.0000000000E+00	0.0000000000E+00	6.5000000000E+03	6.5000000000E+03	9.3827000000E-01	0.000E+00	0.0
	2212	-1	0	0	0	0	0.0000000000E+00	0.0000000000E+00	-6.5000000000E+03	6.5000000000E+03	9.3827000000E-01	0.000E+00	0.0
	2212	1	0	0	0	0	0.0000000000E+00	0.0000000000E+00	6.0388932742E+03	6.0388932742E+03	9.3827000000E-01	0.000E+00	0.0
	2212	1	0	0	0	0	0.0000000000E+00	0.0000000000E+00	-5.8972359814E+03	5.8972359814E+03	9.3827000000E-01	0.000E+00	0.0
	51	2	1	2	0	0	-1.5056631681E+02	2.8555859275E+02	-3.1241321857E+02	1.1461108659E+03	1.0543975399E+03	0.000E+00	0.0
	1000022	2	5	5	0	0	1.5056631681E+02	-2.8555859275E+02	7.2345879745E+01	6.5683632682E+02	5.6743819774E+02	0.000E+00	0.0
	14	1	6	6	0	0	0.0000000000E+00	0.0000000000E+00	0.0000000000E+00	0.0000000000E+00	0.0000000000E+00	0.000E+00	0.0
	-14	1	6	6	0	0	0.0000000000E+00	0.0000000000E+00	0.0000000000E+00	0.0000000000E+00	0.0000000000E+00	0.000E+00	0.0
	25	2	5	5	0	0	-1.5056631681E+02	2.8555859275E+02	-2.1400317259E+02	4.0703441759E+02	1.2516282824E+02	0.000E+00	0.0
	-5	1	9	9	0	501	-7.3516675244E+01	1.7681694107E+02	-1.9325620321E+02	2.7209256636E+02	4.1800000000E+00	0.000E+00	0.0
	5	1	9	9	501	0	-7.7049641565E+01	1.0874165168E+02	-2.0746969382E+01	1.3494185123E+02	4.1800000000E+00	0.000E+00	0.0
</event>
<event>
    11  -1  1.0000000E+00  1.0000000E+00  -1.0000000E+00  -1.0000000E+00
	2212	-1	0	0	0	0	0.0000000000E+00	0.0000000000E+00	6.5000000000E+03	6.5000000000E+03	9.3827000000E-01	0.000E+00	0.0
	2212	-1	0	0	0	0	0.0000000000E+00	0.0000000000E+00	-6.5000000000E+03	6.5000000000E+03	9.3827000000E-01	0.000E+00	0.0
	2212	1	0	0	0	0	0.0000000000E+00	0.0000000000E+00	5.3904138414E+03	5.3904138414E+03	9.3827000000E-01	0.000E+00	0.0
	2212	1	0	0	0	0	0.0000000000E+00	0.0000000000E+00	-6.2557243315E+03	6.2557243315E+03	9.3827000000E-01	0.000E+00	0.0
	51	2	1	2	0	0	2.9340051313E+01	-4.0328871247E+02	7.2083700454E+02	1.3293939273E+03	1.0412394549E+03	0.000E+00	0.0
	1000022	2	5	5	0	0	-2.9340051313E+01	4.0328871247E+02	7.0481799125E+02	9.0118099286E+02	3.8968725521E+02	0.000E+00	0.0
	14	1	6	6	0	0	0.0000000000E+00	0.0000000000E+00	0.0000000000E+00	0.0000000000E+00	0.0000000000E+00	0.000E+00	0.0
	-14	1	6	6	0	0	0.0000000000E+00	0.0000000000E+00	0.0000000000E+00	0.0000000000E+00	0.0000000000E+00	0.000E+00	0.0
	25	2	5	5	0	0	2.9340051313E+01	-4.0328871247E+02	1.6049249888E+02	4.5268083424E+02	1.2513780912E+02	0.000E+00	0.0
	-5	1	9	9	0	501	2.2851332990E+01	-3.9359264974E+01	5.9294932779E+01	7.4864521718E+01	4.1800000000E+00	0.000E+00	0.0
	5	1	9	9	501	0	6.4887183226E+00	-3.6392944750E+02	1.0119756610E+02	3.7781631252E+02	4.1800000000E+00	0.000E+00	0.0
</event>
<event>
    11  -1  1.0000000E+00  1.0000000E+00  -1.0000000E+00  -1.0000000E+00
	2212	-1	0	0	0	0	0.0000000000E+00	0.0000000000E+00	6.5000000000E+03	6.5000000000E+03	9.3827000000E-01	0.000E+00	0.0
	2212	-1	0	0	0	0	0.0000000000E+00	0.0000000000E+00	-6.5000000000E+03	6.5000000000E+03	9.3827000000E-01	0.000E+00	0.0
	2212	1	0	0	0	0	0.0000000000E+00	0.0000000000E+00	5.7943823064E+03	5.7943823064E+03	9.3827000000E-01	0.000E+00	0.0
	2212	1	0	0	0	0	0.0000000000E+00	0.0000000000E+00	-6.1106131400E+03	6.1106131400E+03	9.3827000000E-01	0.000E+00	0.0
	51	2	1	2	0	0	5.9618796837E+01	9.8925424231E+01	3.5874057940E+02	1.1140325292E+03	1.0483477631E+03	0.000E+00	0.0
	1000022	2	5	5	0	0	-5.9618796837E+01	-9.8925424231E+01	2.2316225280E+02	9.0090777216E+02	8.6515477365E+02	0.000E+00	0.0
	14	1	6	6	0	0	-7.9080273758E+01	1.9659210007E+02	-3.7445038135E+01	3.8978105955E+02	3.2500000000E+02	0.000E+00	0.0
	-14	1	6	6	0	0	1.9461476921E+01	-2.9551752430E+02	2.6060729094E+02	5.1112671261E+02	3.2500000000E+02	0.000E+00	0.0
	25	2	5	5	0	0	5.9618796837E+01	9.8925424231E+01	9.3068580728E+01	1.9409678144E+02	1.2518450124E+02	0.000E+00	0.0
	-5	1	9	9	0	501	6.1657280682E+01	6.3048385074E+01	-6.1398884057E+00	8.8497964672E+01	4.1800000000E+00	0.000E+00	0.0
	5	1	9	9	501	0	-2.0384838449E+00	3.5877039157E+01	9.9208469134E+01	1.0559881677E+02	4.1800000000E+00	0.000E+00	0.0
</event>
<event>
    11  -1  1.0000000E+00  1.0000000E+00  -1.0000000E+00  -1.0000000E+00
	2212	-1	0	0	0	0	0.0000000000E+00	0.0000000000E+00	6.5000000000E+03	6.5000000000E+03	9.3827000000E-01	0.000E+00	0.0
	2212	-1	0	0	0	0	0.0000000000E+00	0.0000000000E+00	-6.5000000000E+03	6.5000000000E+03	9.3827000000E-01	0.000E+00	0.0
	2212	1	0	0	0	0	0.0000000000E+00	0.0000000000E+00	6.2417944267E+03	6.2417944267E+03	9.3827000000E-01	0.000E+00	0.0
	2212	1	0	0	0	0	0.0000000000E+00	0.0000000000E+00	-5.4254380061E+03	5.4254380061E+03	9.3827000000E-01	0.000E+00	0.0
	51	2	1	2	0	0	3.0996966136E+01	7.9503208452E+00	-1.0022746322E+03	1.4544449253E+03	1.0534854450E+03	0.000E+00	0.0
	1000022	2	5	5	0	0	-3.0996966136E+01	-7.9503208452E+00	-4.8993312597E+02	9.8170435171E+02	8.5010878524E+02	0.000E+00	0.0
	14	1	6	6	0	0	4.8216307241E+00	1.9607288825E+02	-4.5818126476E+02	5.9499823278E+02	3.2500000000E+02	0.000E+00	0.0
	-14	1	6	6	0	0	-3.5818596860E+01	-2.0402320910E+02	-3.1751861211E+01	3.8670611894E+02	3.2500000000E+02	0.000E+00	0.0
	25	2	5	5	0	0	3.0996966136E+01	7.9503208452E+00	-3.2642329455E+02	3.5106321548E+02	1.2517665329E+02	0.000E+00	0.0
	-5	1	9	9	0	501	-1.6142413899E+01	2.0130864233E+01	-2.8724019426E+02	2.8842716727E+02	4.1800000000E+00	0.000E+00	0.0
	5	1	9	9	501	0	4.7139380035E+01	-1.2180543388E+01	-3.9183100288E+01	6.2636048211E+01	4.1800000000E+00	0.000E+00	0.0
</event>
<event>
    11  -1  1.0000000E+00  1.0000000E+00  -1.0000000E+00  -1.0000000E+00
	2212	-1	0	0	0	0	0.0000000000E+00	0.0000000000E+00	6.5000000000E+03	6.5000000000E+03	9.3827000000E-01	0.000E+00	0.0
	2212	-1	0	0	0	0	0.0000000000E+00	0.0000000000E+00	-6.5000000000E+03	6.5000000000E+03	9.3827000000E-01	0.000E+00	0.0
	2212	1	0	0	0	0	0.0000000000E+00	0.0000000000E+00	6.2795114094E+03	6.2795114094E+03	9.3827000000E-01	0.000E+00	0.0
	2212	1	0	0	0	0	0.0000000000E+00	0.0000000000E+00	-5.2694617683E+03	5.2694617683E+03	9.3827000000E-01	0.000E+00	0.0
	51	2	1	2	0	0	-8.9479119755E+01	-2.6718637338E+01	-8.8754468322E+02	1.3717632902E+03	1.0417670379E+03	0.000E+00	0.0
	1000022	2	5	5	0	0	8.9479119755E+01	2.6718637338E+01	-9.6404683304E+02	1.2882138480E+03	8.4934576202E+02	0.000E+00	0.0
	14	1	6	6	0	0	-1.7931624739E+02	9.0178785268E+01	-2.5010294261E+02	4.5657749812E+02	3.2500000000E+02	0.000E+00	0.0
	-14	1	6	6	0	0	2.6879536714E+02	-6.3460147930E+01	-7.1394389043E+02	8.3163634989E+02	3.2500000000E+02	0.000E+00	0.0
	25	2	5	5	0	0	-8.9479119755E+01	-2.6718637338E+01	-4.6002808093E+01	1.6281297423E+02	1.2518549345E+02	0.000E+00	0.0
	-5	1	9	9	0	501	-8.0379092301E+01	-6.3950436714E+01	-6.3116836476E+01	1.2063027929E+02	4.1800000000E+00	0.000E+00	0.0
	5	1	9	9	501	0	-9.1000274538E+00	3.7231799376E+01	1.7114028383E+01	4.2182694935E+01	4.1800000000E+00	0.000E+00	0.0
</event>
<event>
    11  -1  1.0000000E+00  1.0000000E+00  -1.0000000E+00  -1.0000000E+00
	2212	-1	0	0	0	0	0.0000000000E+00	0.0000000000E+00	6.5000000000E+03	6.5000000000E+03	9.3827000000E-01	0.000E+00	0.0
	2212	-1	0	0	0	0	0.0000000000E+00	0.0000000000E+00	-6.5000000000E+03	6.5000000000E+03	9.3827000000E-01	0.000E+00	0.0
	2212	1	0	0	0	0	0.0000000000E+00	0.0000000000E+00	4.9142668750E+03	4.9142668750E+03	9.3827000000E-01	0.000E+00	0.0
	2212	1	0	0	0	0	0.0000000000E+00	0.0000000000E+00	-6.3286489751E+03	6.3286489751E+03	9.3827000000E-01	0.000E+00	0.0
	51	2	1	2	0	0	6.9323246651E+01	4.0164864467E+01	1.2511288477E+03	1.6305245497E+03	1.0425296085E+03	0.000E+00	0.0
	1000022	2	5	5	0	0	-6.9323246651E+01	-4.0164864467E+01	1.3430751440E+03	1.5922500563E+03	8.5146372237E+02	0.000E+00	0.0
	14	1	6	6	0	0	-1.2349738748E+02	-2.1703345986E+02	1.0155790297E+03	1.0951624962E+03	3.2500000000E+02	0.000E+00	0.0
	-14	1	6	6	0	0	5.4174140828E+01	1.7686859540E+02	3.2749611428E+02	4.9708756013E+02	3.2500000000E+02	0.000E+00	0.0
	25	2	5	5	0	0	6.9323246651E+01	4.0164864467E+01	7.1306956122E+01	1.6483409357E+02	1.2516655923E+02	0.000E+00	0.0
	-5	1	9	9	0	501	-3.9199149458E+00	3.7271574529E+00	-3.2153827603E+01	3.2872457550E+01	4.1800000000E+00	0.000E+00	0.0
	5	1	9	9	501	0	7.3243161597E+01	3.6437707014E+01	1.0346078372E+02	1.3196163602E+02	4.1800000000E+00	0.000E+00	0.0
</event>
<event>
    11  -1  1.0000000E+00  1.0000000E+00  -1.0000000E+00  -1.0000000E+00
	2212	-1	0	0	0	0	0.0000000000E+00	0.0000000000E+00	6.5000000000E+03	6.5000000000E+03	9.3827000000E-01	0.000E+00	0.0
	2212	-1	0	0	0	0	0.0000000000E+00	0.0000000000E+00	-6.5000000000E+03	6.5000000000E+03	9.3827000000E-01	0.000E+00	0.0
	2212	1	0	0	0	0	0.0000000000E+00	0.0000000000E+00	5.8513084430E+03	5.8513084430E+03	9.3827000000E-01	0.000E+00	0.0
	2212	1	0	0	0	0	0.0000000000E+00	0.0000000000E+00	-6.0772598761E+03	6.0772598761E+03	9.3827000000E-01	0.000E+00	0.0
	51	2	1	2	0	0	-5.4099615484E+01	-7.1840630955E+01	1.2697409886E+02	1.0588305167E+03	1.0473355702E+03	0.000E+00	0.0
	1000022	2	5	5	0	0	5.4099615484E+01	7.1840630955E+01	2.8728701988E+02	9.0554067815E+02	8.5403878327E+02	0.000E+00	0.0
	14	1	6	6	0	0	1.9495462729E+02	1.4220813928E+02	-5.4341866688E+01	4.0842196324E+02	3.2500000000E+02	0.000E+00	0.0
	-14	1	6	6	0	0	-1.4085501181E+02	-7.0367508322E+01	3.4162888656E+02	4.9711871491E+02	3.2500000000E+02	0.000E+00	0.0
	25	2	5	5	0	0	-5.4099615484E+01	-7.1840630955E+01	-6.1335586695E+01	1.6589100276E+02	1.2517957481E+02	0.000E+00	0.0
	-5	1	9	9	0	501	-2.6365090533E+01	-1.0622014560E+02	-4.7832208889E+01	1.1951246771E+02	4.1800000000E+00	0.000E+00	0.0
	5	1	9	9	501	0	-2.7734524950E+01	3.4379514643E+01	-1.3503377805E+01	4.6378535051E+01	4.1800000000E+00	0.000E+00	0.0
</event>
<event>
    11  -1  1.0000000E+00  1.0000000E+00  -1.0000000E+00  -1.0000000E+00
	2212	-1	0	0	0	0	0.0000000000E+00	0.0000000000E+00	6.5000000000E+03	6.5000000000E+03	9.3827000000E-01	0.000E+00	0.0
	2212	-1	0	0	0	0	0.0000000000E+00	0.0000000000E+00	-6.5000000000E+03	6.5000000000E+03	9.3827000000E-01	0.000E+00	0.0
	2212	1	0	0	0	0	0.0000000000E+00	0.0000000000E+00	5.1541862440E+03	5.1541862440E+03	9.3827000000E-01	0.000E+00	0.0
	2212	1	0	0	0	0	0.0000000000E+00	0.0000000000E+00	-6.2957841110E+03	6.2957841110E+03	9.3827000000E-01	0.000E+00	0.0
	51	2	1	2	0	0	-1.1584329907E+02	-4.4337217157E+00	1.1247688501E+03	1.5420410191E+03	1.0484971200E+03	0.000E+00	0.0
	1000022	2	5	5	0	0	1.1584329907E+02	4.4337217157E+00	9.7892233830E+02	1.3142920210E+03	8.6927282496E+02	0.000E+00	0.0
	14	1	6	6	0	0	-1.0508836215E+02	1.2303525718E+02	7.7525640020E+02	8.5605415974E+02	3.2500000000E+02	0.000E+00	0.0
	-14	1	6	6	0	0	2.2093166123E+02	-1.1860153547E+02	2.0366593810E+02	4.5823786126E+02	3.2500000000E+02	0.000E+00	0.0
	25	2	5	5	0	0	-1.1584329907E+02	-4.4337217157E+00	1.6267552871E+02	2.3573762406E+02	1.2517816075E+02	0.000E+00	0.0
	-5	1	9	9	0	501	-1.1831273083E+02	4.5280770758E+00	1.8008686324E+02	2.1556241896E+02	4.1800000000E+00	0.000E+00	0.0
	5	1	9	9	501	0	2.4694317586E+00	-8.9617987915E+00	-1.7411334527E+01	2.0175205100E+01	4.1800000000E+00	0.000E+00	0.0
</event>
<event>
    11  -1  1.0000000E+00  1.0000000E+00  -1.0000000E+00  -1.0000000E+00
	2212	-1	0	0	0	0	0.0000000000E+00	0.0000000000E+00	6.5000000000E+03	6.5000000000E+03	9.3827000000E-01	0.000E+00	0.0
	2212	-1	0	0	0	0	0.0000000000E+00	0.0000000000E+00	-6.5000000000E+03	6.5000000000E+03	9.3827000000E-01	0.000E+00	0.0
	2212	1	0	0	0	0	0.0000000000E+00	0.0000000000E+00	6.1416533247E+03	6.1416533247E+03	9.3827000000E-01	0.000E+00	0.0
	2212	1	0	0	0	0	0.0000000000E+00	0.0000000000E+00	-5.7325769321E+03	5.7325769321E+03	9.3827000000E-01	0.000E+00	0.0
	51	2	1	2	0	0	-3.9956587136E+01	3.4841155071E+01	-2.8725393185E+02	1.0887328763E+03	1.0488155317E+03	0.000E+00	0.0
	1000022	2	5	5	0	0	3.9956587136E+01	-3.4841155071E+01	-4.6414989107E+02	9.7911485079E+02	8.6047680660E+02	0.000E+00	0.0
	14	1	6	6	0	0	8.5263975130E+01	1.4538658623E+02	2.0532839958E+01	3.6667942733E+02	3.2500000000E+02	0.000E+00	0.0
	-14	1	6	6	0	0	-4.5307387994E+01	-1.8022774130E+02	-4.8468273103E+02	6.1243542346E+02	3.2500000000E+02	0.000E+00	0.0
	25	2	5	5	0	0	-3.9956587136E+01	3.4841155071E+01	5.5073498424E+01	1.4665489237E+02	1.2515643126E+02	0.000E+00	0.0
	-5	1	9	9	0	501	3.0957242789E+01	7.6945953740E+00	6.2450982535E+01	7.0250660486E+01	4.1800000000E+00	0.000E+00	0.0
	5	1	9	9	501	0	-7.0913829925E+01	2.7146559697E+01	-7.3774841117E+00	7.6404231884E+01	4.1800000000E+00	0.000E+00	0.0
</event>
<event>
    11  -1  1.0000000E+00  1.0000000E+00  -1.0000000E+00  -1.0000000E+00
	2212	-1	0	0	0	0	0.0000000000E+00	0.0000000000E+00	6.5000000000E+03	6.5000000000E+03	9.3827000000E-01	0.000E+00	0.0
	2212	-1	0	0	0	0	0.0000000000E+00	0.0000000000E+00	-6.5000000000E+03	6.5000000000E+03	9.3827000000E-01	0.000E+00	0.0
	2212	1	0	0	0	0	0.0000000000E+00	0.0000000000E+00	5.8116496516E+03	5.8116496516E+03	9.3827000000E-01	0.000E+00	0.0
	2212	1	0	0	0	0	0.0000000000E+00	0.0000000000E+00	-6.1011960817E+03	6.1011960817E+03	9.3827000000E-01	0.000E+00	0.0
	51	2	1	2	0	0	6.5219323629E+00	-1.3966236794E+02	2.8482748512E+02	1.0948708021E+03	1.0478870475E+03	0.000E+00	0.0
	1000022	2	5	5	0	0	-6.5219323629E+00	1.3966236794E+02	2.4494791935E+02	8.9426645347E+02	8.4862529657E+02	0.000E+00	0.0
	14	1	6	6	0	0	2.0347246004E+02	1.4344387442E+02	-4.3402912698E+01	4.1168677406E+02	3.2500000000E+02	0.000E+00	0.0
	-14	1	6	6	0	0	-2.0999439241E+02	-3.7815064738E+00	2.8835083205E+02	4.8257967941E+02	3.2500000000E+02	0.000E+00	0.0
	25	2	5	5	0	0	6.5219323629E+00	-1.3966236794E+02	4.4598510757E+01	1.9288781319E+02	1.2517415346E+02	0.000E+00	0.0
	-5	1	9	9	0	501	-3.6100149940E+01	-1.0520914630E+02	7.0882160800E+01	1.3196188241E+02	4.1800000000E+00	0.000E+00	0.0
	5	1	9	9	501	0	4.2622082303E+01	-3.4453221643E+01	-2.6283650043E+01	6.0925930777E+01	4.1800000000E+00	0.000E+00	0.0
</event>
<event>
    11  -1  1.0000000E+00  1.0000000E+00  -1.0000000E+00  -1.0000000E+00
	2212	-1	0	0	0	0	0.0000000000E+00	0.0000000000E+00	6.5000000000E+03	6.5000000000E+03	9.3827000000E-01	0.000E+00	0.0
	2212	-1	0	0	0	0	0.0000000000E+00	0.0000000000E+00	-6.5000000000E+03	6.5000000000E+03	9.3827000000E-01	0.000E+00	0.0
	2212	1	0	0	0	0	0.0000000000E+00	0.0000000000E+00	5.9144159443E+03	5.9144159443E+03	9.3827000000E-01	0.000E+00	0.0
	2212	1	0	0	0	0	0.0000000000E+00	0.0000000000E+00	-6.0075547583E+03	6.0075547583E+03	9.3827000000E-01	0.000E+00	0.0
	51	2	1	2	0	0	1.2987650300E+02	6.2437971206E+01	-6.4053219423E+00	1.0836418974E+03	1.0739982902E+03	0.000E+00	0.0
	1000022	2	5	5	0	0	-1.2987650300E+02	-6.2437971206E+01	1.7521596141E+02	8.7024614660E+02	8.4015553100E+02	0.000E+00	0.0
	14	1	6	6	0	0	6.6321305382E+01	-2.0947453758E+02	2.3720766285E+02	4.5844364186E+02	3.2500000000E+02	0.000E+00	0.0
	-14	1	6	6	0	0	-1.9619780838E+02	1.4703656638E+02	-6.1991701445E+01	4.1180250474E+02	3.2500000000E+02	0.000E+00	0.0
	25	2	5	5	0	0	1.2987650300E+02	6.2437971206E+01	-8.2077147434E+01	2.0778315077E+02	1.2518295944E+02	0.000E+00	0.0
	-5	1	9	9	0	501	3.2281471652E+01	2.6172807899E+01	3.2491307134E+01	5.2917546472E+01	4.1800000000E+00	0.000E+00	0.0
	5	1	9	9	501	0	9.7595031348E+01	3.6265163307E+01	-1.1456845457E+02	1.5486560430E+02	4.1800000000E+00	0.000E+00	0.0
</event>
<event>
    11  -1  1.0000000E+00  1.0000000E+00  -1.0000000E+00  -1.0000000E+00
	2212	-1	0	0	0	0	0.0000000000E+00	0.0000000000E+00	6.5000000000E+03	6.5000000000E+03	9.3827000000E-01	0.000E+00	0.0
	2212	-1	0	0	0	0	0.0000000000E+00	0.0000000000E+00	-6.5000000000E+03	6.5000000000E+03	9.3827000000E-01	0.000E+00	0.0
	2212	1	0	0	0	0	0.0000000000E+00	0.0000000000E+00	6.2455807323E+03	6.2455807323E+03	9.3827000000E-01	0.000E+00	0.0
	2212	1	0	0	0	0	0.0000000000E+00	0.0000000000E+00	-5.3490142817E+03	5.3490142817E+03	9.3827000000E-01	0.000E+00	0.0
	51	2	1	2	0	0	-7.1948765441E+01	1.2407621990E+02	-1.0382674931E+03	1.5066196252E+03	1.0822808205E+03	0.000E+00	0.0
	1000022	2	5	5	0	0	7.1948765441E+01	-1.2407621990E+02	-5.8830104333E+02	1.0430938175E+03	8.4933801353E+02	0.000E+00	0.0
	14	1	6	6	0	0	-5.9938721149E+01	-1.3203086421E+02	-5.9373344060E+02	6.9222048358E+02	3.2500000000E+02	0.000E+00	0.0
	-14	1	6	6	0	0	1.3188748659E+02	7.9546443020E+00	5.4323972697E+00	3.5087333388E+02	3.2500000000E+02	0.000E+00	0.0
	25	2	5	5	0	0	-7.1948765441E+01	1.2407621990E+02	-3.0826540727E+02	3.6231116859E+02	1.2518102241E+02	0.000E+00	0.0
	-5	1	9	9	0	501	1.0764142255E+01	-9.5678025527E+00	1.3563619287E+00	1.5057281357E+01	4.1800000000E+00	0.000E+00	0.0
	5	1	9	9	501	0	-8.2712907696E+01	1.3364402246E+02	-3.0962176919E+02	3.4725388723E+02	4.1800000000E+00	0.000E+00	0.0
</event>
<event>
    11  -1  1.0000000E+00  1.0000000E+00  -1.0000000E+00  -1.0000000E+00
	2212	-1	0	0	0	0	0.0000000000E+00	0.0000000000E+00	6.5000000000E+03	6.5000000000E+03	9.3827000000E-01	0.000E+00	0.0
	2212	-1	0	0	0	0	0.0000000000E+00	0.0000000000E+00	-6.5000000000E+03	6.5000000000E+03	9.3827000000E-01	0.000E+00	0.0
	2212	1	0	0	0	0	0.0000000000E+00	0.0000000000E+00	6.1626215417E+03	6.1626215417E+03	9.3827000000E-01	0.000E+00	0.0
	2212	1	0	0	0	0	0.0000000000E+00	0.0000000000E+00	-5.6880781490E+03	5.6880781490E+03	9.3827000000E-01	0.000E+00	0.0
	51	2	1	2	0	0	5.3591703181E+00	-4.5380710164E+01	-3.5851839750E+02	1.1073948440E+03	1.0467567862E+03	0.000E+00	0.0
	1000022	2	5	5	0	0	-5.3591703181E+00	4.5380710164E+01	-5.1568090085E+02	1.0098351914E+03	8.6703644255E+02	0.000E+00	0.0
	14	1	6	6	0	0	-1.1499483832E+02	2.5617193279E+02	-1.2139524034E+02	4.4632911217E+02	3.2500000000E+02	0.000E+00	0.0
	-14	1	6	6	0	0	1.0963566800E+02	-2.1079122263E+02	-3.9428566051E+02	5.6350607922E+02	3.2500000000E+02	0.000E+00	0.0
	25	2	5	5	0	0	5.3591703181E+00	-4.5380710164E+01	4.1137508187E+01	1.3946511796E+02	1.2518024999E+02	0.000E+00	0.0
	-5	1	9	9	0	501	-1.1464317442E+01	-8.4668568746E+01	9.3810616319E+00	8.6056224790E+01	4.1800000000E+00	0.000E+00	0.0
	5	1	9	9	501	0	1.6823487760E+01	3.9287858581E+01	3.1756446555E+01	5.3408893174E+01	4.1800000000E+00	0.000E+00	0.0
</event>
<event>
    11  -1  1.0000000E+00  1.0000000E+00  -1.0000000E+00  -1.0000000E+00
	2212	-1	0	0	0	0	0.0000000000E+00	0.0000000000E+00	6.5000000000E+03	6.5000000000E+03	9.3827000000E-01	0.000E+00	0.0
	2212	-1	0	0	0	0	0.0000000000E+00	0.0000000000E+00	-6.5000000000E+03	6.5000000000E+03	9.3827000000E-01	0.000E+00	0.0
	2212	1	0	0	0	0	0.0000000000E+00	0.0000000000E+00	6.2366115804E+03	6.2366115804E+03	9.3827000000E-01	0.000E+00	0.0
	2212	1	0	0	0	0	0.0000000000E+00	0.0000000000E+00	-5.4547707195E+03	5.4547707195E+03	9.3827000000E-01	0.000E+00	0.0
	51	2	1	2	0	0	-1.9890965980E+01	-1.9720247451E+01	-9.5268601327E+02	1.4176037288E+03	1.0493832252E+03	0.000E+00	0.0
	1000022	2	5	5	0	0	1.9890965980E+01	1.9720247451E+01	-4.8036388401E+02	9.8098472393E+02	8.5486667314E+02	0.000E+00	0.0
	14	1	6	6	0	0	2.8386022561E+02	5.1409623274E+00	-1.9161904620E+02	4.7217149008E+02	3.2500000000E+02	0.000E+00	0.0
	-14	1	6	6	0	0	-2.6396925963E+02	1.4579285123E+01	-2.8874483781E+02	5.0881323385E+02	3.2500000000E+02	0.000E+00	0.0
	25	2	5	5	0	0	-1.9890965980E+01	-1.9720247451E+01	-3.0147697684E+02	3.2763297615E+02	1.2518171116E+02	0.000E+00	0.0
	-5	1	9	9	0	501	-3.8199604713E+01	-4.8540994231E+01	-2.8069914953E+02	2.8744551287E+02	4.1800000000E+00	0.000E+00	0.0
	5	1	9	9	501	0	1.8308638733E+01	2.8820746780E+01	-2.0777827306E+01	4.0187463279E+01	4.1800000000E+00	0.000E+00	0.0
</event>
<event>
    11  -1  1.0000000E+00  1.0000000E+00  -1.0000000E+00  -1.0000000E+00
	2212	-1	0	0	0	0	0.0000000000E+00	0.0000000000E+00	6.5000000000E+03	6.5000000000E+03	9.3827000000E-01	0.000E+00	0.0
	2212	-1	0	0	0	0	0.0000000000E+00	0.0000000000E+00	-6.5000000000E+03	6.5000000000E+03	9.3827000000E-01	0.000E+00	0.0
	2212	1	0	0	0	0	0.0000000000E+00	0.0000000000E+00	4.8918978074E+03	4.8918978074E+03	9.3827000000E-01	0.000E+00	0.0
	2212	1	0	0	0	0	0.0000000000E+00	0.0000000000E+00	-6.3405694464E+03	6.3405694464E+03	9.3827000000E-01	0.000E+00	0.0
	51	2	1	2	0	0	4.2522940185E+01	-5.2035955603E+00	1.4080030372E+03	1.7348862562E+03	1.0126808439E+03	0.000E+00	0.0
	1000022	2	5	5	0	0	-4.2522940185E+01	5.2035955603E+00	1.2986232545E+03	1.5674843250E+03	8.7678359597E+02	0.000E+00	0.0
	14	1	6	6	0	0	1.0461276113E+02	-1.3803404499E+01	1.6607094588E+02	3.7991962681E+02	3.2500000000E+02	0.000E+00	0.0
	-14	1	6	6	0	0	-1.4713570131E+02	1.9007000059E+01	1.1325523086E+03	1.1875646982E+03	3.2500000000E+02	0.000E+00	0.0
	25	2	5	5	0	0	4.2522940185E+01	-5.2035955603E+00	1.5004838449E+02	2.0004842128E+02	1.2517817429E+02	0.000E+00	0.0
	-5	1	9	9	0	501	7.7137082777E+01	2.5803509810E+01	6.9997770776E+01	1.0739232268E+02	4.1800000000E+00	0.000E+00	0.0
	5	1	9	9	501	0	-3.4614142592E+01	-3.1007105370E+01	8.0050613713E+01	9.2656098594E+01	4.1800000000E+00	0.000E+00	0.0
</event>
<event>
    11  -1  1.0000000E+00  1.0000000E+00  -1.0000000E+00  -1.0000000E+00
	2212	-1	0	0	0	0	0.0000000000E+00	0.0000000000E+00	6.5000000000E+03	6.5000000000E+03	9.3827000000E-01	0.000E+00	0.0
	2212	-1	0	0	0	0	0.0000000000E+00	0.0000000000E+00	-6.5000000000E+03	6.5000000000E+03	9.3827000000E-01	0.000E+00	0.0
	2212	1	0	0	0	0	0.0000000000E+00	0.0000000000E+00	6.1751957866E+03	6.1751957866E+03	9.3827000000E-01	0.000E+00	0.0
	2212	1	0	0	0	0	0.0000000000E+00	0.0000000000E+00	-5.6529934736E+03	5.6529934736E+03	9.3827000000E-01	0.000E+00	0.0
	51	2	1	2	0	0	9.2803412169E+01	-5.2916153907E+01	-4.3031278349E+02	1.1388708612E+03	1.0490210457E+03	0.000E+00	0.0
	1000022	2	5	5	0	0	-9.2803412169E+01	5.2916153907E+01	-5.2605535831E+02	1.0071986448E+03	8.5223369878E+02	0.000E+00	0.0
	14	1	6	6	0	0	-2.3411629012E+02	-1.6259698619E+02	-1.8501186227E+02	4.7021548932E+02	3.2500000000E+02	0.000E+00	0.0
	-14	1	6	6	0	0	1.4131287795E+02	2.1551314009E+02	-3.4104349604E+02	5.3698315543E+02	3.2500000000E+02	0.000E+00	0.0
	25	2	5	5	0	0	9.2803412169E+01	-5.2916153907E+01	3.8530453617E+00	1.6461209505E+02	1.2517868518E+02	0.000E+00	0.0
	-5	1	9	9	0	501	9.7500615585E+01	4.0562592947E+00	2.9190885425E+01	1.0194313842E+02	4.1800000000E+00	0.000E+00	0.0
	5	1	9	9	501	0	-4.6972034152E+00	-5.6972413202E+01	-2.5337840064E+01	6.2668956630E+01	4.1800000000E+00	0.000E+00	0.0
</event>
<event>
    11  -1  1.0000000E+00  1.0000000E+00  -1.0000000E+00  -1.0000000E+00
	2212	-1	0	0	0	0	0.0000000000E+00	0.0000000000E+00	6.5000000000E+03	6.5000000000E+03	9.3827000000E-01	0.000E+00	0.0
	2212	-1	0	0	0	0	0.0000000000E+00	0.0000000000E+00	-6.5000000000E+03	6.5000000000E+03	9.3827000000E-01	0.000E+00	0.0
	2212	1	0	0	0	0	0.0000000000E+00	0.0000000000E+00	5.9685403451E+03	5.9685403451E+03	9.3827000000E-01	0.000E+00	0.0
	2212	1	0	0	0	0	0.0000000000E+00	0.0000000000E+00	-5.9815572842E+03	5.9815572842E+03	9.3827000000E-01	0.000E+00	0.0
	51	2	1	2	0	0	2.1409792025E+01	1.7469926083E+00	1.3428425890E+02	1.0585930477E+03	1.0498216741E+03	0.000E+00	0.0
	1000022	2	5	5	0	0	-2.1409792025E+01	-1.7469926083E+00	-1.1033781052E+02	8.7284664082E+02	8.6557806972E+02	0.000E+00	0.0
	14	1	6	6	0	0	1.1527878381E+02	2.2850666782E+02	-1.7056404270E+02	4.4746126972E+02	3.2500000000E+02	0.000E+00	0.0
	-14	1	6	6	0	0	-1.3668857583E+02	-2.3025366043E+02	6.0226232173E+01	4.2538537110E+02	3.2500000000E+02	0.000E+00	0.0
	25	2	5	5	0	0	2.1409792025E+01	1.7469926083E+00	1.2335474969E+02	1.7705572992E+02	1.2518348953E+02	0.000E+00	0.0
	-5	1	9	9	0	501	7.3764384643E+01	8.0511445177E-01	6.3552938923E+01	9.7459125262E+01	4.1800000000E+00	0.000E+00	0.0
	5	1	9	9	501	0	-5.2354592618E+01	9.4187815650E-01	5.9801810763E+01	7.9596604659E+01	4.1800000000E+00	0.000E+00	0.0
</event>
<event>
    11  -1  1.0000000E+00  1.0000000E+00  -1.0000000E+00  -1.0000000E+00
	2212	-1	0	0	0	0	0.0000000000E+00	0.0000000000E+00	6.5000000000E+03	6.5000000000E+03	9.3827000000E-01	0.000E+00	0.0
	2212	-1	0	0	0	0	0.0000000000E+00	0.0000000000E+00	-6.5000000000E+03	6.5000000000E+03	9.3827000000E-01	0.000E+00	0.0
	2212	1	0	0	0	0	0.0000000000E+00	0.0000000000E+00	6.3296218346E+03	6.3296218346E+03	9.3827000000E-01	0.000E+00	0.0
	2212	1	0	0	0	0	0.0000000000E+00	0.0000000000E+00	-5.0933974217E+03	5.0933974217E+03	9.3827000000E-01	0.000E+00	0.0
	51	2	1	2	0	0	2.6066731330E+01	-2.0603271546E+01	-1.2139290256E+03	1.5599183040E+03	9.7909012185E+02	0.000E+00	0.0
	1000022	2	5	5	0	0	-2.6066731330E+01	2.0603271546E+01	-1.0948415952E+03	1.3852482632E+03	8.4801572084E+02	0.000E+00	0.0
	14	1	6	6	0	0	-1.6261424601E+02	-1.8740128055E+02	-7.3107983435E+02	8.3765467656E+02	3.2500000000E+02	0.000E+00	0.0
	-14	1	6	6	0	0	1.3654751468E+02	2.0800455210E+02	-3.6376176086E+02	5.4759358663E+02	3.2500000000E+02	0.000E+00	0.0
	25	2	5	5	0	0	2.6066731330E+01	-2.0603271546E+01	-1.4138281771E+02	1.9173248045E+02	1.2517297486E+02	0.000E+00	0.0
	-5	1	9	9	0	501	6.6499756866E+01	3.9107888147E+00	-3.5281500348E+01	7.5496811848E+01	4.1800000000E+00	0.000E+00	0.0
	5	1	9	9	501	0	-4.0433025536E+01	-2.4514060361E+01	-1.0610131736E+02	1.1623566860E+02	4.1800000000E+00	0.000E+00	0.0
</event>
<event>
    11  -1  1.0000000E+00  1.0000000E+00  -1.0000000E+00  -1.0000000E+00
	2212	-1	0	0	0	0	0.0000000000E+00	0.0000000000E+00	6.5000000000E+03	6.5000000000E+03	9.3827000000E-01	0.000E+00	0.0
	2212	-1	0	0	0	0	0.0000000000E+00	0.0000000000E+00	-6.5000000000E+03	6.5000000000E+03	9.3827000000E-01	0.000E+00	0.0
	2212	1	0	0	0	0	0.0000000000E+00	0.0000000000E+00	5.9772414742E+03	5.9772414742E+03	9.3827000000E-01	0.000E+00	0.0
	2212	1	0	0	0	0	0.0000000000E+00	0.0000000000E+00	-5.9678219138E+03	5.9678219138E+03	9.3827000000E-01	0.000E+00	0.0
	51	2	1	2	0	0	-9.8797089996E+01	-8.1626121323E+01	6.4240300691E+01	1.0645905467E+03	1.0548945574E+03	0.000E+00	0.0
	1000022	2	5	5	0	0	9.8797089996E+01	8.1626121323E+01	-8.1441602889E+01	8.6185640304E+02	8.4837493840E+02	0.000E+00	0.0
	14	1	6	6	0	0	2.8584796388E+02	-3.1419410514E+01	7.4483747101E+01	4.4030565110E+02	3.2500000000E+02	0.000E+00	0.0
	-14	1	6	6	0	0	-1.8705087388E+02	1.1304553184E+02	-1.5592534999E+02	4.2155075194E+02	3.2500000000E+02	0.000E+00	0.0
	25	2	5	5	0	0	-9.8797089996E+01	-8.1626121323E+01	7.2022042457E+01	1.9308020897E+02	1.2517629097E+02	0.000E+00	0.0
	-5	1	9	9	0	501	-1.1224675810E+02	-7.6493775515E+01	1.8080942207E+01	1.3709494982E+02	4.1800000000E+00	0.000E+00	0.0
	5	1	9	9	501	0	1.3449668101E+01	-5.1323458081E+00	5.3941100249E+01	5.5985259146E+01	4.1800000000E+00	0.000E+00	0.0
</event>
<event>
    11  -1  1.0000000E+00  1.0000000E+00  -1.0000000E+00  -1.0000000E+00
	2212	-1	0	0	0	0	0.0000000000E+00	0.0000000000E+00	6.5000000000E+03	6.5000000000E+03	9.3827000000E-01	0.000E+00	0.0
	2212	-1	0	0	0	0	0.0000000000E+00	0.0000000000E+00	-6.5000000000E+03	6.5000000000E+03	9.3827000000E-01	0.000E+00	0.0
	2212	1	0	0	0	0	0.0000000000E+00	0.0000000000E+00	5.2508682409E+03	5.2508682409E+03	9.3827000000E-01	0.000E+00	0.0
	2212	1	0	0	0	0	0.0000000000E+00	0.0000000000E+00	-6.2793113986E+03	6.2793113986E+03	9.3827000000E-01	0.000E+00	0.0
	51	2	1	2	0	0	1.3693832789E+02	-2.6695126698E+01	9.8431854816E+02	1.4460374487E+03	1.0500840745E+03	0.000E+00	0.0
	1000022	2	5	5	0	0	-1.3693832789E+02	2.6695126698E+01	8.9495185594E+02	1.2397598966E+03	8.4652291252E+02	0.000E+00	0.0
	14	1	6	6	0	0	6.3630671656E+01	5.6906602735E+01	8.9341379058E+01	3.4769829712E+02	3.2500000000E+02	0.000E+00	0.0
	-14	1	6	6	0	0	-2.0056899955E+02	-3.0211476037E+01	8.0561047688E+02	8.9206159951E+02	3.2500000000E+02	0.000E+00	0.0
	25	2	5	5	0	0	1.3693832789E+02	-2.6695126698E+01	1.3349130174E+02	2.3006046381E+02	1.2507259466E+02	0.000E+00	0.0
	-5	1	9	9	0	501	8.1395976804E+01	4.2422080996E+01	3.7286819401E+01	9.9160058981E+01	4.1800000000E+00	0.000E+00	0.0
	5	1	9	9	501	0	5.5542351088E+01	-6.9117207694E+01	9.6204482334E+01	1.3090040483E+02	4.1800000000E+00	0.000E+00	0.0
</event>
<event>
    11  -1  1.0000000E+00  1.0000000E+00  -1.0000000E+00  -1.0000000E+00
	2212	-1	0	0	0	0	0.0000000000E+00	0.0000000000E+00	6.5000000000E+03	6.5000000000E+03	9.3827000000E-01	0.000E+00	0.0
	2212	-1	0	0	0	0	0.0000000000E+00	0.0000000000E+00	-6.5000000000E+03	6.5000000000E+03	9.3827000000E-01	0.000E+00	0.0
	2212	1	0	0	0	0	0.0000000000E+00	0.0000000000E+00	6.2024578333E+03	6.2024578333E+03	9.3827000000E-01	0.000E+00	0.0
	2212	1	0	0	0	0	0.0000000000E+00	0.0000000000E+00	-5.5720119357E+03	5.5720119357E+03	9.3827000000E-01	0.000E+00	0.0
	51	2	1	2	0	0	5.1826287580E+01	1.3602657611E+02	-6.2201970073E+02	1.2298617886E+03	1.0509340214E+03	0.000E+00	0.0
	1000022	2	5	5	0	0	-5.1826287580E+01	-1.3602657611E+02	-5.2952972198E+02	1.0086469169E+03	8.4603645490E+02	0.000E+00	0.0
	14	1	6	6	0	0	-2.4220603574E+01	6.4603572176E+01	-5.3021586004E+02	6.2571088964E+02	3.2500000000E+02	0.000E+00	0.0
	-14	1	6	6	0	0	-2.7605684005E+01	-2.0063014828E+02	6.8613805887E-01	3.8293602726E+02	3.2500000000E+02	0.000E+00	0.0
	25	2	5	5	0	0	5.1826287580E+01	1.3602657611E+02	-1.0091617560E+02	2.1688331414E+02	1.2516031306E+02	0.000E+00	0.0
	-5	1	9	9	0	501	4.6095679080E+01	9.7367052858E+01	-1.2933916945E+02	1.6837828769E+02	4.1800000000E+00	0.000E+00	0.0
	5	1	9	9	501	0	5.7306085000E+00	3.8659523251E+01	2.8422993850E+01	4.8505026452E+01	4.1800000000E+00	0.000E+00	0.0
</event>
<event>
    11  -1  1.0000000E+00  1.0000000E+00  -1.0000000E+00  -1.0000000E+00
	2212	-1	0	0	0	0	0.0000000000E+00	0.0000000000E+00	6.5000000000E+03	6.5000000000E+03	9.3827000000E-01	0.000E+00	0.0
	2212	-1	0	0	0	0	0.0000000000E+00	0.0000000000E+00	-6.5000000000E+03	6.5000000000E+03	9.3827000000E-01	0.000E+00	0.0
	2212	1	0	0	0	0	0.0000000000E+00	0.0000000000E+00	5.8833712623E+03	5.8833712623E+03	9.3827000000E-01	0.000E+00	0.0
	2212	1	0	0	0	0	0.0000000000E+00	0.0000000000E+00	-6.0402792380E+03	6.0402792380E+03	9.3827000000E-01	0.000E+00	0.0
	51	2	1	2	0	0	-3.3268025787E+01	-4.5817850996E+01	3.2895666244E+02	1.1159420484E+03	1.0648512256E+03	0.000E+00	0.0
	1000022	2	5	5	0	0	3.3268025787E+01	4.5817850996E+01	-4.4966735170E+01	8.3215787969E+02	8.2901067089E+02	0.000E+00	0.0
	14	1	6	6	0	0	1.2573464592E+02	-2.0892057092E+02	-4.6815396172E+01	4.0899106036E+02	3.2500000000E+02	0.000E+00	0.0
	-14	1	6	6	0	0	-9.2466620131E+01	2.5473842191E+02	1.8486610026E+00	4.2316681933E+02	3.2500000000E+02	0.000E+00	0.0
	25	2	5	5	0	0	-3.3268025787E+01	-4.5817850996E+01	2.0187471084E+02	2.4419162000E+02	1.2518031550E+02	0.000E+00	0.0
	-5	1	9	9	0	501	-3.9253136136E+01	-6.3991392925E+01	4.8281566952E+01	8.9354849741E+01	4.1800000000E+00	0.000E+00	0.0
	5	1	9	9	501	0	5.9851103488E+00	1.8173541929E+01	1.5359314389E+02	1.5483677025E+02	4.1800000000E+00	0.000E+00	0.0
</event>
<event>
    11  -1  1.0000000E+00  1.0000000E+00  -1.0000000E+00  -1.0000000E+00
	2212	-1	0	0	0	0	0.0000000000E+00	0.0000000000E+00	6.5000000000E+03	6.5000000000E+03	9.3827000000E-01	0.000E+00	0.0
	2212	-1	0	0	0	0	0.0000000000E+00	0.0000000000E+00	-6.5000000000E+03	6.5000000000E+03	9.3827000000E-01	0.000E+00	0.0
	2212	1	0	0	0	0	0.0000000000E+00	0.0000000000E+00	6.3338457226E+03	6.3338457226E+03	9.3827000000E-01	0.000E+00	0.0
	2212	1	0	0	0	0	0.0000000000E+00	0.0000000000E+00	-4.8746203064E+03	4.8746203064E+03	9.3827000000E-01	0.000E+00	0.0
	51	2	1	2	0	0	3.3068065743E+01	-1.2266272689E+02	-1.5002914945E+03	1.8295544168E+03	1.0393532383E+03	0.000E+00	0.0
	1000022	2	5	5	0	0	-3.3068065743E+01	1.2266272689E+02	-1.1776278097E+03	1.4582058921E+03	8.5053954883E+02	0.000E+00	0.0
	14	1	6	6	0	0	1.8576126575E+02	1.6944982089E+02	-8.5461142198E+02	9.4826482178E+02	3.2500000000E+02	0.000E+00	0.0
	-14	1	6	6	0	0	-2.1882933150E+02	-4.6787094002E+01	-3.2301638771E+02	5.0994107034E+02	3.2500000000E+02	0.000E+00	0.0
	25	2	5	5	0	0	3.3068065743E+01	-1.2266272689E+02	-2.8159760649E+02	3.3332807889E+02	1.2518288482E+02	0.000E+00	0.0
	-5	1	9	9	0	501	9.2432105663E+00	-1.3250737595E+02	-1.5548657168E+02	2.0454140901E+02	4.1800000000E+00	0.000E+00	0.0
	5	1	9	9	501	0	2.3824855177E+01	9.8446490625E+00	-1.2611103480E+02	1.2878666988E+02	4.1800000000E+00	0.000E+00	0.0
</event>
<event>
    11  -1  1.0000000E+00  1.0000000E+00  -1.0000000E+00  -1.0000000E+00
	2212	-1	0	0	0	0	0.0000000000E+00	0.0000000000E+00	6.5000000000E+03	6.5000000000E+03	9.3827000000E-01	0.000E+00	0.0
	2212	-1	0	0	0	0	0.0000000000E+00	0.0000000000E+00	-6.5000000000E+03	6.5000000000E+03	9.3827000000E-01	0.000E+00	0.0
	2212	1	0	0	0	0	0.0000000000E+00	0.0000000000E+00	5.6723686047E+03	5.6723686047E+03	9.3827000000E-01	0.000E+00	0.0
	2212	1	0	0	0	0	0.0000000000E+00	0.0000000000E+00	-6.1656781621E+03	6.1656781621E+03	9.3827000000E-01	0.000E+00	0.0
	51	2	1	2	0	0	1.0080991462E+02	7.5754911807E+01	4.1631628792E+02	1.1384207016E+03	1.0520365947E+03	0.000E+00	0.0
	1000022	2	5	5	0	0	-1.0080991462E+02	-7.5754911807E+01	4.8479237963E+02	9.8407239412E+02	8.4703800386E+02	0.000E+00	0.0
	14	1	6	6	0	0	-1.7824675805E+02	-1.9129068983E+02	4.4592842295E+01	4.1949678945E+02	3.2500000000E+02	0.000E+00	0.0
	-14	1	6	6	0	0	7.7436843433E+01	1.1553577802E+02	4.4019953733E+02	5.6457560467E+02	3.2500000000E+02	0.000E+00	0.0
	25	2	5	5	0	0	1.0080991462E+02	7.5754911807E+01	8.5171778129E+00	1.7788083907E+02	1.2517030415E+02	0.000E+00	0.0
	-5	1	9	9	0	501	-2.3770288465E+01	4.2153305465E+01	1.8436811257E+00	4.8608634371E+01	4.1800000000E+00	0.000E+00	0.0
	5	1	9	9	501	0	1.2458020308E+02	3.3601606342E+01	6.6734966872E+00	1.2927220470E+02	4.1800000000E+00	0.000E+00	0.0
</event>
<event>
    11  -1  1.0000000E+00  1.0000000E+00  -1.0000000E+00  -1.0000000E+00
	2212	-1	0	0	0	0	0.0000000000E+00	0.0000000000E+00	6.5000000000E+03	6.5000000000E+03	9.3827000000E-01	0.000E+00	0.0
	2212	-1	0	0	0	0	0.0000000000E+00	0.0000000000E+00	-6.5000000000E+03	6.5000000000E+03	9.3827000000E-01	0.000E+00	0.0
	2212	1	0	0	0	0	0.0000000000E+00	0.0000000000E+00	6.3209846231E+03	6.3209846231E+03	9.3827000000E-01	0.000E+00	0.0
	2212	1	0	0	0	0	0.0000000000E+00	0.0000000000E+00	-4.9754505369E+03	4.9754505369E+03	9.3827000000E-01	0.000E+00	0.0
	51	2	1	2	0	0	1.9588251716E+01	5.0530241772E+01	-1.5630356730E+03	1.8808744527E+03	1.0448306976E+03	0.000E+00	0.0
	1000022	2	5	5	0	0	-1.9588251716E+01	-5.0530241772E+01	-9.0021907845E+02	1.2378233413E+03	8.4786510134E+02	0.000E+00	0.0
	14	1	6	6	0	0	-1.6018295781E+02	-2.4965938638E+02	-5.2257340501E+02	6.8315177874E+02	3.2500000000E+02	0.000E+00	0.0
	-14	1	6	6	0	0	1.4059470610E+02	1.9912914460E+02	-3.7764567344E+02	5.5467156253E+02	3.2500000000E+02	0.000E+00	0.0
	25	2	5	5	0	0	1.9588251716E+01	5.0530241772E+01	-4.4531500778E+02	4.6574149868E+02	1.2519058471E+02	0.000E+00	0.0
	-5	1	9	9	0	501	-3.8877139087E+00	1.7356180546E+01	2.8446909068E-01	1.8273057906E+01	4.1800000000E+00	0.000E+00	0.0
	5	1	9	9	501	0	2.3475965624E+01	3.3174061226E+01	-4.4559947687E+02	4.4746844078E+02	4.1800000000E+00	0.000E+00	0.0
</event>
<event>
    11  -1  1.0000000E+00  1.0000000E+00  -1.0000000E+00  -1.0000000E+00
	2212	-1	0	0	0	0	0.0000000000E+00	0.0000000000E+00	6.5000000000E+03	6.5000000000E+03	9.3827000000E-01	0.000E+00	0.0
	2212	-1	0	0	0	0	0.0000000000E+00	0.0000000000E+00	-6.5000000000E+03	6.5000000000E+03	9.3827000000E-01	0.000E+00	0.0
	2212	1	0	0	0	0	0.0000000000E+00	0.0000000000E+00	6.3406591112E+03	6.3406591112E+03	9.3827000000E-01	0.000E+00	0.0
	2212	1	0	0	0	0	0.0000000000E+00	0.0000000000E+00	-4.9175920183E+03	4.9175920183E+03	9.3827000000E-01	0.000E+00	0.0
	51	2	1	2	0	0	-4.1916252525E+01	-2.2145495295E+01	-1.5600728570E+03	1.8559751861E+03	1.0042754488E+03	0.000E+00	0.0
	1000022	2	5	5	0	0	4.1916252525E+01	2.2145495295E+01	-1.0737414471E+03	1.3676557391E+03	8.4576245503E+02	0.000E+00	0.0
	14	1	6	6	0	0	2.3670893037E+02	-1.5173206744E+02	-5.6731721796E+02	7.1170749877E+02	3.2500000000E+02	0.000E+00	0.0
	-14	1	6	6	0	0	-1.9479267785E+02	1.7387756273E+02	-5.0642422909E+02	6.5594824032E+02	3.2500000000E+02	0.000E+00	0.0
	25	2	5	5	0	0	-4.1916252525E+01	-2.2145495295E+01	-3.4932564584E+02	3.7409313144E+02	1.2517934718E+02	0.000E+00	0.0
	-5	1	9	9	0	501	-7.3869878189E+01	2.3742786689E+01	-1.9658717494E+02	2.1138701137E+02	4.1800000000E+00	0.000E+00	0.0
	5	1	9	9	501	0	3.1953625664E+01	-4.5888281984E+01	-1.5273847089E+02	1.6270612007E+02	4.1800000000E+00	0.000E+00	0.0
</event>
<event>
    11  -1  1.0000000E+00  1.0000000E+00  -1.0000000E+00  -1.0000000E+00
	2212	-1	0	0	0	0	0.0000000000E+00	0.0000000000E+00	6.5000000000E+03	6.5000000000E+03	9.3827000000E-01	0.000E+00	0.0
	2212	-1	0	0	0	0	0.0000000000E+00	0.0000000000E+00	-6.5000000000E+03	6.5000000000E+03	9.3827000000E-01	0.000E+00	0.0
	2212	1	0	0	0	0	0.0000000000E+00	0.0000000000E+00	6.1696700875E+03	6.1696700875E+03	9.3827000000E-01	0.000E+00	0.0
	2212	1	0	0	0	0	0.0000000000E+00	0.0000000000E+00	-5.6998790328E+03	5.6998790328E+03	9.3827000000E-01	0.000E+00	0.0
	51	2	1	2	0	0	7.4987594929E+01	6.5090205124E+01	-4.8260240914E+02	1.1401668807E+03	1.0282098795E+03	0.000E+00	0.0
	1000022	2	5	5	0	0	-7.4987594929E+01	-6.5090205124E+01	-3.8604804903E+02	9.5005315377E+02	8.6238507909E+02	0.000E+00	0.0
	14	1	6	6	0	0	1.3445734218E+02	-2.5333201343E+02	-1.4494849464E+02	4.5704589703E+02	3.2500000000E+02	0.000E+00	0.0
	-14	1	6	6	0	0	-2.0944493711E+02	1.8824180831E+02	-2.4109955439E+02	4.9300725674E+02	3.2500000000E+02	0.000E+00	0.0
	25	2	5	5	0	0	7.4987594929E+01	6.5090205124E+01	-8.3743005696E+01	1.8039772595E+02	1.2518216458E+02	0.000E+00	0.0
	-5	1	9	9	0	501	-1.8552173806E+01	3.3499986683E+01	-7.0978785774E+01	8.0758236055E+01	4.1800000000E+00	0.000E+00	0.0
	5	1	9	9	501	0	9.3539768735E+01	3.1590218441E+01	-1.2764219921E+01	9.9639489894E+01	4.1800000000E+00	0.000E+00	0.0
</event>
<event>
    11  -1  1.0000000E+00  1.0000000E+00  -1.0000000E+00  -1.0000000E+00
	2212	-1	0	0	0	0	0.0000000000E+00	0.0000000000E+00	6.5000000000E+03	6.5000000000E+03	9.3827000000E-01	0.000E+00	0.0
	2212	-1	0	0	0	0	0.0000000000E+00	0.0000000000E+00	-6.5000000000E+03	6.5000000000E+03	9.3827000000E-01	0.000E+00	0.0
	2212	1	0	0	0	0	0.0000000000E+00	0.0000000000E+00	6.0387229572E+03	6.0387229572E+03	9.3827000000E-01	0.000E+00	0.0
	2212	1	0	0	0	0	0.0000000000E+00	0.0000000000E+00	-5.8458188425E+03	5.8458188425E+03	9.3827000000E-01	0.000E+00	0.0
	51	2	1	2	0	0	1.6677120855E+02	-6.0986547680E+01	-1.2084308518E+02	1.1194507784E+03	1.0986514456E+03	0.000E+00	0.0
	1000022	2	5	5	0	0	-1.6677120855E+02	6.0986547680E+01	-2.2760681156E+02	8.9544296947E+02	8.4763273645E+02	0.000E+00	0.0
	14	1	6	6	0	0	4.4807379579E+01	1.9370781148E+02	7.1995449320E+01	3.8773542812E+02	3.2500000000E+02	0.000E+00	0.0
	-14	1	6	6	0	0	-2.1157858813E+02	-1.3272126380E+02	-2.9960226088E+02	5.0770754135E+02	3.2500000000E+02	0.000E+00	0.0
	25	2	5	5	0	0	1.6677120855E+02	-6.0986547680E+01	3.4702696840E+01	2.2001523076E+02	1.2518158650E+02	0.000E+00	0.0
	-5	1	9	9	0	501	1.0279043654E+02	-3.3205162018E+01	-4.2255222112E+01	1.1606650173E+02	4.1800000000E+00	0.000E+00	0.0
	5	1	9	9	501	0	6.3980772008E+01	-2.7781385662E+01	7.6957918952E+01	1.0394872902E+02	4.1800000000E+00	0.000E+00	0.0
</event>
<event>
    11  -1  1.0000000E+00  1.0000000E+00  -1.0000000E+00  -1.0000000E+00
	2212	-1	0	0	0	0	0.0000000000E+00	0.0000000000E+00	6.5000000000E+03	6.5000000000E+03	9.3827000000E-01	0.000E+00	0.0
	2212	-1	0	0	0	0	0.0000000000E+00	0.0000000000E+00	-6.5000000000E+03	6.5000000000E+03	9.3827000000E-01	0.000E+00	0.0
	2212	1	0	0	0	0	0.0000000000E+00	0.0000000000E+00	6.1597700375E+03	6.1597700375E+03	9.3827000000E-01	0.000E+00	0.0
	2212	1	0	0	0	0	0.0000000000E+00	0.0000000000E+00	-5.7445191997E+03	5.7445191997E+03	9.3827000000E-01	0.000E+00	0.0
	51	2	1	2	0	0	6.7827199187E+01	-6.4450294099E+01	-4.3562402255E+02	1.1075520195E+03	1.0139767342E+03	0.000E+00	0.0
	1000022	2	5	5	0	0	-6.7827199187E+01	6.4450294099E+01	-3.3230631208E+02	9.1876426009E+02	8.5143755568E+02	0.000E+00	0.0
	14	1	6	6	0	0	1.3243708472E+02	2.0033451731E+02	-3.1641666296E+02	5.1324263739E+02	3.2500000000E+02	0.000E+00	0.0
	-14	1	6	6	0	0	-2.0026428391E+02	-1.3588422321E+02	-1.5889649121E+01	4.0552162270E+02	3.2500000000E+02	0.000E+00	0.0
	25	2	5	5	0	0	6.7827199187E+01	-6.4450294099E+01	-8.2944525726E+01	1.7694650272E+02	1.2520343892E+02	0.000E+00	0.0
	-5	1	9	9	0	501	7.8781318600E+01	-9.4128514854E+01	-5.5161803317E+01	1.3463643791E+02	4.1800000000E+00	0.000E+00	0.0
	5	1	9	9	501	0	-1.0954119413E+01	2.9678220755E+01	-2.7782722409E+01	4.2310064804E+01	4.1800000000E+00	0.000E+00	0.0
</event>
<event>
    11  -1  1.0000000E+00  1.0000000E+00  -1.0000000E+00  -1.0000000E+00
	2212	-1	0	0	0	0	0.0000000000E+00	0.0000000000E+00	6.5000000000E+03	6.5000000000E+03	9.3827000000E-01	0.000E+00	0.0
	2212	-1	0	0	0	0	0.0000000000E+00	0.0000000000E+00	-6.5000000000E+03	6.5000000000E+03	9.3827000000E-01	0.000E+00	0.0
	2212	1	0	0	0	0	0.0000000000E+00	0.0000000000E+00	5.2080671418E+03	5.2080671418E+03	9.3827000000E-01	0.000E+00	0.0
	2212	1	0	0	0	0	0.0000000000E+00	0.0000000000E+00	-6.2853758561E+03	6.2853758561E+03	9.3827000000E-01	0.000E+00	0.0
	51	2	1	2	0	0	1.3464489644E+02	-3.6008137060E+01	1.0420727090E+03	1.4881066156E+03	1.0531476319E+03	0.000E+00	0.0
	1000022	2	5	5	0	0	-1.3464489644E+02	3.6008137060E+01	9.2808139072E+02	1.2670455655E+03	8.5125998566E+02	0.000E+00	0.0
	14	1	6	6	0	0	-1.2541003077E+02	2.7198567241E+02	6.1692759653E+02	7.5889955934E+02	3.2500000000E+02	0.000E+00	0.0
	-14	1	6	6	0	0	-9.2348656750E+00	-2.3597753535E+02	3.1115379419E+02	5.0814600616E+02	3.2500000000E+02	0.000E+00	0.0
	25	2	5	5	0	0	1.3464489644E+02	-3.6008137060E+01	1.4922732367E+02	2.3951143661E+02	1.2518426444E+02	0.000E+00	0.0
	-5	1	9	9	0	501	-3.3251107383E+00	-1.7387661482E+01	-1.5424741249E+01	2.3849154615E+01	4.1800000000E+00	0.000E+00	0.0
	5	1	9	9	501	0	1.3797000718E+02	-1.8620475578E+01	1.6465206492E+02	2.1566228199E+02	4.1800000000E+00	0.000E+00	0.0
</event>
<event>
    11  -1  1.0000000E+00  1.0000000E+00  -1.0000000E+00  -1.0000000E+00
	2212	-1	0	0	0	0	0.0000000000E+00	0.0000000000E+00	6.5000000000E+03	6.5000000000E+03	9.3827000000E-01	0.000E+00	0.0
	2212	-1	0	0	0	0	0.0000000000E+00	0.0000000000E+00	-6.5000000000E+03	6.5000000000E+03	9.3827000000E-01	0.000E+00	0.0
	2212	1	0	0	0	0	0.0000000000E+00	0.0000000000E+00	6.1632467033E+03	6.1632467033E+03	9.3827000000E-01	0.000E+00	0.0
	2212	1	0	0	0	0	0.0000000000E+00	0.0000000000E+00	-5.6818125369E+03	5.6818125369E+03	9.3827000000E-01	0.000E+00	0.0
	51	2	1	2	0	0	8.6219883656E+01	7.4213091250E+01	-3.7505817330E+02	1.1205888570E+03	1.0498139368E+03	0.000E+00	0.0
	1000022	2	5	5	0	0	-8.6219883656E+01	-7.4213091250E+01	-5.0243570469E+02	9.8448285739E+02	8.3894183821E+02	0.000E+00	0.0
	14	1	6	6	0	0	2.4612590848E+01	3.4249752423E+01	-5.3020247173E+02	6.2331251086E+02	3.2500000000E+02	0.000E+00	0.0
	-14	1	6	6	0	0	-1.1083247450E+02	-1.0846284367E+02	2.7766767037E+01	3.6117034653E+02	3.2500000000E+02	0.000E+00	0.0
	25	2	5	5	0	0	8.6219883656E+01	7.4213091250E+01	2.1001538262E+01	1.7045790235E+02	1.2519337288E+02	0.000E+00	0.0
	-5	1	9	9	0	501	4.7601435192E+01	5.7875146646E+01	-4.8370727806E+01	8.9289579124E+01	4.1800000000E+00	0.000E+00	0.0
	5	1	9	9	501	0	3.8618448463E+01	1.6337944604E+01	6.9372266068E+01	8.1168323224E+01	4.1800000000E+00	0.000E+00	0.0
</event>
<event>
    11  -1  1.0000000E+00  1.0000000E+00  -1.0000000E+00  -1.0000000E+00
	2212	-1	0	0	0	0	0.0000000000E+00	0.0000000000E+00	6.5000000000E+03	6.5000000000E+03	9.3827000000E-01	0.000E+00	0.0
	2212	-1	0	0	0	0	0.0000000000E+00	0.0000000000E+00	-6.5000000000E+03	6.5000000000E+03	9.3827000000E-01	0.000E+00	0.0
	2212	1	0	0	0	0	0.0000000000E+00	0.0000000000E+00	5.9427039274E+03	5.9427039274E+03	9.3827000000E-01	0.000E+00	0.0
	2212	1	0	0	0	0	0.0000000000E+00	0.0000000000E+00	-6.0036367424E+03	6.0036367424E+03	9.3827000000E-01	0.000E+00	0.0
	51	2	1	2	0	0	-4.5083615745E+01	-1.1121434581E+02	-1.5989530013E+01	1.0588399333E+03	1.0518959911E+03	0.000E+00	0.0
	1000022	2	5	5	0	0	4.5083615745E+01	1.1121434581E+02	1.2741461790E+02	8.6793931248E+02	8.5010764152E+02	0.000E+00	0.0
	14	1	6	6	0	0	7.4851266926E+01	4.0408150098E+01	3.3523874075E+02	4.7460040461E+02	3.2500000000E+02	0.000E+00	0.0
	-14	1	6	6	0	0	-2.9767651181E+01	7.0806195717E+01	-2.0782412285E+02	3.9333890787E+02	3.2500000000E+02	0.000E+00	0.0
	25	2	5	5	0	0	-4.5083615745E+01	-1.1121434581E+02	-6.6481802828E+01	1.8572001771E+02	1.2518359217E+02	0.000E+00	0.0
	-5	1	9	9	0	501	-7.7892190890E+01	-7.3198513910E+01	-7.9967849432E+01	1.3355727304E+02	4.1800000000E+00	0.000E+00	0.0
	5	1	9	9	501	0	3.2808575145E+01	-3.8015831904E+01	1.3486046605E+01	5.2162744670E+01	4.1800000000E+00	0.000E+00	0.0
</event>
<event>
    11  -1  1.0000000E+00  1.0000000E+00  -1.0000000E+00  -1.0000000E+00
	2212	-1	0	0	0	0	0.0000000000E+00	0.0000000000E+00	6.5000000000E+03	6.5000000000E+03	9.3827000000E-01	0.000E+00	0.0
	2212	-1	0	0	0	0	0.0000000000E+00	0.0000000000E+00	-6.5000000000E+03	6.5000000000E+03	9.3827000000E-01	0.000E+00	0.0
	2212	1	0	0	0	0	0.0000000000E+00	0.0000000000E+00	5.6400419791E+03	5.6400419791E+03	9.3827000000E-01	0.000E+00	0.0
	2212	1	0	0	0	0	0.0000000000E+00	0.0000000000E+00	-6.1584174950E+03	6.1584174950E+03	9.3827000000E-01	0.000E+00	0.0
	51	2	1	2	0	0	-4.8435406513E+00	-1.5228570483E+02	6.2090038176E+02	1.2584586364E+03	1.0839679237E+03	0.000E+00	0.0
	1000022	2	5	5	0	0	4.8435406513E+00	1.5228570483E+02	3.1965441448E+02	9.2164954715E+02	8.5090807217E+02	0.000E+00	0.0
	14	1	6	6	0	0	1.0686775690E+02	-8.9117959983E+01	3.5705962605E+02	5.0247318815E+02	3.2500000000E+02	0.000E+00	0.0
	-14	1	6	6	0	0	-1.0202421625E+02	2.4140366482E+02	-3.7405211572E+01	4.1917635900E+02	3.2500000000E+02	0.000E+00	0.0
	25	2	5	5	0	0	-4.8435406513E+00	-1.5228570483E+02	1.9872110146E+02	2.7989097869E+02	1.2503794626E+02	0.000E+00	0.0
	-5	1	9	9	0	501	3.7218177510E+01	-1.2207500353E+02	1.8731608830E+02	2.2669867348E+02	4.1800000000E+00	0.000E+00	0.0
	5	1	9	9	501	0	-4.2061718162E+01	-3.0210701302E+01	1.1405013161E+01	5.3192305205E+01	4.1800000000E+00	0.000E+00	0.0
</event>
<event>
    11  -1  1.0000000E+00  1.0000000E+00  -1.0000000E+00  -1.0000000E+00
	2212	-1	0	0	0	0	0.0000000000E+00	0.0000000000E+00	6.5000000000E+03	6.5000000000E+03	9.3827000000E-01	0.000E+00	0.0
	2212	-1	0	0	0	0	0.0000000000E+00	0.0000000000E+00	-6.5000000000E+03	6.5000000000E+03	9.3827000000E-01	0.000E+00	0.0
	2212	1	0	0	0	0	0.0000000000E+00	0.0000000000E+00	5.9072599006E+03	5.9072599006E+03	9.3827000000E-01	0.000E+00	0.0
	2212	1	0	0	0	0	0.0000000000E+00	0.0000000000E+00	-6.0352352452E+03	6.0352352452E+03	9.3827000000E-01	0.000E+00	0.0
	51	2	1	2	0	0	-9.5466873683E+01	9.8813332151E+01	8.7840878010E+01	1.0623242660E+03	1.0497327411E+03	0.000E+00	0.0
	1000022	2	5	5	0	0	9.5466873683E+01	-9.8813332151E+01	1.4609323122E+02	8.7075477143E+02	8.4734446430E+02	0.000E+00	0.0
	14	1	6	6	0	0	-8.4551077743E+01	-1.2898500671E+01	3.0858160789E+02	4.5624868745E+02	3.2500000000E+02	0.000E+00	0.0
	-14	1	6	6	0	0	1.8001795143E+02	-8.5914831480E+01	-1.6248837667E+02	4.1450608398E+02	3.2500000000E+02	0.000E+00	0.0
	25	2	5	5	0	0	-9.5466873683E+01	9.8813332151E+01	-1.8117886562E+01	1.8675008276E+02	1.2517722243E+02	0.000E+00	0.0
	-5	1	9	9	0	501	-5.6452428296E+01	1.2599145746E+02	-1.4475386889E+01	1.3888028384E+02	4.1800000000E+00	0.000E+00	0.0
	5	1	9	9	501	0	-3.9014445388E+01	-2.7178125312E+01	-3.6424996730E+00	4.7869798916E+01	4.1800000000E+00	0.000E+00	0.0
</event>
<event>
    11  -1  1.0000000E+00  1.0000000E+00  -1.0000000E+00  -1.0000000E+00
	2212	-1	0	0	0	0	0.0000000000E+00	0.0000000000E+00	6.5000000000E+03	6.5000000000E+03	9.3827000000E-01	0.000E+00	0.0
	2212	-1	0	0	0	0	0.0000000000E+00	0.0000000000E+00	-6.5000000000E+03	6.5000000000E+03	9.3827000000E-01	0.000E+00	0.0
	2212	1	0	0	0	0	0.0000000000E+00	0.0000000000E+00	5.0834688248E+03	5.0834688248E+03	9.3827000000E-01	0.000E+00	0.0
	2212	1	0	0	0	0	0.0000000000E+00	0.0000000000E+00	-6.3096980752E+03	6.3096980752E+03	9.3827000000E-01	0.000E+00	0.0
	51	2	1	2	0	0	-6.6335406360E+01	8.7917038854E+01	1.1505262524E+03	1.5537422199E+03	1.0383999406E+03	0.000E+00	0.0
	1000022	2	5	5	0	0	6.6335406360E+01	-8.7917038854E+01	1.1033634266E+03	1.3997222637E+03	8.5421412569E+02	0.000E+00	0.0
	14	1	6	6	0	0	-2.2121977351E+02	5.4222272746E+01	6.0738414789E+02	7.2554720464E+02	3.2500000000E+02	0.000E+00	0.0
	-14	1	6	6	0	0	2.8755517987E+02	-1.4213931160E+02	4.9597927873E+02	6.7417505909E+02	3.2500000000E+02	0.000E+00	0.0
	25	2	5	5	0	0	-6.6335406360E+01	8.7917038854E+01	1.2286582381E+02	2.0711083624E+02	1.2517625961E+02	0.000E+00	0.0
	-5	1	9	9	0	501	-3.4598009497E+01	1.1402445129E+02	6.4362245294E+01	1.3549379607E+02	4.1800000000E+00	0.000E+00	0.0
	5	1	9	9	501	0	-3.1737396863E+01	-2.6107412440E+01	5.8503578514E+01	7.1617040171E+01	4.1800000000E+00	0.000E+00	0.0
</event>
<event>
    11  -1  1.0000000E+00  1.0000000E+00  -1.0000000E+00  -1.0000000E+00
	2212	-1	0	0	0	0	0.0000000000E+00	0.0000000000E+00	6.5000000000E+03	6.5000000000E+03	9.3827000000E-01	0.000E+00	0.0
	2212	-1	0	0	0	0	0.0000000000E+00	0.0000000000E+00	-6.5000000000E+03	6.5000000000E+03	9.3827000000E-01	0.000E+00	0.0
	2212	1	0	0	0	0	0.0000000000E+00	0.0000000000E+00	5.7272884761E+03	5.7272884761E+03	9.3827000000E-01	0.000E+00	0.0
	2212	1	0	0	0	0	0.0000000000E+00	0.0000000000E+00	-6.1395894204E+03	6.1395894204E+03	9.3827000000E-01	0.000E+00	0.0
	51	2	1	2	0	0	6.5222907056E+01	-4.6146103998E+01	5.4908688370E+02	1.1924149987E+03	1.0554494932E+03	0.000E+00	0.0
	1000022	2	5	5	0	0	-6.5222907056E+01	4.6146103998E+01	2.0401361661E+02	8.7732273726E+02	8.4952347763E+02	0.000E+00	0.0
	14	1	6	6	0	0	1.4043421691E+01	1.8554188419E+02	3.2437949437E+02	4.9544935650E+02	3.2500000000E+02	0.000E+00	0.0
	-14	1	6	6	0	0	-7.9266328748E+01	-1.3939578020E+02	-1.2036587776E+02	3.8187338077E+02	3.2500000000E+02	0.000E+00	0.0
	25	2	5	5	0	0	6.5222907056E+01	-4.6146103998E+01	2.0828732772E+02	2.5579936621E+02	1.2516474882E+02	0.000E+00	0.0
	-5	1	9	9	0	501	-3.2776766789E+01	-1.2811427273E+01	9.9281273173E+01	1.0541675727E+02	4.1800000000E+00	0.000E+00	0.0
	5	1	9	9	501	0	9.7999673845E+01	-3.3334676725E+01	1.0900605455E+02	1.5038260895E+02	4.1800000000E+00	0.000E+00	0.0
</event>
<event>
    11  -1  1.0000000E+00  1.0000000E+00  -1.0000000E+00  -1.0000000E+00
	2212	-1	0	0	0	0	0.0000000000E+00	0.0000000000E+00	6.5000000000E+03	6.5000000000E+03	9.3827000000E-01	0.000E+00	0.0
	2212	-1	0	0	0	0	0.0000000000E+00	0.0000000000E+00	-6.5000000000E+03	6.5000000000E+03	9.3827000000E-01	0.000E+00	0.0
	2212	1	0	0	0	0	0.0000000000E+00	0.0000000000E+00	6.1592514942E+03	6.1592514942E+03	9.3827000000E-01	0.000E+00	0.0
	2212	1	0	0	0	0	0.0000000000E+00	0.0000000000E+00	-5.6881835292E+03	5.6881835292E+03	9.3827000000E-01	0.000E+00	0.0
	51	2	1	2	0	0	-1.1044613815E+02	-9.3791279345E+01	-4.8280225920E+02	1.1664451005E+03	1.0519035115E+03	0.000E+00	0.0
	1000022	2	5	5	0	0	1.1044613815E+02	9.3791279345E+01	-3.7798298556E+02	9.3964361511E+02	8.4797631602E+02	0.000E+00	0.0
	14	1	6	6	0	0	3.6369962994E+01	1.4298386254E+02	-4.7018561611E+02	5.9031065783E+02	3.2500000000E+02	0.000E+00	0.0
	-14	1	6	6	0	0	7.4076175155E+01	-4.9192583194E+01	9.2202630541E+01	3.4933295729E+02	3.2500000000E+02	0.000E+00	0.0
	25	2	5	5	0	0	-1.1044613815E+02	-9.3791279345E+01	-9.3084979466E+01	2.1292136143E+02	1.2520199375E+02	0.000E+00	0.0
	-5	1	9	9	0	501	-6.3830947214E+01	-7.9326428941E+01	6.3212250405E+00	1.0210045268E+02	4.1800000000E+00	0.000E+00	0.0
	5	1	9	9	501	0	-4.6615190935E+01	-1.4464850405E+01	-9.9406204506E+01	1.1082090876E+02	4.1800000000E+00	0.000E+00	0.0
</event>
<event>
    11  -1  1.0000000E+00  1.0000000E+00  -1.0000000E+00  -1.0000000E+00
	2212	-1	0	0	0	0	0.0000000000E+00	0.0000000000E+00	6.5000000000E+03	6.5000000000E+03	9.3827000000E-01	0.000E+00	0.0
	2212	-1	0	0	0	0	0.0000000000E+00	0.0000000000E+00	-6.5000000000E+03	6.5000000000E+03	9.3827000000E-01	0.000E+00	0.0
	2212	1	0	0	0	0	0.0000000000E+00	0.0000000000E+00	5.7265221083E+03	5.7265221083E+03	9.3827000000E-01	0.000E+00	0.0
	2212	1	0	0	0	0	0.0000000000E+00	0.0000000000E+00	-6.1428418958E+03	6.1428418958E+03	9.3827000000E-01	0.000E+00	0.0
	51	2	1	2	0	0	8.4318567406E+01	4.0833433766E+01	5.4051595670E+02	1.1857276582E+03	1.0511972174E+03	0.000E+00	0.0
	1000022	2	5	5	0	0	-8.4318567406E+01	-4.0833433766E+01	2.1999381138E+02	8.7965511933E+02	8.4653343809E+02	0.000E+00	0.0
	14	1	6	6	0	0	-2.3969624534E+02	-1.0591274628E+01	3.0753188279E+02	5.0770791215E+02	3.2500000000E+02	0.000E+00	0.0
	-14	1	6	6	0	0	1.5537767793E+02	-3.0242159138E+01	-8.7538071406E+01	3.7194720719E+02	3.2500000000E+02	0.000E+00	0.0
	25	2	5	5	0	0	8.4318567406E+01	4.0833433766E+01	1.9632597612E+02	2.5098087661E+02	1.2518195317E+02	0.000E+00	0.0
	-5	1	9	9	0	501	3.8763226089E+01	5.7817060771E+01	1.8922981917E+02	2.0167002028E+02	4.1800000000E+00	0.000E+00	0.0
	5	1	9	9	501	0	4.5555341317E+01	-1.6983627005E+01	7.0961569469E+00	4.9310856332E+01	4.1800000000E+00	0.000E+00	0.0
</event>
<event>
    11  -1  1.0000000E+00  1.0000000E+00  -1.0000000E+00  -1.0000000E+00
	2212	-1	0	0	0	0	0.0000000000E+00	0.0000000000E+00	6.5000000000E+03	6.5000000000E+03	9.3827000000E-01	0.000E+00	0.0
	2212	-1	0	0	0	0	0.0000000000E+00	0.0000000000E+00	-6.5000000000E+03	6.5000000000E+03	9.3827000000E-01	0.000E+00	0.0
	2212	1	0	0	0	0	0.0000000000E+00	0.0000000000E+00	5.9917184971E+03	5.9917184971E+03	9.3827000000E-01	0.000E+00	0.0
	2212	1	0	0	0	0	0.0000000000E+00	0.0000000000E+00	-5.9580827020E+03	5.9580827020E+03	9.3827000000E-01	0.000E+00	0.0
	51	2	1	2	0	0	-1.5040016920E+01	-7.8642254273E+01	7.9430835457E+01	1.0557017660E+03	1.0496600187E+03	0.000E+00	0.0
	1000022	2	5	5	0	0	1.5040016920E+01	7.8642254273E+01	-1.4100685040E+02	8.6686485784E+02	8.5156382241E+02	0.000E+00	0.0
	14	1	6	6	0	0	4.8662249643E+01	-1.0621498216E+02	-3.0163580148E+02	4.5853984964E+02	3.2500000000E+02	0.000E+00	0.0
	-14	1	6	6	0	0	-3.3622232723E+01	1.8485723644E+02	1.6062895108E+02	4.0832500820E+02	3.2500000000E+02	0.000E+00	0.0
	25	2	5	5	0	0	-1.5040016920E+01	-7.8642254273E+01	1.0737105528E+02	1.8333394313E+02	1.2518779863E+02	0.000E+00	0.0
	-5	1	9	9	0	501	-1.0224737500E+01	-1.0526012159E+02	4.4593543817E+01	1.1484900959E+02	4.1800000000E+00	0.000E+00	0.0
	5	1	9	9	501	0	-4.8152794205E+00	2.6617867316E+01	6.2777511462E+01	6.8484933538E+01	4.1800000000E+00	0.000E+00	0.0
</event>
<event>
    11  -1  1.0000000E+00  1.0000000E+00  -1.0000000E+00  -1.0000000E+00
	2212	-1	0	0	0	0	0.0000000000E+00	0.0000000000E+00	6.5000000000E+03	6.5000000000E+03	9.3827000000E-01	0.000E+00	0.0
	2212	-1	0	0	0	0	0.0000000000E+00	0.0000000000E+00	-6.5000000000E+03	6.5000000000E+03	9.3827000000E-01	0.000E+00	0.0
	2212	1	0	0	0	0	0.0000000000E+00	0.0000000000E+00	5.9376331267E+03	5.9376331267E+03	9.3827000000E-01	0.000E+00	0.0
	2212	1	0	0	0	0	0.0000000000E+00	0.0000000000E+00	-6.0123344359E+03	6.0123344359E+03	9.3827000000E-01	0.000E+00	0.0
	51	2	1	2	0	0	-9.0347586784E+01	8.3226489661E+01	1.0507775803E+02	1.0597728551E+03	1.0473718700E+03	0.000E+00	0.0
	1000022	2	5	5	0	0	9.0347586784E+01	-8.3226489661E+01	3.2162105024E+01	8.6932730998E+02	8.6000362549E+02	0.000E+00	0.0
	14	1	6	6	0	0	7.4413356351E+01	-1.7914946794E+02	-2.2796178866E+02	4.4184098560E+02	3.2500000000E+02	0.000E+00	0.0
	-14	1	6	6	0	0	1.5934230432E+01	9.5922978279E+01	2.6012389369E+02	4.2748632438E+02	3.2500000000E+02	0.000E+00	0.0
	25	2	5	5	0	0	-9.0347586784E+01	8.3226489661E+01	4.2539204180E+01	1.8070512750E+02	1.2552061263E+02	0.000E+00	0.0
	-5	1	9	9	0	501	-4.5368712720E+01	8.6078413893E+01	-2.3929157207E+01	1.0028903428E+02	4.1800000000E+00	0.000E+00	0.0
	5	1	9	9	501	0	-4.4978874064E+01	-2.8519242318E+00	6.6468361387E+01	8.0416093224E+01	4.1800000000E+00	0.000E+00	0.0
</event>
<event>
    11  -1  1.0000000E+00  1.0000000E+00  -1.0000000E+00  -1.0000000E+00
	2212	-1	0	0	0	0	0.0000000000E+00	0.0000000000E+00	6.5000000000E+03	6.5000000000E+03	9.3827000000E-01	0.000E+00	0.0
	2212	-1	0	0	0	0	0.0000000000E+00	0.0000000000E+00	-6.5000000000E+03	6.5000000000E+03	9.3827000000E-01	0.000E+00	0.0
	2212	1	0	0	0	0	0.0000000000E+00	0.0000000000E+00	6.2519493363E+03	6.2519493363E+03	9.3827000000E-01	0.000E+00	0.0
	2212	1	0	0	0	0	0.0000000000E+00	0.0000000000E+00	-5.3940780423E+03	5.3940780423E+03	9.3827000000E-01	0.000E+00	0.0
	51	2	1	2	0	0	8.1321085554E+01	-8.0220420596E+01	-9.2734178755E+02	1.4036772877E+03	1.0475202634E+03	0.000E+00	0.0
	1000022	2	5	5	0	0	-8.1321085554E+01	8.0220420596E+01	-6.4981647364E+02	1.0855412233E+03	8.6202660243E+02	0.000E+00	0.0
	14	1	6	6	0	0	-1.8611128314E+02	2.6060302081E+02	-2.1624562077E+02	5.0491436172E+02	3.2500000000E+02	0.000E+00	0.0
	-14	1	6	6	0	0	1.0479019759E+02	-1.8038260021E+02	-4.3357085287E+02	5.8062686161E+02	3.2500000000E+02	0.000E+00	0.0
	25	2	5	5	0	0	8.1321085554E+01	-8.0220420596E+01	-2.0805482038E+02	2.6843139799E+02	1.2538011129E+02	0.000E+00	0.0
	-5	1	9	9	0	501	3.4175494122E+01	3.2450591568E+01	-5.4151626323E+01	7.1908805615E+01	4.1800000000E+00	0.000E+00	0.0
	5	1	9	9	501	0	4.7145591432E+01	-1.1267101216E+02	-1.5390319406E+02	1.9652259238E+02	4.1800000000E+00	0.000E+00	0.0
</event>
<event>
    11  -1  1.0000000E+00  1.0000000E+00  -1.0000000E+00  -1.0000000E+00
	2212	-1	0	0	0	0	0.0000000000E+00	0.0000000000E+00	6.5000000000E+03	6.5000000000E+03	9.3827000000E-01	0.000E+00	0.0
	2212	-1	0	0	0	0	0.0000000000E+00	0.0000000000E+00	-6.5000000000E+03	6.5000000000E+03	9.3827000000E-01	0.000E+00	0.0
	2212	1	0	0	0	0	0.0000000000E+00	0.0000000000E+00	5.8876182583E+03	5.8876182583E+03	9.3827000000E-01	0.000E+00	0.0
	2212	1	0	0	0	0	0.0000000000E+00	0.0000000000E+00	-6.0420187262E+03	6.0420187262E+03	9.3827000000E-01	0.000E+00	0.0
	51	2	1	2	0	0	-1.4914159379E+02	1.2142642375E+01	8.6272938877E+01	1.0731594286E+03	1.0591682966E+03	0.000E+00	0.0
	1000022	2	5	5	0	0	1.4914159379E+02	-1.2142642375E+01	1.9420830504E+02	8.7124368215E+02	8.3603709796E+02	0.000E+00	0.0
	14	1	6	6	0	0	1.0262832499E+02	-1.8118312668E+02	-1.0042155927E+02	3.9883503864E+02	3.2500000000E+02	0.000E+00	0.0
	-14	1	6	6	0	0	4.6513268806E+01	1.6904048430E+02	2.9462986432E+02	4.7240864350E+02	3.2500000000E+02	0.000E+00	0.0
	25	2	5	5	0	0	-1.4914159379E+02	1.2142642375E+01	-3.9807837172E+01	1.9911933334E+02	1.2519259662E+02	0.000E+00	0.0
	-5	1	9	9	0	501	-1.0785644045E+02	-7.2663138692E+00	-8.2848393318E+01	1.3626129215E+02	4.1800000000E+00	0.000E+00	0.0
	5	1	9	9	501	0	-4.1285153340E+01	1.9408956244E+01	4.3040556145E+01	6.2858041189E+01	4.1800000000E+00	0.000E+00	0.0
</event>
<event>
    11  -1  1.0000000E+00  1.0000000E+00  -1.0000000E+00  -1.0000000E+00
	2212	-1	0	0	0	0	0.0000000000E+00	0.0000000000E+00	6.5000000000E+03	6.5000000000E+03	9.3827000000E-01	0.000E+00	0.0
	2212	-1	0	0	0	0	0.0000000000E+00	0.0000000000E+00	-6.5000000000E+03	6.5000000000E+03	9.3827000000E-01	0.000E+00	0.0
	2212	1	0	0	0	0	0.0000000000E+00	0.0000000000E+00	5.4419683679E+03	5.4419683679E+03	9.3827000000E-01	0.000E+00	0.0
	2212	1	0	0	0	0	0.0000000000E+00	0.0000000000E+00	-6.2348584994E+03	6.2348584994E+03	9.3827000000E-01	0.000E+00	0.0
	51	2	1	2	0	0	-4.5570116182E+01	9.2358364553E+01	7.1902429793E+02	1.2844123257E+03	1.0592980593E+03	0.000E+00	0.0
	1000022	2	5	5	0	0	4.5570116182E+01	-9.2358364553E+01	7.4162623963E+02	1.1531177567E+03	8.7696315689E+02	0.000E+00	0.0
	14	1	6	6	0	0	1.4784506463E+02	2.2050319290E+02	3.7693074056E+02	5.6407588532E+02	3.2500000000E+02	0.000E+00	0.0
	-14	1	6	6	0	0	-1.0227494845E+02	-3.1286155745E+02	3.6469549907E+02	5.8904187139E+02	3.2500000000E+02	0.000E+00	0.0
	25	2	5	5	0	0	-4.5570116182E+01	9.2358364553E+01	5.1263891841E+01	1.7005537595E+02	1.2523634174E+02	0.000E+00	0.0
	-5	1	9	9	0	501	1.1962329157E+01	-2.4025446251E+01	-6.4477818082E+00	2.7917121568E+01	4.1800000000E+00	0.000E+00	0.0
	5	1	9	9	501	0	-5.7532445339E+01	1.1638381080E+02	5.7711673649E+01	1.4213825438E+02	4.1800000000E+00	0.000E+00	0.0
</event>
<event>
    11  -1  1.0000000E+00  1.0000000E+00  -1.0000000E+00  -1.0000000E+00
	2212	-1	0	0	0	0	0.0000000000E+00	0.0000000000E+00	6.5000000000E+03	6.5000000000E+03	9.3827000000E-01	0.000E+00	0.0
	2212	-1	0	0	0	0	0.0000000000E+00	0.0000000000E+00	-6.5000000000E+03	6.5000000000E+03	9.3827000000E-01	0.000E+00	0.0
	2212	1	0	0	0	0	0.0000000000E+00	0.0000000000E+00	5.0761081944E+03	5.0761081944E+03	9.3827000000E-01	0.000E+00	0.0
	2212	1	0	0	0	0	0.0000000000E+00	0.0000000000E+00	-6.3081787596E+03	6.3081787596E+03	9.3827000000E-01	0.000E+00	0.0
	51	2	1	2	0	0	-1.1928529156E+02	-7.2793526982E+00	1.3331453561E+03	1.6982606631E+03	1.0452419670E+03	0.000E+00	0.0
	1000022	2	5	5	0	0	1.1928529156E+02	7.2793526982E+00	9.2545960066E+02	1.2636293435E+03	8.5205731939E+02	0.000E+00	0.0
	14	1	6	6	0	0	2.3060808882E+02	7.6211098735E+01	1.8800410952E+02	4.4716749367E+02	3.2500000000E+02	0.000E+00	0.0
	-14	1	6	6	0	0	-1.1132279726E+02	-6.8931746037E+01	7.3745549113E+02	8.1646184982E+02	3.2500000000E+02	0.000E+00	0.0
	25	2	5	5	0	0	-1.1928529156E+02	-7.2793526982E+00	3.0661096457E+02	3.5208370258E+02	1.2518258773E+02	0.000E+00	0.0
	-5	1	9	9	0	501	-5.1900838431E+01	-6.5601230248E+01	1.4254522249E+02	1.6532946287E+02	4.1800000000E+00	0.000E+00	0.0
	5	1	9	9	501	0	-6.7384453130E+01	5.8321877549E+01	1.6406574208E+02	1.8675423970E+02	4.1800000000E+00	0.000E+00	0.0
</event>
<event>
    11  -1  1.0000000E+00  1.0000000E+00  -1.0000000E+00  -1.0000000E+00
	2212	-1	0	0	0	0	0.0000000000E+00	0.0000000000E+00	6.5000000000E+03	6.5000000000E+03	9.3827000000E-01	0.000E+00	0.0
	2212	-1	0	0	0	0	0.0000000000E+00	0.0000000000E+00	-6.5000000000E+03	6.5000000000E+03	9.3827000000E-01	0.000E+00	0.0
	2212	1	0	0	0	0	0.0000000000E+00	0.0000000000E+00	6.2564999675E+03	6.2564999675E+03	9.3827000000E-01	0.000E+00	0.0
	2212	1	0	0	0	0	0.0000000000E+00	0.0000000000E+00	-5.3760144329E+03	5.3760144329E+03	9.3827000000E-01	0.000E+00	0.0
	51	2	1	2	0	0	-1.0326048718E+02	1.8823590962E+01	-7.5324607413E+02	1.2935063944E+03	1.0463087920E+03	0.000E+00	0.0
	1000022	2	5	5	0	0	1.0326048718E+02	-1.8823590962E+01	-8.5348336857E+02	1.2019115186E+03	8.3972637347E+02	0.000E+00	0.0
	14	1	6	6	0	0	2.0324076399E+02	-1.5312488853E+02	-2.1313519424E+02	4.6454886789E+02	3.2500000000E+02	0.000E+00	0.0
	-14	1	6	6	0	0	-9.9980276807E+01	1.3430129757E+02	-6.4034817433E+02	7.3736265070E+02	3.2500000000E+02	0.000E+00	0.0
	25	2	5	5	0	0	-1.0326048718E+02	1.8823590962E+01	-2.7002166096E+01	1.6557408099E+02	1.2517429262E+02	0.000E+00	0.0
	-5	1	9	9	0	501	-1.0740716306E+02	3.8851193601E+01	1.8247072921E+01	1.1574170377E+02	4.1800000000E+00	0.000E+00	0.0
	5	1	9	9	501	0	4.1466758794E+00	-2.0027602639E+01	-4.5249239018E+01	4.9832377226E+01	4.1800000000E+00	0.000E+00	0.0
</event>
<event>
    11  -1  1.0000000E+00  1.0000000E+00  -1.0000000E+00  -1.0000000E+00
	2212	-1	0	0	0	0	0.0000000000E+00	0.0000000000E+00	6.5000000000E+03	6.5000000000E+03	9.3827000000E-01	0.000E+00	0.0
	2212	-1	0	0	0	0	0.0000000000E+00	0.0000000000E+00	-6.5000000000E+03	6.5000000000E+03	9.3827000000E-01	0.000E+00	0.0
	2212	1	0	0	0	0	0.0000000000E+00	0.0000000000E+00	5.9535256383E+03	5.9535256383E+03	9.3827000000E-01	0.000E+00	0.0
	2212	1	0	0	0	0	0.0000000000E+00	0.0000000000E+00	-6.0012226460E+03	6.0012226460E+03	9.3827000000E-01	0.000E+00	0.0
	51	2	1	2	0	0	1.2752323917E+02	4.4610227370E+01	5.1137560841E+01	1.0541078900E+03	1.0441628918E+03	0.000E+00	0.0
	1000022	2	5	5	0	0	-1.2752323917E+02	-4.4610227370E+01	3.6239656285E+01	8.6071215019E+02	8.4927018308E+02	0.000E+00	0.0
	14	1	6	6	0	0	-1.7080952980E+02	-2.7509899250E+02	6.4353802907E+00	4.5882650890E+02	3.2500000000E+02	0.000E+00	0.0
	-14	1	6	6	0	0	4.3286290629E+01	2.3048876513E+02	2.9804275995E+01	4.0188564129E+02	3.2500000000E+02	0.000E+00	0.0
	25	2	5	5	0	0	1.2752323917E+02	4.4610227370E+01	1.1457351371E+01	1.8453956553E+02	1.2518518855E+02	0.000E+00	0.0
	-5	1	9	9	0	501	5.8005557416E+01	4.9642558899E+01	6.1918892974E+01	9.8389278137E+01	4.1800000000E+00	0.000E+00	0.0
	5	1	9	9	501	0	6.9517681758E+01	-5.0323315291E+00	-5.0461541603E+01	8.6150287397E+01	4.1800000000E+00	0.000E+00	0.0
</event>
<event>
    11  -1  1.0000000E+00  1.0000000E+00  -1.0000000E+00  -1.0000000E+00
	2212	-1	0	0	0	0	0.0000000000E+00	0.0000000000E+00	6.5000000000E+03	6.5000000000E+03	9.3827000000E-01	0.000E+00	0.0
	2212	-1	0	0	0	0	0.0000000000E+00	0.0000000000E+00	-6.5000000000E+03	6.5000000000E+03	9.3827000000E-01	0.000E+00	0.0
	2212	1	0	0	0	0	0.0000000000E+00	0.0000000000E+00	6.1166537865E+03	6.1166537865E+03	9.3827000000E-01	0.000E+00	0.0
	2212	1	0	0	0	0	0.0000000000E+00	0.0000000000E+00	-5.7790223225E+03	5.7790223225E+03	9.3827000000E-01	0.000E+00	0.0
	51	2	1	2	0	0	-7.6449271399E+01	1.2968213895E+02	-3.6239629824E+02	1.1222875193E+03	1.0514448396E+03	0.000E+00	0.0
	1000022	2	5	5	0	0	7.6449271399E+01	-1.2968213895E+02	-2.5320548481E+02	8.9122078442E+02	8.4112990719E+02	0.000E+00	0.0
	14	1	6	6	0	0	-8.6178762260E+01	-2.8496932987E+02	-4.1010843273E+01	4.4265244526E+02	3.2500000000E+02	0.000E+00	0.0
	-14	1	6	6	0	0	1.6262803366E+02	1.5528719092E+02	-2.1219464153E+02	4.4856833915E+02	3.2500000000E+02	0.000E+00	0.0
	25	2	5	5	0	0	-7.6449271399E+01	1.2968213895E+02	-8.4425979198E+01	2.1310310660E+02	1.2499295908E+02	0.000E+00	0.0
	-5	1	9	9	0	501	-1.0836991984E+02	1.1948342682E+02	-7.5626862578E+01	1.7820556544E+02	4.1800000000E+00	0.000E+00	0.0
	5	1	9	9	501	0	3.1920648438E+01	1.0198712129E+01	-8.7991166202E+00	3.4897541161E+01	4.1800000000E+00	0.000E+00	0.0
</event>
<event>
    11  -1  1.0000000E+00  1.0000000E+00  -1.0000000E+00  -1.0000000E+00
	2212	-1	0	0	0	0	0.0000000000E+00	0.0000000000E+00	6.5000000000E+03	6.5000000000E+03	9.3827000000E-01	0.000E+00	0.0
	2212	-1	0	0	0	0	0.0000000000E+00	0.0000000000E+00	-6.5000000000E+03	6.5000000000E+03	9.3827000000E-01	0.000E+00	0.0
	2212	1	0	0	0	0	0.0000000000E+00	0.0000000000E+00	6.1669835111E+03	6.1669835111E+03	9.3827000000E-01	0.000E+00	0.0
	2212	1	0	0	0	0	0.0000000000E+00	0.0000000000E+00	-5.6592400929E+03	5.6592400929E+03	9.3827000000E-01	0.000E+00	0.0
	51	2	1	2	0	0	-1.7110183236E+01	1.3097907334E+02	-5.9342362806E+02	1.2204702075E+03	1.0582757906E+03	0.000E+00	0.0
	1000022	2	5	5	0	0	1.7110183236E+01	-1.3097907334E+02	-3.3320601540E+02	9.2166687254E+02	8.4911442057E+02	0.000E+00	0.0
	14	1	6	6	0	0	-5.2439992617E+01	-9.2335661614E+01	-4.5187419048E+02	5.6664901946E+02	3.2500000000E+02	0.000E+00	0.0
	-14	1	6	6	0	0	6.9550175853E+01	-3.8643411726E+01	1.1866817508E+02	3.5501785308E+02	3.2500000000E+02	0.000E+00	0.0
	25	2	5	5	0	0	-1.7110183236E+01	1.3097907334E+02	-1.7453740282E+02	2.5210952343E+02	1.2509049045E+02	0.000E+00	0.0
	-5	1	9	9	0	501	-3.1912446938E+01	3.2655386222E+00	3.4169186922E+00	3.2530228179E+01	4.1800000000E+00	0.000E+00	0.0
	5	1	9	9	501	0	1.4802263702E+01	1.2771353472E+02	-1.7795432151E+02	2.1957929525E+02	4.1800000000E+00	0.000E+00	0.0
</event>
<event>
    11  -1  1.0000000E+00  1.0000000E+00  -1.0000000E+00  -1.0000000E+00
	2212	-1	0	0	0	0	0.0000000000E+00	0.0000000000E+00	6.5000000000E+03	6.5000000000E+03	9.3827000000E-01	0.000E+00	0.0
	2212	-1	0	0	0	0	0.0000000000E+00	0.0000000000E+00	-6.5000000000E+03	6.5000000000E+03	9.3827000000E-01	0.000E+00	0.0
	2212	1	0	0	0	0	0.0000000000E+00	0.0000000000E+00	4.9058526246E+03	4.9058526246E+03	9.3827000000E-01	0.000E+00	0.0
	2212	1	0	0	0	0	0.0000000000E+00	0.0000000000E+00	-6.3365055411E+03	6.3365055411E+03	9.3827000000E-01	0.000E+00	0.0
	51	2	1	2	0	0	3.0482374989E+02	-4.7969816491E+01	1.3012407735E+03	1.6825525914E+03	1.0210470363E+03	0.000E+00	0.0
	1000022	2	5	5	0	0	-3.0482374989E+02	4.7969816491E+01	1.1382005685E+03	1.3144455664E+03	5.8055834433E+02	0.000E+00	0.0
	14	1	6	6	0	0	0.0000000000E+00	0.0000000000E+00	0.0000000000E+00	0.0000000000E+00	0.0000000000E+00	0.000E+00	0.0
	-14	1	6	6	0	0	0.0000000000E+00	0.0000000000E+00	0.0000000000E+00	0.0000000000E+00	0.0000000000E+00	0.000E+00	0.0
	25	2	5	5	0	0	3.0482374989E+02	-4.7969816491E+01	2.9245234792E+02	4.4319626784E+02	1.2520357119E+02	0.000E+00	0.0
	-5	1	9	9	0	501	2.1247447486E+02	-8.7874588803E+01	2.2682322090E+02	3.2300710791E+02	4.1800000000E+00	0.000E+00	0.0
	5	1	9	9	501	0	9.2349275028E+01	3.9904772312E+01	6.5629127024E+01	1.2018915993E+02	4.1800000000E+00	0.000E+00	0.0
</event>
<event>
    11  -1  1.0000000E+00  1.0000000E+00  -1.0000000E+00  -1.0000000E+00
	2212	-1	0	0	0	0	0.0000000000E+00	0.0000000000E+00	6.5000000000E+03	6.5000000000E+03	9.3827000000E-01	0.000E+00	0.0
	2212	-1	0	0	0	0	0.0000000000E+00	0.0000000000E+00	-6.5000000000E+03	6.5000000000E+03	9.3827000000E-01	0.000E+00	0.0
	2212	1	0	0	0	0	0.0000000000E+00	0.0000000000E+00	5.5285524381E+03	5.5285524381E+03	9.3827000000E-01	0.000E+00	0.0
	2212	1	0	0	0	0	0.0000000000E+00	0.0000000000E+00	-6.2137622488E+03	6.2137622488E+03	9.3827000000E-01	0.000E+00	0.0
	51	2	1	2	0	0	-8.4354111685E+01	-5.6120564805E+01	5.6220233863E+02	1.1994150515E+03	1.0546373131E+03	0.000E+00	0.0
	1000022	2	5	5	0	0	8.4354111685E+01	5.6120564805E+01	6.8870893860E+02	1.0966010253E+03	8.4731851903E+02	0.000E+00	0.0
	14	1	6	6	0	0	-1.8071637016E+02	7.3370562240E+01	1.3626011709E+02	4.0278215621E+02	3.2500000000E+02	0.000E+00	0.0
	-14	1	6	6	0	0	2.6507048185E+02	-1.7249997435E+01	5.5244882151E+02	6.9381886912E+02	3.2500000000E+02	0.000E+00	0.0
	25	2	5	5	0	0	-8.4354111685E+01	-5.6120564805E+01	-3.4991278707E+00	1.6108428782E+02	1.2518294586E+02	0.000E+00	0.0
	-5	1	9	9	0	501	-3.1653076253E+01	-1.2454026976E+01	-6.2072012185E+01	7.0904351918E+01	4.1800000000E+00	0.000E+00	0.0
	5	1	9	9	501	0	-5.2701035432E+01	-4.3666537829E+01	5.8572884315E+01	9.0179935898E+01	4.1800000000E+00	0.000E+00	0.0
</event>
<event>
    11  -1  1.0000000E+00  1.0000000E+00  -1.0000000E+00  -1.0000000E+00
	2212	-1	0	0	0	0	0.0000000000E+00	0.0000000000E+00	6.5000000000E+03	6.5000000000E+03	9.3827000000E-01	0.000E+00	0.0
	2212	-1	0	0	0	0	0.0000000000E+00	0.0000000000E+00	-6.5000000000E+03	6.5000000000E+03	9.3827000000E-01	0.000E+00	0.0
	2212	1	0	0	0	0	0.0000000000E+00	0.0000000000E+00	5.8544604793E+03	5.8544604793E+03	9.3827000000E-01	0.000E+00	0.0
	2212	1	0	0	0	0	0.0000000000E+00	0.0000000000E+00	-6.0790752784E+03	6.0790752784E+03	9.3827000000E-01	0.000E+00	0.0
	51	2	1	2	0	0	-8.7801209749E+01	7.9973241285E+01	1.5607150523E+02	1.0608285718E+03	1.0425421681E+03	0.000E+00	0.0
	1000022	2	5	5	0	0	8.7801209749E+01	-7.9973241285E+01	2.5506679971E+02	8.9124361032E+02	8.4566620417E+02	0.000E+00	0.0
	14	1	6	6	0	0	-1.3025841584E+01	-2.8018102163E+02	2.4921488687E+02	4.9639111321E+02	3.2500000000E+02	0.000E+00	0.0
	-14	1	6	6	0	0	1.0082705133E+02	2.0020778035E+02	5.8519128376E+00	3.9485249711E+02	3.2500000000E+02	0.000E+00	0.0
	25	2	5	5	0	0	-8.7801209749E+01	7.9973241285E+01	-3.0452000685E+01	1.7522063199E+02	1.2518056468E+02	0.000E+00	0.0
	-5	1	9	9	0	501	-8.0926025623E+01	1.7369791662E+01	-6.3096317172E+01	1.0416020798E+02	4.1800000000E+00	0.000E+00	0.0
	5	1	9	9	501	0	-6.8751841261E+00	6.2603449622E+01	3.2644316487E+01	7.1060424009E+01	4.1800000000E+00	0.000E+00	0.0
</event>
<event>
    11  -1  1.0000000E+00  1.0000000E+00  -1.0000000E+00  -1.0000000E+00
	2212	-1	0	0	0	0	0.0000000000E+00	0.0000000000E+00	6.5000000000E+03	6.5000000000E+03	9.3827000000E-01	0.000E+00	0.0
	2212	-1	0	0	0	0	0.0000000000E+00	0.0000000000E+00	-6.5000000000E+03	6.5000000000E+03	9.3827000000E-01	0.000E+00	0.0
	2212	1	0	0	0	0	0.0000000000E+00	0.0000000000E+00	6.0582587180E+03	6.0582587180E+03	9.3827000000E-01	0.000E+00	0.0
	2212	1	0	0	0	0	0.0000000000E+00	0.0000000000E+00	-5.8816651163E+03	5.8816651163E+03	9.3827000000E-01	0.000E+00	0.0
	51	2	1	2	0	0	2.6155632195E+01	-1.3877803475E+02	-1.8416778904E+02	1.0707181755E+03	1.0452636877E+03	0.000E+00	0.0
	1000022	2	5	5	0	0	-2.6155632195E+01	1.3877803475E+02	-1.3872661417E+02	8.6758908799E+02	8.4470248733E+02	0.000E+00	0.0
	14	1	6	6	0	0	-2.5000564208E+02	1.4707160597E+02	-1.7872175834E+02	4.7084959940E+02	3.2500000000E+02	0.000E+00	0.0
	-14	1	6	6	0	0	2.2385000989E+02	-8.2935712152E+00	3.9995144164E+01	3.9673948859E+02	3.2500000000E+02	0.000E+00	0.0
	25	2	5	5	0	0	2.6155632195E+01	-1.3877803475E+02	-3.7866987532E+01	1.9248707768E+02	1.2519547238E+02	0.000E+00	0.0
	-5	1	9	9	0	501	1.1541633019E+01	-7.9674628854E+01	4.2851048701E+01	9.1295895584E+01	4.1800000000E+00	0.000E+00	0.0
	5	1	9	9	501	0	1.4613999176E+01	-5.9103405896E+01	-8.0718036232E+01	1.0119118209E+02	4.1800000000E+00	0.000E+00	0.0
</event>
<event>
    11  -1  1.0000000E+00  1.0000000E+00  -1.0000000E+00  -1.0000000E+00
	2212	-1	0	0	0	0	0.0000000000E+00	0.0000000000E+00	6.5000000000E+03	6.5000000000E+03	9.3827000000E-01	0.000E+00	0.0
	2212	-1	0	0	0	0	0.0000000000E+00	0.0000000000E+00	-6.5000000000E+03	6.5000000000E+03	9.3827000000E-01	0.000E+00	0.0
	2212	1	0	0	0	0	0.0000000000E+00	0.0000000000E+00	6.2753059606E+03	6.2753059606E+03	9.3827000000E-01	0.000E+00	0.0
	2212	1	0	0	0	0	0.0000000000E+00	0.0000000000E+00	-5.4174496869E+03	5.4174496869E+03	9.3827000000E-01	0.000E+00	0.0
	51	2	1	2	0	0	-1.1170732710E+01	3.8416548456E+01	-8.9902334165E+02	1.3352205796E+03	9.8639262507E+02	0.000E+00	0.0
	1000022	2	5	5	0	0	1.1170732710E+01	-3.8416548456E+01	-7.0051316309E+02	1.1022332534E+03	8.5005813735E+02	0.000E+00	0.0
	14	1	6	6	0	0	-2.0287302487E+02	6.2196975803E+00	-1.1923874082E+02	4.0129668099E+02	3.2500000000E+02	0.000E+00	0.0
	-14	1	6	6	0	0	2.1404375758E+02	-4.4636246036E+01	-5.8127442227E+02	7.0093657246E+02	3.2500000000E+02	0.000E+00	0.0
	25	2	5	5	0	0	-1.1170732710E+01	3.8416548456E+01	-1.5734311056E+02	2.0501109902E+02	1.2518817762E+02	0.000E+00	0.0
	-5	1	9	9	0	501	4.9855024667E+01	4.1504842966E+01	-1.0929964668E+02	1.2716941708E+02	4.1800000000E+00	0.000E+00	0.0
	5	1	9	9	501	0	-6.1025757377E+01	-3.0882945100E+00	-4.8043463874E+01	7.7841681941E+01	4.1800000000E+00	0.000E+00	0.0
</event>
<event>
    11  -1  1.0000000E+00  1.0000000E+00  -1.0000000E+00  -1.0000000E+00
	2212	-1	0	0	0	0	0.0000000000E+00	0.0000000000E+00	6.5000000000E+03	6.5000000000E+03	9.3827000000E-01	0.000E+00	0.0
	2212	-1	0	0	0	0	0.0000000000E+00	0.0000000000E+00	-6.5000000000E+03	6.5000000000E+03	9.3827000000E-01	0.000E+00	0.0
	2212	1	0	0	0	0	0.0000000000E+00	0.0000000000E+00	5.0631931288E+03	5.0631931288E+03	9.3827000000E-01	0.000E+00	0.0
	2212	1	0	0	0	0	0.0000000000E+00	0.0000000000E+00	-6.3053602440E+03	6.3053602440E+03	9.3827000000E-01	0.000E+00	0.0
	51	2	1	2	0	0	9.9907244183E+01	5.0374836096E+01	1.1267376633E+03	1.5494178904E+03	1.0576572958E+03	0.000E+00	0.0
	1000022	2	5	5	0	0	-9.9907244183E+01	-5.0374836096E+01	1.1489060470E+03	1.4393838663E+03	8.5983819884E+02	0.000E+00	0.0
	14	1	6	6	0	0	3.9185457440E+01	-2.1726206443E+02	2.6788595677E+02	4.7552727635E+02	3.2500000000E+02	0.000E+00	0.0
	-14	1	6	6	0	0	-1.3909270162E+02	1.6688722833E+02	8.8102009019E+02	9.6385658993E+02	3.2500000000E+02	0.000E+00	0.0
	25	2	5	5	0	0	9.9907244183E+01	5.0374836096E+01	9.3261068246E+01	1.9206276098E+02	1.2518544545E+02	0.000E+00	0.0
	-5	1	9	9	0	501	-2.1509120694E+00	-2.0561333104E+01	-1.6039180440E+01	2.6497595192E+01	4.1800000000E+00	0.000E+00	0.0
	5	1	9	9	501	0	1.0205815625E+02	7.0936169200E+01	1.0930024869E+02	1.6556516578E+02	4.1800000000E+00	0.000E+00	0.0
</event>
<event>
    11  -1  1.0000000E+00  1.0000000E+00  -1.0000000E+00  -1.0000000E+00
	2212	-1	0	0	0	0	0.0000000000E+00	0.0000000000E+00	6.5000000000E+03	6.5000000000E+03	9.3827000000E-01	0.000E+00	0.0
	2212	-1	0	0	0	0	0.0000000000E+00	0.0000000000E+00	-6.5000000000E+03	6.5000000000E+03	9.3827000000E-01	0.000E+00	0.0
	2212	1	0	0	0	0	0.0000000000E+00	0.0000000000E+00	6.3230091802E+03	6.3230091802E+03	9.3827000000E-01	0.000E+00	0.0
	2212	1	0	0	0	0	0.0000000000E+00	0.0000000000E+00	-4.9758593312E+03	4.9758593312E+03	9.3827000000E-01	0.000E+00	0.0
	51	2	1	2	0	0	6.1275277186E+01	-8.4112421833E+00	-1.2251170178E+03	1.6074118146E+03	1.0387663962E+03	0.000E+00	0.0
	1000022	2	5	5	0	0	-6.1275277186E+01	8.4112421833E+00	-1.2677685269E+03	1.5405127468E+03	8.7299317111E+02	0.000E+00	0.0
	14	1	6	6	0	0	2.0588565198E+02	7.7487139376E+01	-8.8271046658E+02	9.6602066555E+02	3.2500000000E+02	0.000E+00	0.0
	-14	1	6	6	0	0	-2.6716092917E+02	-6.9075897193E+01	-3.8505806029E+02	5.7449208127E+02	3.2500000000E+02	0.000E+00	0.0
	25	2	5	5	0	0	6.1275277186E+01	-8.4112421833E+00	-7.9381322071E+01	1.6061874175E+02	1.2518617063E+02	0.000E+00	0.0
	-5	1	9	9	0	501	8.7220457748E+01	-3.2823844418E+01	-8.2607805534E+01	1.2460471479E+02	4.1800000000E+00	0.000E+00	0.0
	5	1	9	9	501	0	-2.5945180562E+01	2.4412602235E+01	3.2264834628E+00	3.6014026959E+01	4.1800000000E+00	0.000E+00	0.0
</event>
<event>
    11  -1  1.0000000E+00  1.0000000E+00  -1.0000000E+00  -1.0000000E+00
	2212	-1	0	0	0	0	0.0000000000E+00	0.0000000000E+00	6.5000000000E+03	6.5000000000E+03	9.3827000000E-01	0.000E+00	0.0
	2212	-1	0	0	0	0	0.0000000000E+00	0.0000000000E+00	-6.5000000000E+03	6.5000000000E+03	9.3827000000E-01	0.000E+00	0.0
	2212	1	0	0	0	0	0.0000000000E+00	0.0000000000E+00	5.5568755671E+03	5.5568755671E+03	9.3827000000E-01	0.000E+00	0.0
	2212	1	0	0	0	0	0.0000000000E+00	0.0000000000E+00	-6.2122254177E+03	6.2122254177E+03	9.3827000000E-01	0.000E+00	0.0
	51	2	1	2	0	0	-7.7677909211E+01	2.6829842949E+01	6.1321045290E+02	1.2117795659E+03	1.0419351990E+03	0.000E+00	0.0
	1000022	2	5	5	0	0	7.7677909211E+01	-2.6829842949E+01	6.0282287970E+02	1.0722130680E+03	8.8288829462E+02	0.000E+00	0.0
	14	1	6	6	0	0	-1.7322321227E+02	-2.2376297446E+02	2.7686677546E+02	5.1220734216E+02	3.2500000000E+02	0.000E+00	0.0
	-14	1	6	6	0	0	2.5090112148E+02	1.9693313151E+02	3.2595610424E+02	5.6000572581E+02	3.2500000000E+02	0.000E+00	0.0
	25	2	5	5	0	0	-7.7677909211E+01	2.6829842949E+01	5.2526970957E+01	1.5868594722E+02	1.2517367580E+02	0.000E+00	0.0
	-5	1	9	9	0	501	-7.2374253710E+01	-3.6250024921E+01	4.9919590981E+01	9.5192094580E+01	4.1800000000E+00	0.000E+00	0.0
	5	1	9	9	501	0	-5.3036555013E+00	6.3079867870E+01	2.6073799762E+00	6.3493852635E+01	4.1800000000E+00	0.000E+00	0.0
</event>
<event>
    11  -1  1.0000000E+00  1.0000000E+00  -1.0000000E+00  -1.0000000E+00
	2212	-1	0	0	0	0	0.0000000000E+00	0.0000000000E+00	6.5000000000E+03	6.5000000000E+03	9.3827000000E-01	0.000E+00	0.0
	2212	-1	0	0	0	0	0.0000000000E+00	0.0000000000E+00	-6.5000000000E+03	6.5000000000E+03	9.3827000000E-01	0.000E+00	0.0
	2212	1	0	0	0	0	0.0000000000E+00	0.0000000000E+00	5.0769601189E+03	5.0769601189E+03	9.3827000000E-01	0.000E+00	0.0
	2212	1	0	0	0	0	0.0000000000E+00	0.0000000000E+00	-6.3065580450E+03	6.3065580450E+03	9.3827000000E-01	0.000E+00	0.0
	51	2	1	2	0	0	1.1809431783E+02	7.5225873692E+01	1.2573406403E+03	1.6436584658E+03	1.0493342968E+03	0.000E+00	0.0
	1000022	2	5	5	0	0	-1.1809431783E+02	-7.5225873692E+01	9.9234929328E+02	1.3138797970E+03	8.4965746112E+02	0.000E+00	0.0
	14	1	6	6	0	0	-1.8386451489E+01	1.3712958928E+02	7.8892027423E+02	8.6438578479E+02	3.2500000000E+02	0.000E+00	0.0
	-14	1	6	6	0	0	-9.9707866344E+01	-2.1235546297E+02	2.0342901905E+02	4.4949401226E+02	3.2500000000E+02	0.000E+00	0.0
	25	2	5	5	0	0	1.1809431783E+02	7.5225873692E+01	2.3724863286E+02	3.0260203902E+02	1.2520335558E+02	0.000E+00	0.0
	-5	1	9	9	0	501	1.1774495627E+02	1.0496646765E+02	1.9873603954E+02	2.5376232949E+02	4.1800000000E+00	0.000E+00	0.0
	5	1	9	9	501	0	3.4936156669E-01	-2.9740593959E+01	3.8512593317E+01	4.8839709526E+01	4.1800000000E+00	0.000E+00	0.0
</event>
<event>
    11  -1  1.0000000E+00  1.0000000E+00  -1.0000000E+00  -1.0000000E+00
	2212	-1	0	0	0	0	0.0000000000E+00	0.0000000000E+00	6.5000000000E+03	6.5000000000E+03	9.3827000000E-01	0.000E+00	0.0
	2212	-1	0	0	0	0	0.0000000000E+00	0.0000000000E+00	-6.5000000000E+03	6.5000000000E+03	9.3827000000E-01	0.000E+00	0.0
	2212	1	0	0	0	0	0.0000000000E+00	0.0000000000E+00	6.3316221153E+03	6.3316221153E+03	9.3827000000E-01	0.000E+00	0.0
	2212	1	0	0	0	0	0.0000000000E+00	0.0000000000E+00	-4.8691422855E+03	4.8691422855E+03	9.3827000000E-01	0.000E+00	0.0
	51	2	1	2	0	0	1.2325506726E+02	6.3190711797E+01	-1.5167027212E+03	1.8487762197E+03	1.0480465107E+03	0.000E+00	0.0
	1000022	2	5	5	0	0	-1.2325506726E+02	-6.3190711797E+01	-1.1587041371E+03	1.4426792681E+03	8.4825899079E+02	0.000E+00	0.0
	14	1	6	6	0	0	-1.8292586206E+02	1.6340842476E+02	-3.3718051136E+02	5.2865856801E+02	3.2500000000E+02	0.000E+00	0.0
	-14	1	6	6	0	0	5.9670794794E+01	-2.2659913656E+02	-8.2152362575E+02	9.1402070004E+02	3.2500000000E+02	0.000E+00	0.0
	25	2	5	5	0	0	1.2325506726E+02	6.3190711797E+01	-3.0377569268E+02	3.5655633107E+02	1.2517135495E+02	0.000E+00	0.0
	-5	1	9	9	0	501	8.3569378274E+01	9.4451167547E+01	-1.5790991725E+02	2.0213331839E+02	4.1800000000E+00	0.000E+00	0.0
	5	1	9	9	501	0	3.9685688988E+01	-3.1260455750E+01	-1.4586577543E+02	1.5442301268E+02	4.1800000000E+00	0.000E+00	0.0
</event>
<event>
    11  -1  1.0000000E+00  1.0000000E+00  -1.0000000E+00  -1.0000000E+00
	2212	-1	0	0	0	0	0.0000000000E+00	0.0000000000E+00	6.5000000000E+03	6.5000000000E+03	9.3827000000E-01	0.000E+00	0.0
	2212	-1	0	0	0	0	0.0000000000E+00	0.0000000000E+00	-6.5000000000E+03	6.5000000000E+03	9.3827000000E-01	0.000E+00	0.0
	2212	1	0	0	0	0	0.0000000000E+00	0.0000000000E+00	5.6087325219E+03	5.6087325219E+03	9.3827000000E-01	0.000E+00	0.0
	2212	1	0	0	0	0	0.0000000000E+00	0.0000000000E+00	-6.1869926457E+03	6.1869926457E+03	9.3827000000E-01	0.000E+00	0.0
	51	2	1	2	0	0	-1.4573461369E+02	3.2343160729E+01	5.7008716113E+02	1.2096185887E+03	1.0563584151E+03	0.000E+00	0.0
	1000022	2	5	5	0	0	1.4573461369E+02	-3.2343160729E+01	4.8535455540E+02	9.8842662330E+02	8.4801738633E+02	0.000E+00	0.0
	14	1	6	6	0	0	2.4664630778E+02	1.8473632244E+01	1.8969029666E+01	4.0885266333E+02	3.2500000000E+02	0.000E+00	0.0
	-14	1	6	6	0	0	-1.0091169409E+02	-5.0816792973E+01	4.6638552574E+02	5.7957395996E+02	3.2500000000E+02	0.000E+00	0.0
	25	2	5	5	0	0	-1.4573461369E+02	3.2343160729E+01	9.2905568327E+01	2.1584820908E+02	1.2519723265E+02	0.000E+00	0.0
	-5	1	9	9	0	501	4.9183442643E+00	-2.9988952636E+01	6.7958920807E+00	3.1419483441E+01	4.1800000000E+00	0.000E+00	0.0
	5	1	9	9	501	0	-1.5065295796E+02	6.2332113366E+01	8.6109676246E+01	1.8442872564E+02	4.1800000000E+00	0.000E+00	0.0
</event>
<event>
    11  -1  1.0000000E+00  1.0000000E+00  -1.0000000E+00  -1.0000000E+00
	2212	-1	0	0	0	0	0.0000000000E+00	0.0000000000E+00	6.5000000000E+03	6.5000000000E+03	9.3827000000E-01	0.000E+00	0.0
	2212	-1	0	0	0	0	0.0000000000E+00	0.0000000000E+00	-6.5000000000E+03	6.5000000000E+03	9.3827000000E-01	0.000E+00	0.0
	2212	1	0	0	0	0	0.0000000000E+00	0.0000000000E+00	5.2057842352E+03	5.2057842352E+03	9.3827000000E-01	0.000E+00	0.0
	2212	1	0	0	0	0	0.0000000000E+00	0.0000000000E+00	-6.2918106653E+03	6.2918106653E+03	9.3827000000E-01	0.000E+00	0.0
	51	2	1	2	0	0	2.7104769892E+01	-1.0577076388E+02	1.1611969328E+03	1.5614314316E+03	1.0381559015E+03	0.000E+00	0.0
	1000022	2	5	5	0	0	-2.7104769892E+01	1.0577076388E+02	8.3736594395E+02	1.2033733413E+03	8.5732348123E+02	0.000E+00	0.0
	14	1	6	6	0	0	-4.1935888632E+01	-2.0565191800E+02	2.4006317537E+02	4.5530940941E+02	3.2500000000E+02	0.000E+00	0.0
	-14	1	6	6	0	0	1.4831118740E+01	3.1142268188E+02	5.9730276858E+02	7.4806393191E+02	3.2500000000E+02	0.000E+00	0.0
	25	2	5	5	0	0	2.7104769892E+01	-1.0577076388E+02	2.4866048618E+02	2.9903175811E+02	1.2516322116E+02	0.000E+00	0.0
	-5	1	9	9	0	501	7.4029364734E+01	-7.4313076350E+01	1.9249968880E+02	2.1926327268E+02	4.1800000000E+00	0.000E+00	0.0
	5	1	9	9	501	0	-4.6924594843E+01	-3.1457687533E+01	5.6160797378E+01	7.9768485432E+01	4.1800000000E+00	0.000E+00	0.0
</event>
<event>
    11  -1  1.0000000E+00  1.0000000E+00  -1.0000000E+00  -1.0000000E+00
	2212	-1	0	0	0	0	0.0000000000E+00	0.0000000000E+00	6.5000000000E+03	6.5000000000E+03	9.3827000000E-01	0.000E+00	0.0
	2212	-1	0	0	0	0	0.0000000000E+00	0.0000000000E+00	-6.5000000000E+03	6.5000000000E+03	9.3827000000E-01	0.000E+00	0.0
	2212	1	0	0	0	0	0.0000000000E+00	0.0000000000E+00	6.3053363443E+03	6.3053363443E+03	9.3827000000E-01	0.000E+00	0.0
	2212	1	0	0	0	0	0.0000000000E+00	0.0000000000E+00	-5.0817885877E+03	5.0817885877E+03	9.3827000000E-01	0.000E+00	0.0
	51	2	1	2	0	0	-1.0271448851E+02	-3.4234962204E+01	-1.1012422840E+03	1.5260254712E+03	1.0508553050E+03	0.000E+00	0.0
	1000022	2	5	5	0	0	1.0271448851E+02	3.4234962204E+01	-1.1389728111E+03	1.4270158417E+03	8.5287329020E+02	0.000E+00	0.0
	14	1	6	6	0	0	-2.1527310498E+02	-7.6669104820E+00	-6.5014265215E+02	7.5809746035E+02	3.2500000000E+02	0.000E+00	0.0
	-14	1	6	6	0	0	3.1798759349E+02	4.1901872686E+01	-4.8883015895E+02	6.6891838131E+02	3.2500000000E+02	0.000E+00	0.0
	25	2	5	5	0	0	-1.0271448851E+02	-3.4234962204E+01	-8.4574945572E+01	1.8585922632E+02	1.2517360666E+02	0.000E+00	0.0
	-5	1	9	9	0	501	-1.1616464228E+02	-6.3316442313E+01	-7.5098457950E+01	1.5218556689E+02	4.1800000000E+00	0.000E+00	0.0
	5	1	9	9	501	0	1.3450153770E+01	2.9081480110E+01	-9.4764876225E+00	3.3673659431E+01	4.1800000000E+00	0.000E+00	0.0
</event>
<event>
    11  -1  1.0000000E+00  1.0000000E+00  -1.0000000E+00  -1.0000000E+00
	2212	-1	0	0	0	0	0.0000000000E+00	0.0000000000E+00	6.5000000000E+03	6.5000000000E+03	9.3827000000E-01	0.000E+00	0.0
	2212	-1	0	0	0	0	0.0000000000E+00	0.0000000000E+00	-6.5000000000E+03	6.5000000000E+03	9.3827000000E-01	0.000E+00	0.0
	2212	1	0	0	0	0	0.0000000000E+00	0.0000000000E+00	6.2441821640E+03	6.2441821640E+03	9.3827000000E-01	0.000E+00	0.0
	2212	1	0	0	0	0	0.0000000000E+00	0.0000000000E+00	-5.4602692073E+03	5.4602692073E+03	9.3827000000E-01	0.000E+00	0.0
	51	2	1	2	0	0	1.4857217171E+01	-4.1153872447E+01	-6.4909573450E+02	1.2194943117E+03	1.0314682378E+03	0.000E+00	0.0
	1000022	2	5	5	0	0	-1.4857217171E+01	4.1153872447E+01	-7.9231405192E+02	1.1626789337E+03	8.4979195563E+02	0.000E+00	0.0
	14	1	6	6	0	0	1.1483195524E+02	-4.8393958727E+01	-7.1219781832E+02	7.9270365560E+02	3.2500000000E+02	0.000E+00	0.0
	-14	1	6	6	0	0	-1.2968917241E+02	8.9547831175E+01	-8.0116233600E+01	3.6997527809E+02	3.2500000000E+02	0.000E+00	0.0
	25	2	5	5	0	0	1.4857217171E+01	-4.1153872447E+01	8.4010952052E+00	1.3286969504E+02	1.2517747137E+02	0.000E+00	0.0
	-5	1	9	9	0	501	3.8272126395E+01	-2.4943304882E+01	-4.9941750122E+01	6.7812793207E+01	4.1800000000E+00	0.000E+00	0.0
	5	1	9	9	501	0	-2.3414909224E+01	-1.6210567566E+01	5.8342845327E+01	6.5056901830E+01	4.1800000000E+00	0.000E+00	0.0
</event>
<event>
    11  -1  1.0000000E+00  1.0000000E+00  -1.0000000E+00  -1.0000000E+00
	2212	-1	0	0	0	0	0.0000000000E+00	0.0000000000E+00	6.5000000000E+03	6.5000000000E+03	9.3827000000E-01	0.000E+00	0.0
	2212	-1	0	0	0	0	0.0000000000E+00	0.0000000000E+00	-6.5000000000E+03	6.5000000000E+03	9.3827000000E-01	0.000E+00	0.0
	2212	1	0	0	0	0	0.0000000000E+00	0.0000000000E+00	6.2701315211E+03	6.2701315211E+03	9.3827000000E-01	0.000E+00	0.0
	2212	1	0	0	0	0	0.0000000000E+00	0.0000000000E+00	-5.2878488230E+03	5.2878488230E+03	9.3827000000E-01	0.000E+00	0.0
	51	2	1	2	0	0	1.4189679690E+00	-7.9162708207E+01	-8.1806183574E+02	1.3379220097E+03	1.0557184232E+03	0.000E+00	0.0
	1000022	2	5	5	0	0	-1.4189679690E+00	7.9162708207E+01	-9.7455561371E+02	1.2936927002E+03	8.4712065872E+02	0.000E+00	0.0
	14	1	6	6	0	0	2.2332773265E+02	5.7935601533E+01	-7.2065966900E+02	8.2353334396E+02	3.2500000000E+02	0.000E+00	0.0
	-14	1	6	6	0	0	-2.2474670062E+02	2.1227106674E+01	-2.5389594471E+02	4.7015935622E+02	3.2500000000E+02	0.000E+00	0.0
	25	2	5	5	0	0	1.4189679690E+00	-7.9162708207E+01	-7.7270844400E+00	1.4832695576E+02	1.2518957676E+02	0.000E+00	0.0
	-5	1	9	9	0	501	-4.9127037045E+01	-3.7732808469E+01	3.3889665429E+01	7.0733389758E+01	4.1800000000E+00	0.000E+00	0.0
	5	1	9	9	501	0	5.0546005014E+01	-4.1429899738E+01	-4.1616749869E+01	7.7593566002E+01	4.1800000000E+00	0.000E+00	0.0
</event>
<event>
    11  -1  1.0000000E+00  1.0000000E+00  -1.0000000E+00  -1.0000000E+00
	2212	-1	0	0	0	0	0.0000000000E+00	0.0000000000E+00	6.5000000000E+03	6.5000000000E+03	9.3827000000E-01	0.000E+00	0.0
	2212	-1	0	0	0	0	0.0000000000E+00	0.0000000000E+00	-6.5000000000E+03	6.5000000000E+03	9.3827000000E-01	0.000E+00	0.0
	2212	1	0	0	0	0	0.0000000000E+00	0.0000000000E+00	5.7327488334E+03	5.7327488334E+03	9.3827000000E-01	0.000E+00	0.0
	2212	1	0	0	0	0	0.0000000000E+00	0.0000000000E+00	-6.1411094338E+03	6.1411094338E+03	9.3827000000E-01	0.000E+00	0.0
	51	2	1	2	0	0	1.2617785479E+02	-1.5852634407E+01	3.4646362457E+02	1.1124954034E+03	1.0494936028E+03	0.000E+00	0.0
	1000022	2	5	5	0	0	-1.2617785479E+02	1.5852634407E+01	4.0054243580E+02	9.4753364513E+02	8.4924296213E+02	0.000E+00	0.0
	14	1	6	6	0	0	5.3140938366E+01	7.7586853174E+01	-6.9531781170E+01	3.4540316691E+02	3.2500000000E+02	0.000E+00	0.0
	-14	1	6	6	0	0	-1.7931879316E+02	-6.1734218768E+01	4.7007421697E+02	6.0213047823E+02	3.2500000000E+02	0.000E+00	0.0
	25	2	5	5	0	0	1.2617785479E+02	-1.5852634407E+01	7.8181646669E+00	1.7860808767E+02	1.2517015708E+02	0.000E+00	0.0
	-5	1	9	9	0	501	6.3736557408E+01	3.7293934741E+01	-3.9494797311E+01	8.3848063385E+01	4.1800000000E+00	0.000E+00	0.0
	5	1	9	9	501	0	6.2441297383E+01	-5.3146569148E+01	4.7312961978E+01	9.4760024283E+01	4.1800000000E+00	0.000E+00	0.0
</event>
<event>
    11  -1  1.0000000E+00  1.0000000E+00  -1.0000000E+00  -1.0000000E+00
	2212	-1	0	0	0	0	0.0000000000E+00	0.0000000000E+00	6.5000000000E+03	6.5000000000E+03	9.3827000000E-01	0.000E+00	0.0
	2212	-1	0	0	0	0	0.0000000000E+00	0.0000000000E+00	-6.5000000000E+03	6.5000000000E+03	9.3827000000E-01	0.000E+00	0.0
	2212	1	0	0	0	0	0.0000000000E+00	0.0000000000E+00	6.0794457065E+03	6.0794457065E+03	9.3827000000E-01	0.000E+00	0.0
	2212	1	0	0	0	0	0.0000000000E+00	0.0000000000E+00	-5.8415132033E+03	5.8415132033E+03	9.3827000000E-01	0.000E+00	0.0
	51	2	1	2	0	0	2.2929356429E+01	7.8379272626E+01	-1.2178180974E+02	1.0626465419E+03	1.0524817329E+03	0.000E+00	0.0
	1000022	2	5	5	0	0	-2.2929356429E+01	-7.8379272626E+01	-3.1353456621E+02	9.1154466984E+02	8.5202153444E+02	0.000E+00	0.0
	14	1	6	6	0	0	2.1725957023E+01	-3.0297941299E+02	-8.4781201199E+01	4.5285913260E+02	3.2500000000E+02	0.000E+00	0.0
	-14	1	6	6	0	0	-4.4655313451E+01	2.2460014036E+02	-2.2875336501E+02	4.5868553724E+02	3.2500000000E+02	0.000E+00	0.0
	25	2	5	5	0	0	2.2929356429E+01	7.8379272626E+01	7.5602062988E+01	1.6749642029E+02	1.2518112126E+02	0.000E+00	0.0
	-5	1	9	9	0	501	2.8088271196E+01	-2.1755458198E+01	-8.2601176890E+00	3.6714477859E+01	4.1800000000E+00	0.000E+00	0.0
	5	1	9	9	501	0	-5.1589147677E+00	1.0013473082E+02	8.3862180677E+01	1.3078194243E+02	4.1800000000E+00	0.000E+00	0.0
</event>
<event>
    11  -1  1.0000000E+00  1.0000000E+00  -1.0000000E+00  -1.0000000E+00
	2212	-1	0	0	0	0	0.0000000000E+00	0.0000000000E+00	6.5000000000E+03	6.5000000000E+03	9.3827000000E-01	0.000E+00	0.0
	2212	-1	0	0	0	0	0.0000000000E+00	0.0000000000E+00	-6.5000000000E+03	6.5000000000E+03	9.3827000000E-01	0.000E+00	0.0
	2212	1	0	0	0	0	0.0000000000E+00	0.0000000000E+00	6.1231106194E+03	6.1231106194E+03	9.3827000000E-01	0.000E+00	0.0
	2212	1	0	0	0	0	0.0000000000E+00	0.0000000000E+00	-5.7660851749E+03	5.7660851749E+03	9.3827000000E-01	0.000E+00	0.0
	51	2	1	2	0	0	-5.3642911459E+01	3.0458238549E+00	-3.8636708868E+02	1.1218668289E+03	1.0518644473E+03	0.000E+00	0.0
	1000022	2	5	5	0	0	5.3642911459E+01	-3.0458238549E+00	-2.8115344797E+02	9.5497287810E+02	9.1106481526E+02	0.000E+00	0.0
	14	1	6	6	0	0	-1.3368216882E+02	-6.8081147822E+01	-4.1807832561E+02	5.5038209573E+02	3.2500000000E+02	0.000E+00	0.0
	-14	1	6	6	0	0	1.8732508028E+02	6.5035323967E+01	1.3692487764E+02	4.0459078237E+02	3.2500000000E+02	0.000E+00	0.0
	25	2	5	5	0	0	-5.3642911459E+01	3.0458238549E+00	-7.5871996534E+01	1.5583132768E+02	1.2506000094E+02	0.000E+00	0.0
	-5	1	9	9	0	501	-2.4669480919E+00	4.1969596004E+01	-8.0832957310E+01	9.1208399882E+01	4.1800000000E+00	0.000E+00	0.0
	5	1	9	9	501	0	-5.1175963367E+01	-3.8923772149E+01	4.9609607751E+00	6.4622927794E+01	4.1800000000E+00	0.000E+00	0.0
</event>
<event>
    11  -1  1.0000000E+00  1.0000000E+00  -1.0000000E+00  -1.0000000E+00
	2212	-1	0	0	0	0	0.0000000000E+00	0.0000000000E+00	6.5000000000E+03	6.5000000000E+03	9.3827000000E-01	0.000E+00	0.0
	2212	-1	0	0	0	0	0.0000000000E+00	0.0000000000E+00	-6.5000000000E+03	6.5000000000E+03	9.3827000000E-01	0.000E+00	0.0
	2212	1	0	0	0	0	0.0000000000E+00	0.0000000000E+00	5.0857370877E+03	5.0857370877E+03	9.3827000000E-01	0.000E+00	0.0
	2212	1	0	0	0	0	0.0000000000E+00	0.0000000000E+00	-6.3051737332E+03	6.3051737332E+03	9.3827000000E-01	0.000E+00	0.0
	51	2	1	2	0	0	7.2207973695E+01	1.1526393519E+02	1.2784438042E+03	1.6598375162E+03	1.0498296308E+03	0.000E+00	0.0
	1000022	2	5	5	0	0	-7.2207973695E+01	-1.1526393519E+02	9.5335236256E+02	1.2850953550E+03	8.5093453209E+02	0.000E+00	0.0
	14	1	6	6	0	0	6.0690305695E+01	-2.7660936796E+02	7.0308483302E+02	8.2471166965E+02	3.2500000000E+02	0.000E+00	0.0
	-14	1	6	6	0	0	-1.3289827939E+02	1.6134543277E+02	2.5026752955E+02	4.6038368530E+02	3.2500000000E+02	0.000E+00	0.0
	25	2	5	5	0	0	7.2207973695E+01	1.1526393519E+02	2.6608428295E+02	3.2399382408E+02	1.2518540727E+02	0.000E+00	0.0
	-5	1	9	9	0	501	7.8610449105E+01	1.2850724066E+02	2.6908324209E+02	3.0841040382E+02	4.1800000000E+00	0.000E+00	0.0
	5	1	9	9	501	0	-6.4024754101E+00	-1.3243305469E+01	-2.9989591453E+00	1.5583420263E+01	4.1800000000E+00	0.000E+00	0.0
</event>
<event>
    11  -1  1.0000000E+00  1.0000000E+00  -1.0000000E+00  -1.0000000E+00
	2212	-1	0	0	0	0	0.0000000000E+00	0.0000000000E+00	6.5000000000E+03	6.5000000000E+03	9.3827000000E-01	0.000E+00	0.0
	2212	-1	0	0	0	0	0.0000000000E+00	0.0000000000E+00	-6.5000000000E+03	6.5000000000E+03	9.3827000000E-01	0.000E+00	0.0
	2212	1	0	0	0	0	0.0000000000E+00	0.0000000000E+00	6.2761913468E+03	6.2761913468E+03	9.3827000000E-01	0.000E+00	0.0
	2212	1	0	0	0	0	0.0000000000E+00	0.0000000000E+00	-5.2853951385E+03	5.2853951385E+03	9.3827000000E-01	0.000E+00	0.0
	51	2	1	2	0	0	2.2716138764E+01	4.9063401364E+01	-1.1339145381E+03	1.5414414464E+03	1.0427637857E+03	0.000E+00	0.0
	1000022	2	5	5	0	0	-2.2716138764E+01	-4.9063401364E+01	-6.9308808949E+02	1.1109559373E+03	8.6656145457E+02	0.000E+00	0.0
	14	1	6	6	0	0	-2.2689155816E+02	1.6358831101E+02	-3.2083463324E+02	5.3553783858E+02	3.2500000000E+02	0.000E+00	0.0
	-14	1	6	6	0	0	2.0417541940E+02	-2.1265171237E+02	-3.7225345624E+02	5.7541809873E+02	3.2500000000E+02	0.000E+00	0.0
	25	2	5	5	0	0	2.2716138764E+01	4.9063401364E+01	-2.9770811890E+02	3.2745757740E+02	1.2520024212E+02	0.000E+00	0.0
	-5	1	9	9	0	501	-5.1644140312E+01	2.1399196544E+01	-1.0531445334E+02	1.1930485876E+02	4.1800000000E+00	0.000E+00	0.0
	5	1	9	9	501	0	7.4360279076E+01	2.7664204820E+01	-1.9239366556E+02	2.0815271864E+02	4.1800000000E+00	0.000E+00	0.0
</event>
<event>
    11  -1  1.0000000E+00  1.0000000E+00  -1.0000000E+00  -1.0000000E+00
	2212	-1	0	0	0	0	0.0000000000E+00	0.0000000000E+00	6.5000000000E+03	6.5000000000E+03	9.3827000000E-01	0.000E+00	0.0
	2212	-1	0	0	0	0	0.0000000000E+00	0.0000000000E+00	-6.5000000000E+03	6.5000000000E+03	9.3827000000E-01	0.000E+00	0.0
	2212	1	0	0	0	0	0.0000000000E+00	0.0000000000E+00	6.1767924765E+03	6.1767924765E+03	9.3827000000E-01	0.000E+00	0.0
	2212	1	0	0	0	0	0.0000000000E+00	0.0000000000E+00	-5.6440430025E+03	5.6440430025E+03	9.3827000000E-01	0.000E+00	0.0
	51	2	1	2	0	0	2.1273746712E+01	3.3077190962E+01	-3.9884607273E+02	1.1257139193E+03	1.0519538800E+03	0.000E+00	0.0
	1000022	2	5	5	0	0	-2.1273746712E+01	-3.3077190962E+01	-5.7956232881E+02	1.0398526938E+03	8.6246997573E+02	0.000E+00	0.0
	14	1	6	6	0	0	-1.5863593420E+01	4.0169724859E+01	-6.2283745018E+02	7.0385847280E+02	3.2500000000E+02	0.000E+00	0.0
	-14	1	6	6	0	0	-5.4101532922E+00	-7.3246915821E+01	4.3275121370E+01	3.3599422103E+02	3.2500000000E+02	0.000E+00	0.0
	25	2	5	5	0	0	2.1273746712E+01	3.3077190962E+01	4.6812854761E+01	1.3931182721E+02	1.2517854835E+02	0.000E+00	0.0
	-5	1	9	9	0	501	4.9225181189E+01	6.4484608067E+01	7.4644859982E+00	8.1575572887E+01	4.1800000000E+00	0.000E+00	0.0
	5	1	9	9	501	0	-2.7951434476E+01	-3.1407417105E+01	3.9348368763E+01	5.7736254319E+01	4.1800000000E+00	0.000E+00	0.0
</event>
<event>
    11  -1  1.0000000E+00  1.0000000E+00  -1.0000000E+00  -1.0000000E+00
	2212	-1	0	0	0	0	0.0000000000E+00	0.0000000000E+00	6.5000000000E+03	6.5000000000E+03	9.3827000000E-01	0.000E+00	0.0
	2212	-1	0	0	0	0	0.0000000000E+00	0.0000000000E+00	-6.5000000000E+03	6.5000000000E+03	9.3827000000E-01	0.000E+00	0.0
	2212	1	0	0	0	0	0.0000000000E+00	0.0000000000E+00	6.3021772078E+03	6.3021772078E+03	9.3827000000E-01	0.000E+00	0.0
	2212	1	0	0	0	0	0.0000000000E+00	0.0000000000E+00	-5.1041839293E+03	5.1041839293E+03	9.3827000000E-01	0.000E+00	0.0
	51	2	1	2	0	0	6.7955084369E+01	-2.8056097933E+01	-1.3977088908E+03	1.7502834374E+03	1.0509504887E+03	0.000E+00	0.0
	1000022	2	5	5	0	0	-6.7955084369E+01	2.8056097933E+01	-7.9168793088E+02	1.1621768608E+03	8.4763213585E+02	0.000E+00	0.0
	14	1	6	6	0	0	-1.9962699774E+02	-1.3695275695E+02	-6.1437693363E+02	7.3599661170E+02	3.2500000000E+02	0.000E+00	0.0
	-14	1	6	6	0	0	1.3167191337E+02	1.6500885488E+02	-1.7731099725E+02	4.2618024908E+02	3.2500000000E+02	0.000E+00	0.0
	25	2	5	5	0	0	6.7955084369E+01	-2.8056097933E+01	-4.0630534762E+02	4.3146200203E+02	1.2518141063E+02	0.000E+00	0.0
	-5	1	9	9	0	501	2.4894181297E+00	-5.4944810219E+00	8.3081167260E+00	1.1085293314E+01	4.1800000000E+00	0.000E+00	0.0
	5	1	9	9	501	0	6.5465666240E+01	-2.2561616911E+01	-4.1461346435E+02	4.2037670872E+02	4.1800000000E+00	0.000E+00	0.0
</event>
<event>
    11  -1  1.0000000E+00  1.0000000E+00  -1.0000000E+00  -1.0000000E+00
	2212	-1	0	0	0	0	0.0000000000E+00	0.0000000000E+00	6.5000000000E+03	6.5000000000E+03	9.3827000000E-01	0.000E+00	0.0
	2212	-1	0	0	0	0	0.0000000000E+00	0.0000000000E+00	-6.5000000000E+03	6.5000000000E+03	9.3827000000E-01	0.000E+00	0.0
	2212	1	0	0	0	0	0.0000000000E+00	0.0000000000E+00	6.2061720001E+03	6.2061720001E+03	9.3827000000E-01	0.000E+00	0.0
	2212	1	0	0	0	0	0.0000000000E+00	0.0000000000E+00	-5.5551873552E+03	5.5551873552E+03	9.3827000000E-01	0.000E+00	0.0
	51	2	1	2	0	0	-4.9217460417E+01	-9.1781612790E+01	-5.4118537662E+02	1.1891919415E+03	1.0537787429E+03	0.000E+00	0.0
	1000022	2	5	5	0	0	4.9217460417E+01	9.1781612790E+01	-6.4920840108E+02	1.0757925369E+03	8.5147625420E+02	0.000E+00	0.0
	14	1	6	6	0	0	9.1938128703E+01	8.3659787620E+01	5.7818590538E-01	3.4796108097E+02	3.2500000000E+02	0.000E+00	0.0
	-14	1	6	6	0	0	-4.2720668286E+01	8.1218251694E+00	-6.4978658699E+02	7.2783145588E+02	3.2500000000E+02	0.000E+00	0.0
	25	2	5	5	0	0	-4.9217460417E+01	-9.1781612790E+01	-1.7762438091E+00	1.6284810787E+02	1.2518038320E+02	0.000E+00	0.0
	-5	1	9	9	0	501	-7.2320208701E+01	-9.4549047016E+00	1.7441772998E+01	7.5108559132E+01	4.1800000000E+00	0.000E+00	0.0
	5	1	9	9	501	0	2.3102748284E+01	-8.2326708088E+01	-1.9218016808E+01	8.7739548739E+01	4.1800000000E+00	0.000E+00	0.0
</event>
<event>
    11  -1  1.0000000E+00  1.0000000E+00  -1.0000000E+00  -1.0000000E+00
	2212	-1	0	0	0	0	0.0000000000E+00	0.0000000000E+00	6.5000000000E+03	6.5000000000E+03	9.3827000000E-01	0.000E+00	0.0
	2212	-1	0	0	0	0	0.0000000000E+00	0.0000000000E+00	-6.5000000000E+03	6.5000000000E+03	9.3827000000E-01	0.000E+00	0.0
	2212	1	0	0	0	0	0.0000000000E+00	0.0000000000E+00	5.4619466162E+03	5.4619466162E+03	9.3827000000E-01	0.000E+00	0.0
	2212	1	0	0	0	0	0.0000000000E+00	0.0000000000E+00	-6.2353082990E+03	6.2353082990E+03	9.3827000000E-01	0.000E+00	0.0
	51	2	1	2	0	0	1.5107821291E+02	-1.1260164952E+00	8.4498758302E+02	1.3549488452E+03	1.0483589382E+03	0.000E+00	0.0
	1000022	2	5	5	0	0	-1.5107821291E+02	1.1260164952E+00	5.6114783296E+02	1.0137177725E+03	8.3060877530E+02	0.000E+00	0.0
	14	1	6	6	0	0	-1.8536213290E+02	2.0961974061E+02	4.2249983453E+02	6.0202214755E+02	3.2500000000E+02	0.000E+00	0.0
	-14	1	6	6	0	0	3.4283919994E+01	-2.0849372411E+02	1.3864799843E+02	4.1169562499E+02	3.2500000000E+02	0.000E+00	0.0
	25	2	5	5	0	0	1.5107821291E+02	-1.1260164952E+00	2.1221384994E+02	2.8902731226E+02	1.2520453186E+02	0.000E+00	0.0
	-5	1	9	9	0	501	2.6265201571E+01	-5.4299721790E+01	6.3314388325E+01	8.7547157401E+01	4.1800000000E+00	0.000E+00	0.0
	5	1	9	9	501	0	1.2481301134E+02	5.3173705294E+01	1.4889946161E+02	2.0148015486E+02	4.1800000000E+00	0.000E+00	0.0
</event>
<event>
    11  -1  1.0000000E+00  1.0000000E+00  -1.0000000E+00  -1.0000000E+00
	2212	-1	0	0	0	0	0.0000000000E+00	0.0000000000E+00	6.5000000000E+03	6.5000000000E+03	9.3827000000E-01	0.000E+00	0.0
	2212	-1	0	0	0	0	0.0000000000E+00	0.0000000000E+00	-6.5000000000E+03	6.5000000000E+03	9.3827000000E-01	0.000E+00	0.0
	2212	1	0	0	0	0	0.0000000000E+00	0.0000000000E+00	5.1427834318E+03	5.1427834318E+03	9.3827000000E-01	0.000E+00	0.0
	2212	1	0	0	0	0	0.0000000000E+00	0.0000000000E+00	-6.0870810435E+03	6.0870810435E+03	9.3827000000E-01	0.000E+00	0.0
	51	2	1	2	0	0	7.9792074679E+01	-4.6384099887E+02	1.1853445262E+03	1.9667838441E+03	1.4972246980E+03	0.000E+00	0.0
	1000022	2	5	5	0	0	-7.9792074679E+01	4.6384099887E+02	4.3049626883E+02	1.0621946877E+03	8.4936168368E+02	0.000E+00	0.0
	14	1	6	6	0	0	-2.4460292165E+02	1.9351134287E+02	2.0889397344E+01	4.5093081068E+02	3.2500000000E+02	0.000E+00	0.0
	-14	1	6	6	0	0	1.6481084697E+02	2.7032965600E+02	4.0960687148E+02	6.1126387703E+02	3.2500000000E+02	0.000E+00	0.0
	25	2	5	5	0	0	7.9792074679E+01	-4.6384099887E+02	5.1380134289E+02	7.0794083696E+02	1.2519249684E+02	0.000E+00	0.0
	-5	1	9	9	0	501	3.4098709917E+01	-1.7298043240E+02	2.8452086460E+02	3.3474549557E+02	4.1800000000E+00	0.000E+00	0.0
	5	1	9	9	501	0	4.5693364762E+01	-2.9086056647E+02	2.2928047828E+02	3.7319534138E+02	4.1800000000E+00	0.000E+00	0.0
</event>
<event>
    11  -1  1.0000000E+00  1.0000000E+00  -1.0000000E+00  -1.0000000E+00
	2212	-1	0	0	0	0	0.0000000000E+00	0.0000000000E+00	6.5000000000E+03	6.5000000000E+03	9.3827000000E-01	0.000E+00	0.0
	2212	-1	0	0	0	0	0.0000000000E+00	0.0000000000E+00	-6.5000000000E+03	6.5000000000E+03	9.3827000000E-01	0.000E+00	0.0
	2212	1	0	0	0	0	0.0000000000E+00	0.0000000000E+00	5.0865254491E+03	5.0865254491E+03	9.3827000000E-01	0.000E+00	0.0
	2212	1	0	0	0	0	0.0000000000E+00	0.0000000000E+00	-6.3095423072E+03	6.3095423072E+03	9.3827000000E-01	0.000E+00	0.0
	51	2	1	2	0	0	-5.8987737279E+01	-7.3454270206E+00	1.3914695652E+03	1.7368216566E+03	1.0377034294E+03	0.000E+00	0.0
	1000022	2	5	5	0	0	5.8987737279E+01	7.3454270206E+00	8.5863069743E+02	1.2140848163E+03	8.5628369017E+02	0.000E+00	0.0
	14	1	6	6	0	0	-2.1379620597E+02	-7.4799424976E+01	2.5292685376E+02	4.7000081385E+02	3.2500000000E+02	0.000E+00	0.0
	-14	1	6	6	0	0	2.7278394325E+02	8.2144851997E+01	6.0570384367E+02	7.4408400241E+02	3.2500000000E+02	0.000E+00	0.0
	25	2	5	5	0	0	-5.8987737279E+01	-7.3454270206E+00	3.6438616067E+02	3.8984742753E+02	1.2518080609E+02	0.000E+00	0.0
	-5	1	9	9	0	501	-3.3435853287E+01	-6.5589755167E+01	2.1966758349E+02	2.3171381466E+02	4.1800000000E+00	0.000E+00	0.0
	5	1	9	9	501	0	-2.5551883992E+01	5.8244328146E+01	1.4471857719E+02	1.5813361287E+02	4.1800000000E+00	0.000E+00	0.0
</event>
<event>
    11  -1  1.0000000E+00  1.0000000E+00  -1.0000000E+00  -1.0000000E+00
	2212	-1	0	0	0	0	0.0000000000E+00	0.0000000000E+00	6.5000000000E+03	6.5000000000E+03	9.3827000000E-01	0.000E+00	0.0
	2212	-1	0	0	0	0	0.0000000000E+00	0.0000000000E+00	-6.5000000000E+03	6.5000000000E+03	9.3827000000E-01	0.000E+00	0.0
	2212	1	0	0	0	0	0.0000000000E+00	0.0000000000E+00	5.9462988303E+03	5.9462988303E+03	9.3827000000E-01	0.000E+00	0.0
	2212	1	0	0	0	0	0.0000000000E+00	0.0000000000E+00	-6.0028870032E+03	6.0028870032E+03	9.3827000000E-01	0.000E+00	0.0
	51	2	1	2	0	0	-1.0030477186E+02	8.4000092912E+01	6.1459851886E+01	1.0591990217E+03	1.0492893744E+03	0.000E+00	0.0
	1000022	2	5	5	0	0	1.0030477186E+02	-8.4000092912E+01	4.2387248489E+01	8.6918987320E+02	8.5824081350E+02	0.000E+00	0.0
	14	1	6	6	0	0	-9.0777472010E+01	1.9581602105E+02	-4.1175256593E+01	3.9230710583E+02	3.2500000000E+02	0.000E+00	0.0
	-14	1	6	6	0	0	1.9108224387E+02	-2.7981611397E+02	8.3562505082E+01	4.7688276737E+02	3.2500000000E+02	0.000E+00	0.0
	25	2	5	5	0	0	-1.0030477186E+02	8.4000092912E+01	1.4200924424E+01	1.8162429331E+02	1.2517449740E+02	0.000E+00	0.0
	-5	1	9	9	0	501	1.4474976501E+01	2.9544553263E+01	-3.2280786173E+01	4.6280958592E+01	4.1800000000E+00	0.000E+00	0.0
	5	1	9	9	501	0	-1.1477974836E+02	5.4455539649E+01	4.6481710597E+01	1.3534333472E+02	4.1800000000E+00	0.000E+00	0.0
</event>
<event>
    11  -1  1.0000000E+00  1.0000000E+00  -1.0000000E+00  -1.0000000E+00
	2212	-1	0	0	0	0	0.0000000000E+00	0.0000000000E+00	6.5000000000E+03	6.5000000000E+03	9.3827000000E-01	0.000E+00	0.0
	2212	-1	0	0	0	0	0.0000000000E+00	0.0000000000E+00	-6.5000000000E+03	6.5000000000E+03	9.3827000000E-01	0.000E+00	0.0
	2212	1	0	0	0	0	0.0000000000E+00	0.0000000000E+00	5.0160599942E+03	5.0160599942E+03	9.3827000000E-01	0.000E+00	0.0
	2212	1	0	0	0	0	0.0000000000E+00	0.0000000000E+00	-6.3129647369E+03	6.3129647369E+03	9.3827000000E-01	0.000E+00	0.0
	51	2	1	2	0	0	9.6500275415E+01	-4.0899522366E+01	1.4717764707E+03	1.8130933488E+03	1.0536585963E+03	0.000E+00	0.0
	1000022	2	5	5	0	0	-9.6500275415E+01	4.0899522366E+01	8.9730927515E+02	1.2393156377E+03	8.4838330983E+02	0.000E+00	0.0
	14	1	6	6	0	0	-6.4492801393E+01	-1.1267829070E+02	9.9751878469E+01	3.6391091751E+02	3.2500000000E+02	0.000E+00	0.0
	-14	1	6	6	0	0	-3.2007474023E+01	1.5357781306E+02	7.9755739668E+02	8.7540472015E+02	3.2500000000E+02	0.000E+00	0.0
	25	2	5	5	0	0	9.6500275415E+01	-4.0899522366E+01	3.9959546757E+02	4.3165963126E+02	1.2517358138E+02	0.000E+00	0.0
	-5	1	9	9	0	501	-2.5366820108E+01	7.3473201712E+00	3.3984526265E+01	4.3242098718E+01	4.1800000000E+00	0.000E+00	0.0
	5	1	9	9	501	0	1.2186709552E+02	-4.8246842537E+01	3.6561094130E+02	3.8841753254E+02	4.1800000000E+00	0.000E+00	0.0
</event>
<event>
    11  -1  1.0000000E+00  1.0000000E+00  -1.0000000E+00  -1.0000000E+00
	2212	-1	0	0	0	0	0.0000000000E+00	0.0000000000E+00	6.5000000000E+03	6.5000000000E+03	9.3827000000E-01	0.000E+00	0.0
	2212	-1	0	0	0	0	0.0000000000E+00	0.0000000000E+00	-6.5000000000E+03	6.5000000000E+03	9.3827000000E-01	0.000E+00	0.0
	2212	1	0	0	0	0	0.0000000000E+00	0.0000000000E+00	5.9754244024E+03	5.9754244024E+03	9.3827000000E-01	0.000E+00	0.0
	2212	1	0	0	0	0	0.0000000000E+00	0.0000000000E+00	-5.9684030944E+03	5.9684030944E+03	9.3827000000E-01	0.000E+00	0.0
	51	2	1	2	0	0	-3.2839939488E+01	-8.7556728863E+01	1.1068739925E+02	1.0660428699E+03	1.0561491646E+03	0.000E+00	0.0
	1000022	2	5	5	0	0	3.2839939488E+01	8.7556728863E+01	-1.2350004000E+02	8.6128448308E+02	8.4723907991E+02	0.000E+00	0.0
	14	1	6	6	0	0	-1.0561083016E+02	7.4486676232E+01	-3.0486487808E+02	4.6397144984E+02	3.2500000000E+02	0.000E+00	0.0
	-14	1	6	6	0	0	1.3845076965E+02	1.3070052630E+01	1.8136483808E+02	3.9731303324E+02	3.2500000000E+02	0.000E+00	0.0
	25	2	5	5	0	0	-3.2839939488E+01	-8.7556728863E+01	1.1647873205E+02	1.9488802015E+02	1.2517748593E+02	0.000E+00	0.0
	-5	1	9	9	0	501	2.2466543313E+01	-2.6212208908E+01	-1.6342993636E+01	3.8423837722E+01	4.1800000000E+00	0.000E+00	0.0
	5	1	9	9	501	0	-5.5306482802E+01	-6.1344519954E+01	1.3282172569E+02	1.5646418243E+02	4.1800000000E+00	0.000E+00	0.0
</event>
<event>
    11  -1  1.0000000E+00  1.0000000E+00  -1.0000000E+00  -1.0000000E+00
	2212	-1	0	0	0	0	0.0000000000E+00	0.0000000000E+00	6.5000000000E+03	6.5000000000E+03	9.3827000000E-01	0.000E+00	0.0
	2212	-1	0	0	0	0	0.0000000000E+00	0.0000000000E+00	-6.5000000000E+03	6.5000000000E+03	9.3827000000E-01	0.000E+00	0.0
	2212	1	0	0	0	0	0.0000000000E+00	0.0000000000E+00	6.1602822030E+03	6.1602822030E+03	9.3827000000E-01	0.000E+00	0.0
	2212	1	0	0	0	0	0.0000000000E+00	0.0000000000E+00	-5.6936178887E+03	5.6936178887E+03	9.3827000000E-01	0.000E+00	0.0
	51	2	1	2	0	0	-5.4356592991E+01	-6.6543874538E+01	-5.7209538841E+02	1.1960122397E+03	1.0467900543E+03	0.000E+00	0.0
	1000022	2	5	5	0	0	5.4356592991E+01	6.6543874538E+01	-2.8523659912E+02	9.0954432907E+02	8.5937665935E+02	0.000E+00	0.0
	14	1	6	6	0	0	-1.8864911138E+02	9.6999222987E+01	-3.1735356705E+02	5.0133384386E+02	3.2500000000E+02	0.000E+00	0.0
	-14	1	6	6	0	0	2.4300570437E+02	-3.0455348450E+01	3.2116967934E+01	4.0821048521E+02	3.2500000000E+02	0.000E+00	0.0
	25	2	5	5	0	0	-5.4356592991E+01	-6.6543874538E+01	-1.8142771515E+02	2.3655557929E+02	1.2513912190E+02	0.000E+00	0.0
	-5	1	9	9	0	501	-6.0465935499E+01	-7.5772138126E+00	-1.9582890620E+01	6.4144411526E+01	4.1800000000E+00	0.000E+00	0.0
	5	1	9	9	501	0	6.1093425084E+00	-5.8966660725E+01	-1.6184482453E+02	1.7241116777E+02	4.1800000000E+00	0.000E+00	0.0
</event>
<event>
    11  -1  1.0000000E+00  1.0000000E+00  -1.0000000E+00  -1.0000000E+00
	2212	-1	0	0	0	0	0.0000000000E+00	0.0000000000E+00	6.5000000000E+03	6.5000000000E+03	9.3827000000E-01	0.000E+00	0.0
	2212	-1	0	0	0	0	0.0000000000E+00	0.0000000000E+00	-6.5000000000E+03	6.5000000000E+03	9.3827000000E-01	0.000E+00	0.0
	2212	1	0	0	0	0	0.0000000000E+00	0.0000000000E+00	6.3017697508E+03	6.3017697508E+03	9.3827000000E-01	0.000E+00	0.0
	2212	1	0	0	0	0	0.0000000000E+00	0.0000000000E+00	-5.1368060882E+03	5.1368060882E+03	9.3827000000E-01	0.000E+00	0.0
	51	2	1	2	0	0	-9.3801661219E+01	-4.4492364119E+01	-1.1121464634E+03	1.5259597483E+03	1.0396658479E+03	0.000E+00	0.0
	1000022	2	5	5	0	0	9.3801661219E+01	4.4492364119E+01	-1.0368686727E+03	1.3544083383E+03	8.6518609573E+02	0.000E+00	0.0
	14	1	6	6	0	0	-2.0226870592E+02	-9.9463941016E+01	-3.6173242894E+02	5.3598605869E+02	3.2500000000E+02	0.000E+00	0.0
	-14	1	6	6	0	0	2.9607036714E+02	1.4395630514E+02	-6.7513624379E+02	8.1842227962E+02	3.2500000000E+02	0.000E+00	0.0
	25	2	5	5	0	0	-9.3801661219E+01	-4.4492364119E+01	-1.2809498989E+02	2.0701582271E+02	1.2517548604E+02	0.000E+00	0.0
	-5	1	9	9	0	501	1.4613662459E+01	2.1873004497E+01	-1.8468860734E-01	2.6636327939E+01	4.1800000000E+00	0.000E+00	0.0
	5	1	9	9	501	0	-1.0841532368E+02	-6.6365368616E+01	-1.2791030128E+02	1.8037949477E+02	4.1800000000E+00	0.000E+00	0.0
</event>
<event>
    11  -1  1.0000000E+00  1.0000000E+00  -1.0000000E+00  -1.0000000E+00
	2212	-1	0	0	0	0	0.0000000000E+00	0.0000000000E+00	6.5000000000E+03	6.5000000000E+03	9.3827000000E-01	0.000E+00	0.0
	2212	-1	0	0	0	0	0.0000000000E+00	0.0000000000E+00	-6.5000000000E+03	6.5000000000E+03	9.3827000000E-01	0.000E+00	0.0
	2212	1	0	0	0	0	0.0000000000E+00	0.0000000000E+00	6.2167250971E+03	6.2167250971E+03	9.3827000000E-01	0.000E+00	0.0
	2212	1	0	0	0	0	0.0000000000E+00	0.0000000000E+00	-5.5536578158E+03	5.5536578158E+03	9.3827000000E-01	0.000E+00	0.0
	51	2	1	2	0	0	-5.6066646058E+01	8.8256383604E+01	-7.4055061389E+02	1.2773597110E+03	1.0355191748E+03	0.000E+00	0.0
	1000022	2	5	5	0	0	5.6066646058E+01	-8.8256383604E+01	-4.7851146265E+02	9.8331518875E+02	8.5264464022E+02	0.000E+00	0.0
	14	1	6	6	0	0	1.0756232648E+02	-5.4117649033E+01	-5.4500869197E+02	6.4587757999E+02	3.2500000000E+02	0.000E+00	0.0
	-14	1	6	6	0	0	-5.1495680423E+01	-3.4138734571E+01	6.6497229319E+01	3.3743760876E+02	3.2500000000E+02	0.000E+00	0.0
	25	2	5	5	0	0	-5.6066646058E+01	8.8256383604E+01	-1.8455581860E+02	2.4630189833E+02	1.2518433168E+02	0.000E+00	0.0
	-5	1	9	9	0	501	-6.7345522582E+01	6.5235749491E+01	-4.4520506328E+01	1.0387815125E+02	4.1800000000E+00	0.000E+00	0.0
	5	1	9	9	501	0	1.1278876523E+01	2.3020634113E+01	-1.4003531227E+02	1.4242374709E+02	4.1800000000E+00	0.000E+00	0.0
</event>
<event>
    11  -1  1.0000000E+00  1.0000000E+00  -1.0000000E+00  -1.0000000E+00
	2212	-1	0	0	0	0	0.0000000000E+00	0.0000000000E+00	6.5000000000E+03	6.5000000000E+03	9.3827000000E-01	0.000E+00	0.0
	2212	-1	0	0	0	0	0.0000000000E+00	0.0000000000E+00	-6.5000000000E+03	6.5000000000E+03	9.3827000000E-01	0.000E+00	0.0
	2212	1	0	0	0	0	0.0000000000E+00	0.0000000000E+00	5.9396146578E+03	5.9396146578E+03	9.3827000000E-01	0.000E+00	0.0
	2212	1	0	0	0	0	0.0000000000E+00	0.0000000000E+00	-6.0135299009E+03	6.0135299009E+03	9.3827000000E-01	0.000E+00	0.0
	51	2	1	2	0	0	8.9173965670E+01	5.7221769303E+01	1.6359750707E+02	1.0622774229E+03	1.0442427169E+03	0.000E+00	0.0
	1000022	2	5	5	0	0	-8.9173965670E+01	-5.7221769303E+01	-2.8323284123E+01	8.5360014619E+02	8.4652505817E+02	0.000E+00	0.0
	14	1	6	6	0	0	-1.1031304785E+02	1.0603822063E+02	2.1204467676E+02	4.1713429217E+02	3.2500000000E+02	0.000E+00	0.0
	-14	1	6	6	0	0	2.1139082178E+01	-1.6325998993E+02	-2.4036796088E+02	4.3646585402E+02	3.2500000000E+02	0.000E+00	0.0
	25	2	5	5	0	0	8.9173965670E+01	5.7221769303E+01	1.0223852727E+02	1.9325529510E+02	1.2517414106E+02	0.000E+00	0.0
	-5	1	9	9	0	501	9.4495812944E+01	8.9960439332E+01	8.2853149765E+01	1.5461065984E+02	4.1800000000E+00	0.000E+00	0.0
	5	1	9	9	501	0	-5.3218472744E+00	-3.2738670029E+01	1.9385377507E+01	3.8644635265E+01	4.1800000000E+00	0.000E+00	0.0
</event>
<event>
    11  -1  1.0000000E+00  1.0000000E+00  -1.0000000E+00  -1.0000000E+00
	2212	-1	0	0	0	0	0.0000000000E+00	0.0000000000E+00	6.5000000000E+03	6.5000000000E+03	9.3827000000E-01	0.000E+00	0.0
	2212	-1	0	0	0	0	0.0000000000E+00	0.0000000000E+00	-6.5000000000E+03	6.5000000000E+03	9.3827000000E-01	0.000E+00	0.0
	2212	1	0	0	0	0	0.0000000000E+00	0.0000000000E+00	4.9754275346E+03	4.9754275346E+03	9.3827000000E-01	0.000E+00	0.0
	2212	1	0	0	0	0	0.0000000000E+00	0.0000000000E+00	-6.3210032845E+03	6.3210032845E+03	9.3827000000E-01	0.000E+00	0.0
	51	2	1	2	0	0	3.4649917951E+01	9.7840764970E+01	1.1961894414E+03	1.5916081387E+03	1.0447841191E+03	0.000E+00	0.0
	1000022	2	5	5	0	0	-3.4649917951E+01	-9.7840764970E+01	1.2621800045E+03	1.5208159843E+03	8.4202699613E+02	0.000E+00	0.0
	14	1	6	6	0	0	-2.0059394216E+02	1.3182630744E+02	7.4474575040E+02	8.4728232467E+02	3.2500000000E+02	0.000E+00	0.0
	-14	1	6	6	0	0	1.6594402421E+02	-2.2966707241E+02	5.1743425407E+02	6.7353365959E+02	3.2500000000E+02	0.000E+00	0.0
	25	2	5	5	0	0	3.4649917951E+01	9.7840764970E+01	8.3395745410E+01	1.8275319664E+02	1.2518166170E+02	0.000E+00	0.0
	-5	1	9	9	0	501	6.8779766112E+01	6.3349278981E+01	9.2702967419E+00	9.4059545903E+01	4.1800000000E+00	0.000E+00	0.0
	5	1	9	9	501	0	-3.4129848162E+01	3.4491485990E+01	7.4125448668E+01	8.8693650740E+01	4.1800000000E+00	0.000E+00	0.0
</event>
<event>
    11  -1  1.0000000E+00  1.0000000E+00  -1.0000000E+00  -1.0000000E+00
	2212	-1	0	0	0	0	0.0000000000E+00	0.0000000000E+00	6.5000000000E+03	6.5000000000E+03	9.3827000000E-01	0.000E+00	0.0
	2212	-1	0	0	0	0	0.0000000000E+00	0.0000000000E+00	-6.5000000000E+03	6.5000000000E+03	9.3827000000E-01	0.000E+00	0.0
	2212	1	0	0	0	0	0.0000000000E+00	0.0000000000E+00	6.2780482447E+03	6.2780482447E+03	9.3827000000E-01	0.000E+00	0.0
	2212	1	0	0	0	0	0.0000000000E+00	0.0000000000E+00	-5.3062833821E+03	5.3062833821E+03	9.3827000000E-01	0.000E+00	0.0
	51	2	1	2	0	0	1.1703372662E+02	5.3503194825E+00	-9.7334723671E+02	1.4215907840E+03	1.0294610215E+03	0.000E+00	0.0
	1000022	2	5	5	0	0	-1.1703372662E+02	-5.3503194825E+00	-8.1458611015E+02	1.1830729470E+03	8.4993267268E+02	0.000E+00	0.0
	14	1	6	6	0	0	7.0368769281E+01	-1.4536601441E+02	-1.2166363995E+02	3.8276635578E+02	3.2500000000E+02	0.000E+00	0.0
	-14	1	6	6	0	0	-1.8740249590E+02	1.4001569493E+02	-6.9292247020E+02	8.0030659125E+02	3.2500000000E+02	0.000E+00	0.0
	25	2	5	5	0	0	1.1703372662E+02	5.3503194825E+00	-1.5717875239E+02	2.3259542616E+02	1.2517968278E+02	0.000E+00	0.0
	-5	1	9	9	0	501	4.2911225322E+01	-4.6866070554E+01	-1.7543073266E+01	6.6053263715E+01	4.1800000000E+00	0.000E+00	0.0
	5	1	9	9	501	0	7.4122501293E+01	5.2216390036E+01	-1.3963567912E+02	1.6654216244E+02	4.1800000000E+00	0.000E+00	0.0
</event>
<event>
    11  -1  1.0000000E+00  1.0000000E+00  -1.0000000E+00  -1.0000000E+00
	2212	-1	0	0	0	0	0.0000000000E+00	0.0000000000E+00	6.5000000000E+03	6.5000000000E+03	9.3827000000E-01	0.000E+00	0.0
	2212	-1	0	0	0	0	0.0000000000E+00	0.0000000000E+00	-6.5000000000E+03	6.5000000000E+03	9.3827000000E-01	0.000E+00	0.0
	2212	1	0	0	0	0	0.0000000000E+00	0.0000000000E+00	6.2764872585E+03	6.2764872585E+03	9.3827000000E-01	0.000E+00	0.0
	2212	1	0	0	0	0	0.0000000000E+00	0.0000000000E+00	-5.2883825575E+03	5.2883825575E+03	9.3827000000E-01	0.000E+00	0.0
	51	2	1	2	0	0	-7.5830014754E+01	-3.7039394774E+00	-1.0097673198E+03	1.4521162816E+03	1.0407918835E+03	0.000E+00	0.0
	1000022	2	5	5	0	0	7.5830014754E+01	3.7039394774E+00	-8.2954947043E+02	1.2193202988E+03	8.9040763518E+02	0.000E+00	0.0
	14	1	6	6	0	0	6.1379816825E+00	-2.9935797440E+02	-4.5112127732E+02	6.3149685550E+02	3.2500000000E+02	0.000E+00	0.0
	-14	1	6	6	0	0	6.9692033072E+01	3.0306191388E+02	-3.7842819310E+02	5.8782344326E+02	3.2500000000E+02	0.000E+00	0.0
	25	2	5	5	0	0	-7.5830014754E+01	-3.7039394774E+00	-1.5855523062E+02	2.1580988524E+02	1.2518080965E+02	0.000E+00	0.0
	-5	1	9	9	0	501	-4.9935379639E+01	5.5734109076E+00	4.2935803449E+00	5.0601504731E+01	4.1800000000E+00	0.000E+00	0.0
	5	1	9	9	501	0	-2.5894635115E+01	-9.2773503850E+00	-1.6284881096E+02	1.6520838051E+02	4.1800000000E+00	0.000E+00	0.0
</event>
<event>
    11  -1  1.0000000E+00  1.0000000E+00  -1.0000000E+00  -1.0000000E+00
	2212	-1	0	0	0	0	0.0000000000E+00	0.0000000000E+00	6.5000000000E+03	6.5000000000E+03	9.3827000000E-01	0.000E+00	0.0
	2212	-1	0	0	0	0	0.0000000000E+00	0.0000000000E+00	-6.5000000000E+03	6.5000000000E+03	9.3827000000E-01	0.000E+00	0.0
	2212	1	0	0	0	0	0.0000000000E+00	0.0000000000E+00	5.3186270416E+03	5.3186270416E+03	9.3827000000E-01	0.000E+00	0.0
	2212	1	0	0	0	0	0.0000000000E+00	0.0000000000E+00	-6.2679266155E+03	6.2679266155E+03	9.3827000000E-01	0.000E+00	0.0
	51	2	1	2	0	0	2.6094648472E+01	-6.8360601412E+01	8.0406677285E+02	1.3223230925E+03	1.0472157769E+03	0.000E+00	0.0
	1000022	2	5	5	0	0	-2.6094648472E+01	6.8360601412E+01	9.3551691324E+02	1.2678057424E+03	8.5251709831E+02	0.000E+00	0.0
	14	1	6	6	0	0	-2.1729822730E+02	-1.1731075379E+02	6.1979938172E+02	7.4212977715E+02	3.2500000000E+02	0.000E+00	0.0
	-14	1	6	6	0	0	1.9120357883E+02	1.8567135520E+02	3.1571753151E+02	5.2567596522E+02	3.2500000000E+02	0.000E+00	0.0
	25	2	5	5	0	0	2.6094648472E+01	-6.8360601412E+01	1.3782660662E+01	1.4564060055E+02	1.2516836777E+02	0.000E+00	0.0
	-5	1	9	9	0	501	6.0590414207E+01	-8.1649844207E+01	2.8430435317E+01	1.0565821031E+02	4.1800000000E+00	0.000E+00	0.0
	5	1	9	9	501	0	-3.4495765735E+01	1.3289242794E+01	-1.4647774654E+01	3.9982390249E+01	4.1800000000E+00	0.000E+00	0.0
</event>
<event>
    11  -1  1.0000000E+00  1.0000000E+00  -1.0000000E+00  -1.0000000E+00
	2212	-1	0	0	0	0	0.0000000000E+00	0.0000000000E+00	6.5000000000E+03	6.5000000000E+03	9.3827000000E-01	0.000E+00	0.0
	2212	-1	0	0	0	0	0.0000000000E+00	0.0000000000E+00	-6.5000000000E+03	6.5000000000E+03	9.3827000000E-01	0.000E+00	0.0
	2212	1	0	0	0	0	0.0000000000E+00	0.0000000000E+00	5.9801940211E+03	5.9801940211E+03	9.3827000000E-01	0.000E+00	0.0
	2212	1	0	0	0	0	0.0000000000E+00	0.0000000000E+00	-5.9436006435E+03	5.9436006435E+03	9.3827000000E-01	0.000E+00	0.0
	51	2	1	2	0	0	5.3599493435E+01	5.3340822322E+00	1.0911236347E+02	1.0824443240E+03	1.0755830273E+03	0.000E+00	0.0
	1000022	2	5	5	0	0	-5.3599493435E+01	-5.3340822322E+00	-1.7588543423E+02	8.8134092183E+02	8.6193084200E+02	0.000E+00	0.0
	14	1	6	6	0	0	-1.0678936237E+02	-1.2554421407E+02	1.5802354571E+02	3.9719234459E+02	3.2500000000E+02	0.000E+00	0.0
	-14	1	6	6	0	0	5.3189868938E+01	1.2021013183E+02	-3.3390897995E+02	4.8414857724E+02	3.2500000000E+02	0.000E+00	0.0
	25	2	5	5	0	0	5.3599493435E+01	5.3340822322E+00	1.3929205664E+02	1.9486441352E+02	1.2517389698E+02	0.000E+00	0.0
	-5	1	9	9	0	501	6.8634735356E+01	5.1805420810E+01	7.6241634158E+01	1.1499907696E+02	4.1800000000E+00	0.000E+00	0.0
	5	1	9	9	501	0	-1.5035241921E+01	-4.6471338578E+01	6.3050422483E+01	7.9865336562E+01	4.1800000000E+00	0.000E+00	0.0
</event>
<event>
    11  -1  1.0000000E+00  1.0000000E+00  -1.0000000E+00  -1.0000000E+00
	2212	-1	0	0	0	0	0.0000000000E+00	0.0000000000E+00	6.5000000000E+03	6.5000000000E+03	9.3827000000E-01	0.000E+00	0.0
	2212	-1	0	0	0	0	0.0000000000E+00	0.0000000000E+00	-6.5000000000E+03	6.5000000000E+03	9.3827000000E-01	0.000E+00	0.0
	2212	1	0	0	0	0	0.0000000000E+00	0.0000000000E+00	4.8714593522E+03	4.8714593522E+03	9.3827000000E-01	0.000E+00	0.0
	2212	1	0	0	0	0	0.0000000000E+00	0.0000000000E+00	-6.3266097777E+03	6.3266097777E+03	9.3827000000E-01	0.000E+00	0.0
	51	2	1	2	0	0	1.3399305285E+02	2.0199922744E+01	1.5973907321E+03	1.9234114033E+03	1.0627756583E+03	0.000E+00	0.0
	1000022	2	5	5	0	0	-1.3399305285E+02	-2.0199922744E+01	1.0556788843E+03	1.3619177000E+03	8.4970567836E+02	0.000E+00	0.0
	14	1	6	6	0	0	-2.4864981053E+01	-1.1649731091E+02	1.2938677339E+02	3.6953460983E+02	3.2500000000E+02	0.000E+00	0.0
	-14	1	6	6	0	0	-1.0912807180E+02	9.6297388165E+01	9.2629211088E+02	9.9238309020E+02	3.2500000000E+02	0.000E+00	0.0
	25	2	5	5	0	0	1.3399305285E+02	2.0199922744E+01	3.9947154116E+02	4.4001317007E+02	1.2518746962E+02	0.000E+00	0.0
	-5	1	9	9	0	501	-4.4493093408E+00	-2.1929882607E+01	1.0683793242E+01	2.5146211301E+01	4.1800000000E+00	0.000E+00	0.0
	5	1	9	9	501	0	1.3844236219E+02	4.2129805352E+01	3.8878774792E+02	4.1486695877E+02	4.1800000000E+00	0.000E+00	0.0
</event>
<event>
    11  -1  1.0000000E+00  1.0000000E+00  -1.0000000E+00  -1.0000000E+00
	2212	-1	0	0	0	0	0.0000000000E+00	0.0000000000E+00	6.5000000000E+03	6.5000000000E+03	9.3827000000E-01	0.000E+00	0.0
	2212	-1	0	0	0	0	0.0000000000E+00	0.0000000000E+00	-6.5000000000E+03	6.5000000000E+03	9.3827000000E-01	0.000E+00	0.0
	2212	1	0	0	0	0	0.0000000000E+00	0.0000000000E+00	5.1114409318E+03	5.1114409318E+03	9.3827000000E-01	0.000E+00	0.0
	2212	1	0	0	0	0	0.0000000000E+00	0.0000000000E+00	-6.3114544501E+03	6.3114544501E+03	9.3827000000E-01	0.000E+00	0.0
	51	2	1	2	0	0	-4.9506939542E+01	-9.8528642258E+01	1.1604456479E+03	1.5511348955E+03	1.0233408680E+03	0.000E+00	0.0
	1000022	2	5	5	0	0	4.9506939542E+01	9.8528642258E+01	1.0481879558E+03	1.3515376184E+03	8.4604793759E+02	0.000E+00	0.0
	14	1	6	6	0	0	-5.2165943625E+00	3.0499929899E+02	6.9812445055E+02	8.2828408997E+02	3.2500000000E+02	0.000E+00	0.0
	-14	1	6	6	0	0	5.4723533905E+01	-2.0647065673E+02	3.5006350530E+02	5.2325352841E+02	3.2500000000E+02	0.000E+00	0.0
	25	2	5	5	0	0	-4.9506939542E+01	-9.8528642258E+01	1.5182556248E+02	2.2556699966E+02	1.2518242489E+02	0.000E+00	0.0
	-5	1	9	9	0	501	3.2595625974E+01	-2.7736881008E+01	5.4157886215E+00	4.3342964448E+01	4.1800000000E+00	0.000E+00	0.0
	5	1	9	9	501	0	-8.2102565516E+01	-7.0791761249E+01	1.4640977386E+02	1.8222403521E+02	4.1800000000E+00	0.000E+00	0.0
</event>
<event>
    11  -1  1.0000000E+00  1.0000000E+00  -1.0000000E+00  -1.0000000E+00
	2212	-1	0	0	0	0	0.0000000000E+00	0.0000000000E+00	6.5000000000E+03	6.5000000000E+03	9.3827000000E-01	0.000E+00	0.0
	2212	-1	0	0	0	0	0.0000000000E+00	0.0000000000E+00	-6.5000000000E+03	6.5000000000E+03	9.3827000000E-01	0.000E+00	0.0
	2212	1	0	0	0	0	0.0000000000E+00	0.0000000000E+00	4.8919188093E+03	4.8919188093E+03	9.3827000000E-01	0.000E+00	0.0
	2212	1	0	0	0	0	0.0000000000E+00	0.0000000000E+00	-6.3292917322E+03	6.3292917322E+03	9.3827000000E-01	0.000E+00	0.0
	51	2	1	2	0	0	1.1730385377E+02	-5.0955843548E+01	1.3487110221E+03	1.7127256440E+03	1.0478792957E+03	0.000E+00	0.0
	1000022	2	5	5	0	0	-1.1730385377E+02	5.0955843548E+01	1.2801698405E+03	1.5405884345E+03	8.4747932839E+02	0.000E+00	0.0
	14	1	6	6	0	0	1.5185794878E+02	1.8805042083E+02	7.1862551796E+02	8.2490692351E+02	3.2500000000E+02	0.000E+00	0.0
	-14	1	6	6	0	0	-2.6916180255E+02	-1.3709457728E+02	5.6154432251E+02	7.1568151102E+02	3.2500000000E+02	0.000E+00	0.0
	25	2	5	5	0	0	1.1730385377E+02	-5.0955843548E+01	1.5720308243E+02	2.3820102404E+02	1.2518077579E+02	0.000E+00	0.0
	-5	1	9	9	0	501	1.2337292301E+02	2.1608188356E+00	9.3131918626E+01	1.5464984299E+02	4.1800000000E+00	0.000E+00	0.0
	5	1	9	9	501	0	-6.0690692341E+00	-5.3116662384E+01	6.4071163801E+01	8.3551181051E+01	4.1800000000E+00	0.000E+00	0.0
</event>
<event>
    11  -1  1.0000000E+00  1.0000000E+00  -1.0000000E+00  -1.0000000E+00
	2212	-1	0	0	0	0	0.0000000000E+00	0.0000000000E+00	6.5000000000E+03	6.5000000000E+03	9.3827000000E-01	0.000E+00	0.0
	2212	-1	0	0	0	0	0.0000000000E+00	0.0000000000E+00	-6.5000000000E+03	6.5000000000E+03	9.3827000000E-01	0.000E+00	0.0
	2212	1	0	0	0	0	0.0000000000E+00	0.0000000000E+00	5.8611881552E+03	5.8611881552E+03	9.3827000000E-01	0.000E+00	0.0
	2212	1	0	0	0	0	0.0000000000E+00	0.0000000000E+00	-6.0680998383E+03	6.0680998383E+03	9.3827000000E-01	0.000E+00	0.0
	51	2	1	2	0	0	1.0816547315E+02	-5.8402063111E+01	1.3498810905E+02	1.0662758162E+03	1.0505292743E+03	0.000E+00	0.0
	1000022	2	5	5	0	0	-1.0816547315E+02	5.8402063111E+01	2.4334831700E+02	8.9151287801E+02	8.4880282617E+02	0.000E+00	0.0
	14	1	6	6	0	0	5.9420534037E+01	4.4004631481E+01	3.7581903786E+02	5.0232674294E+02	3.2500000000E+02	0.000E+00	0.0
	-14	1	6	6	0	0	-1.6758600719E+02	1.4397431630E+01	-1.3247072086E+02	3.8918613506E+02	3.2500000000E+02	0.000E+00	0.0
	25	2	5	5	0	0	1.0816547315E+02	-5.8402063111E+01	-3.6436633921E+01	1.7919912842E+02	1.2519636088E+02	0.000E+00	0.0
	-5	1	9	9	0	501	7.5599878956E+01	1.2225154575E+01	-6.0494502800E+01	9.7682410758E+01	4.1800000000E+00	0.000E+00	0.0
	5	1	9	9	501	0	3.2565594193E+01	-7.0627217685E+01	2.4057868879E+01	8.1516717660E+01	4.1800000000E+00	0.000E+00	0.0
</event>
<event>
    11  -1  1.0000000E+00  1.0000000E+00  -1.0000000E+00  -1.0000000E+00
	2212	-1	0	0	0	0	0.0000000000E+00	0.0000000000E+00	6.5000000000E+03	6.5000000000E+03	9.3827000000E-01	0.000E+00	0.0
	2212	-1	0	0	0	0	0.0000000000E+00	0.0000000000E+00	-6.5000000000E+03	6.5000000000E+03	9.3827000000E-01	0.000E+00	0.0
	2212	1	0	0	0	0	0.0000000000E+00	0.0000000000E+00	4.9630472261E+03	4.9630472261E+03	9.3827000000E-01	0.000E+00	0.0
	2212	1	0	0	0	0	0.0000000000E+00	0.0000000000E+00	-6.3135893542E+03	6.3135893542E+03	9.3827000000E-01	0.000E+00	0.0
	51	2	1	2	0	0	-1.6518318124E+02	2.3973547896E+01	1.3848185516E+03	1.7582946487E+03	1.0705220393E+03	0.000E+00	0.0
	1000022	2	5	5	0	0	1.6518318124E+02	-2.3973547896E+01	1.0690907144E+03	1.3730237873E+03	8.4520953048E+02	0.000E+00	0.0
	14	1	6	6	0	0	-1.3976653043E+02	-3.1999852012E+01	2.3086847445E+02	4.2365543317E+02	3.2500000000E+02	0.000E+00	0.0
	-14	1	6	6	0	0	3.0494971168E+02	8.0263041160E+00	8.3822224000E+02	9.4936835414E+02	3.2500000000E+02	0.000E+00	0.0
	25	2	5	5	0	0	-1.6518318124E+02	2.3973547896E+01	2.8145141364E+02	3.5033963240E+02	1.2515089064E+02	0.000E+00	0.0
	-5	1	9	9	0	501	1.0088729200E+01	-1.8667885709E+00	-6.0388323904E+00	1.2617735656E+01	4.1800000000E+00	0.000E+00	0.0
	5	1	9	9	501	0	-1.7527191044E+02	2.5840336467E+01	2.8749024603E+02	3.3772189675E+02	4.1800000000E+00	0.000E+00	0.0
</event>
<event>
    11  -1  1.0000000E+00  1.0000000E+00  -1.0000000E+00  -1.0000000E+00
	2212	-1	0	0	0	0	0.0000000000E+00	0.0000000000E+00	6.5000000000E+03	6.5000000000E+03	9.3827000000E-01	0.000E+00	0.0
	2212	-1	0	0	0	0	0.0000000000E+00	0.0000000000E+00	-6.5000000000E+03	6.5000000000E+03	9.3827000000E-01	0.000E+00	0.0
	2212	1	0	0	0	0	0.0000000000E+00	0.0000000000E+00	5.8092622244E+03	5.8092622244E+03	9.3827000000E-01	0.000E+00	0.0
	2212	1	0	0	0	0	0.0000000000E+00	0.0000000000E+00	-6.1188054167E+03	6.1188054167E+03	9.3827000000E-01	0.000E+00	0.0
	51	2	1	2	0	0	-7.5203923781E+01	-5.8072327638E+01	2.4874631115E+02	1.0602474932E+03	1.0262660445E+03	0.000E+00	0.0
	1000022	2	5	5	0	0	7.5203923781E+01	5.8072327638E+01	3.2145229609E+02	9.1432133317E+02	8.5066085853E+02	0.000E+00	0.0
	14	1	6	6	0	0	2.4930780531E+02	-1.0911039815E+02	2.7855472928E+02	5.0722499739E+02	3.2500000000E+02	0.000E+00	0.0
	-14	1	6	6	0	0	-1.7410388153E+02	1.6718272578E+02	4.2897566807E+01	4.0709633578E+02	3.2500000000E+02	0.000E+00	0.0
	25	2	5	5	0	0	-7.5203923781E+01	-5.8072327638E+01	-1.1909103704E+01	1.5761102573E+02	1.2518539568E+02	0.000E+00	0.0
	-5	1	9	9	0	501	1.7877817453E+01	-4.0798112406E+01	-3.8677175405E+01	5.9139653618E+01	4.1800000000E+00	0.000E+00	0.0
	5	1	9	9	501	0	-9.3081741234E+01	-1.7274215232E+01	2.6768071700E+01	9.8471372111E+01	4.1800000000E+00	0.000E+00	0.0
</event>
<event>
    11  -1  1.0000000E+00  1.0000000E+00  -1.0000000E+00  -1.0000000E+00
	2212	-1	0	0	0	0	0.0000000000E+00	0.0000000000E+00	6.5000000000E+03	6.5000000000E+03	9.3827000000E-01	0.000E+00	0.0
	2212	-1	0	0	0	0	0.0000000000E+00	0.0000000000E+00	-6.5000000000E+03	6.5000000000E+03	9.3827000000E-01	0.000E+00	0.0
	2212	1	0	0	0	0	0.0000000000E+00	0.0000000000E+00	6.2757514782E+03	6.2757514782E+03	9.3827000000E-01	0.000E+00	0.0
	2212	1	0	0	0	0	0.0000000000E+00	0.0000000000E+00	-5.1941558785E+03	5.1941558785E+03	9.3827000000E-01	0.000E+00	0.0
	51	2	1	2	0	0	-7.5464303565E+01	-1.3856322997E+02	-1.1658503539E+03	1.5985731555E+03	1.0822820594E+03	0.000E+00	0.0
	1000022	2	5	5	0	0	7.5464303565E+01	1.3856322997E+02	-8.0239825013E+02	1.1858341685E+03	8.5875787831E+02	0.000E+00	0.0
	14	1	6	6	0	0	-2.4083089455E+02	9.7432200107E+01	-3.4633500671E+02	5.4135523481E+02	3.2500000000E+02	0.000E+00	0.0
	-14	1	6	6	0	0	3.1629519812E+02	4.1131029868E+01	-4.5606324342E+02	6.4447893369E+02	3.2500000000E+02	0.000E+00	0.0
	25	2	5	5	0	0	-7.5464303565E+01	-1.3856322997E+02	-2.7919734952E+02	3.4425847484E+02	1.2517231208E+02	0.000E+00	0.0
	-5	1	9	9	0	501	-5.6580198611E+01	-7.7538220136E+01	-5.4157816351E+01	1.1029068831E+02	4.1800000000E+00	0.000E+00	0.0
	5	1	9	9	501	0	-1.8884104954E+01	-6.1025009839E+01	-2.2503953317E+02	2.3396778653E+02	4.1800000000E+00	0.000E+00	0.0
</event>
<event>
    11  -1  1.0000000E+00  1.0000000E+00  -1.0000000E+00  -1.0000000E+00
	2212	-1	0	0	0	0	0.0000000000E+00	0.0000000000E+00	6.5000000000E+03	6.5000000000E+03	9.3827000000E-01	0.000E+00	0.0
	2212	-1	0	0	0	0	0.0000000000E+00	0.0000000000E+00	-6.5000000000E+03	6.5000000000E+03	9.3827000000E-01	0.000E+00	0.0
	2212	1	0	0	0	0	0.0000000000E+00	0.0000000000E+00	6.2578068536E+03	6.2578068536E+03	9.3827000000E-01	0.000E+00	0.0
	2212	1	0	0	0	0	0.0000000000E+00	0.0000000000E+00	-5.3034786742E+03	5.3034786742E+03	9.3827000000E-01	0.000E+00	0.0
	51	2	1	2	0	0	-1.4256165238E+02	-4.1495655914E+01	-1.0510363096E+03	1.5119127279E+03	1.0766415645E+03	0.000E+00	0.0
	1000022	2	5	5	0	0	1.4256165238E+02	4.1495655914E+01	-6.8698480528E+02	1.1082720104E+03	8.5689731713E+02	0.000E+00	0.0
	14	1	6	6	0	0	3.0104913092E+02	-4.0615414768E+01	-5.6247383153E+02	7.1713457754E+02	3.2500000000E+02	0.000E+00	0.0
	-14	1	6	6	0	0	-1.5848747854E+02	8.2111070682E+01	-1.2451097375E+02	3.9113743284E+02	3.2500000000E+02	0.000E+00	0.0
	25	2	5	5	0	0	-1.4256165238E+02	-4.1495655914E+01	-2.6734337408E+02	3.3044246177E+02	1.2519595318E+02	0.000E+00	0.0
	-5	1	9	9	0	501	-1.3645520661E+02	-6.0342005878E+01	-2.7145269638E+02	3.0978253639E+02	4.1800000000E+00	0.000E+00	0.0
	5	1	9	9	501	0	-6.1064457683E+00	1.8846349963E+01	4.1093223027E+00	2.0659925379E+01	4.1800000000E+00	0.000E+00	0.0
</event>
<event>
    11  -1  1.0000000E+00  1.0000000E+00  -1.0000000E+00  -1.0000000E+00
	2212	-1	0	0	0	0	0.0000000000E+00	0.0000000000E+00	6.5000000000E+03	6.5000000000E+03	9.3827000000E-01	0.000E+00	0.0
	2212	-1	0	0	0	0	0.0000000000E+00	0.0000000000E+00	-6.5000000000E+03	6.5000000000E+03	9.3827000000E-01	0.000E+00	0.0
	2212	1	0	0	0	0	0.0000000000E+00	0.0000000000E+00	6.3192394138E+03	6.3192394138E+03	9.3827000000E-01	0.000E+00	0.0
	2212	1	0	0	0	0	0.0000000000E+00	0.0000000000E+00	-4.9256962896E+03	4.9256962896E+03	9.3827000000E-01	0.000E+00	0.0
	51	2	1	2	0	0	-2.8870363577E+01	-4.7046981356E+00	-1.6428492044E+03	1.9591062724E+03	1.0669059218E+03	0.000E+00	0.0
	1000022	2	5	5	0	0	2.8870363577E+01	4.7046981356E+00	-9.0558568665E+02	1.2504586214E+03	8.6180374557E+02	0.000E+00	0.0
	14	1	6	6	0	0	-6.6987759049E+01	1.8637530343E+02	-1.6255433843E+02	4.1385024651E+02	3.2500000000E+02	0.000E+00	0.0
	-14	1	6	6	0	0	9.5858122626E+01	-1.8167060529E+02	-7.4303134822E+02	8.3660837489E+02	3.2500000000E+02	0.000E+00	0.0
	25	2	5	5	0	0	-2.8870363577E+01	-4.7046981356E+00	-4.8795743755E+02	5.0460567516E+02	1.2517505531E+02	0.000E+00	0.0
	-5	1	9	9	0	501	1.0192927441E+01	-2.4959822865E+01	-4.3399455285E+02	4.3485127668E+02	4.1800000000E+00	0.000E+00	0.0
	5	1	9	9	501	0	-3.9063291018E+01	2.0255124730E+01	-5.3962884699E+01	6.9754398485E+01	4.1800000000E+00	0.000E+00	0.0
</event>
<event>
    11  -1  1.0000000E+00  1.0000000E+00  -1.0000000E+00  -1.0000000E+00
	2212	-1	0	0	0	0	0.0000000000E+00	0.0000000000E+00	6.5000000000E+03	6.5000000000E+03	9.3827000000E-01	0.000E+00	0.0
	2212	-1	0	0	0	0	0.0000000000E+00	0.0000000000E+00	-6.5000000000E+03	6.5000000000E+03	9.3827000000E-01	0.000E+00	0.0
	2212	1	0	0	0	0	0.0000000000E+00	0.0000000000E+00	5.5077336050E+03	5.5077336050E+03	9.3827000000E-01	0.000E+00	0.0
	2212	1	0	0	0	0	0.0000000000E+00	0.0000000000E+00	-6.2226851798E+03	6.2226851798E+03	9.3827000000E-01	0.000E+00	0.0
	51	2	1	2	0	0	-8.5382816285E+01	-8.8113114938E+01	6.4804272403E+02	1.2392313046E+03	1.0491333127E+03	0.000E+00	0.0
	1000022	2	5	5	0	0	8.5382816285E+01	8.8113114938E+01	6.6158307803E+02	1.0863476240E+03	8.5288032256E+02	0.000E+00	0.0
	14	1	6	6	0	0	-1.8846542737E+02	3.3969780333E+01	1.2011481392E+02	3.9588600861E+02	3.2500000000E+02	0.000E+00	0.0
	-14	1	6	6	0	0	2.7384824366E+02	5.4143334605E+01	5.4146826411E+02	6.9046161535E+02	3.2500000000E+02	0.000E+00	0.0
	25	2	5	5	0	0	-8.5382816285E+01	-8.8113114938E+01	5.3368496769E+01	1.8323359128E+02	1.2518868234E+02	0.000E+00	0.0
	-5	1	9	9	0	501	-1.5630283496E+01	3.0668517338E+01	2.4430451191E+01	4.2416778087E+01	4.1800000000E+00	0.000E+00	0.0
	5	1	9	9	501	0	-6.9752532790E+01	-1.1878163228E+02	2.8938045578E+01	1.4081681320E+02	4.1800000000E+00	0.000E+00	0.0
</event>
<event>
    11  -1  1.0000000E+00  1.0000000E+00  -1.0000000E+00  -1.0000000E+00
	2212	-1	0	0	0	0	0.0000000000E+00	0.0000000000E+00	6.5000000000E+03	6.5000000000E+03	9.3827000000E-01	0.000E+00	0.0
	2212	-1	0	0	0	0	0.0000000000E+00	0.0000000000E+00	-6.5000000000E+03	6.5000000000E+03	9.3827000000E-01	0.000E+00	0.0
	2212	1	0	0	0	0	0.0000000000E+00	0.0000000000E+00	5.5662098917E+03	5.5662098917E+03	9.3827000000E-01	0.000E+00	0.0
	2212	1	0	0	0	0	0.0000000000E+00	0.0000000000E+00	-6.2041395100E+03	6.2041395100E+03	9.3827000000E-01	0.000E+00	0.0
	51	2	1	2	0	0	6.0690704064E+01	-1.2518432183E+02	6.7024300481E+02	1.2544586711E+03	1.0512308956E+03	0.000E+00	0.0
	1000022	2	5	5	0	0	-6.0690704064E+01	1.2518432183E+02	4.9692364967E+02	9.9533054345E+02	8.5111415282E+02	0.000E+00	0.0
	14	1	6	6	0	0	1.3344912913E+02	-1.3732328081E+02	1.0783744404E+02	3.9232673610E+02	3.2500000000E+02	0.000E+00	0.0
	-14	1	6	6	0	0	-1.9413983319E+02	2.6250760264E+02	3.8908620563E+02	6.0300380736E+02	3.2500000000E+02	0.000E+00	0.0
	25	2	5	5	0	0	6.0690704064E+01	-1.2518432183E+02	1.4100596869E+02	2.3432005487E+02	1.2517479345E+02	0.000E+00	0.0
	-5	1	9	9	0	501	9.3617243086E+01	-1.0083725198E+02	7.5634044376E+01	1.5706788551E+02	4.1800000000E+00	0.000E+00	0.0
	5	1	9	9	501	0	-3.2926539022E+01	-2.4347069851E+01	6.5371924313E+01	7.7252169359E+01	4.1800000000E+00	0.000E+00	0.0
</event>
<event>
    11  -1  1.0000000E+00  1.0000000E+00  -1.0000000E+00  -1.0000000E+00
	2212	-1	0	0	0	0	0.0000000000E+00	0.0000000000E+00	6.5000000000E+03	6.5000000000E+03	9.3827000000E-01	0.000E+00	0.0
	2212	-1	0	0	0	0	0.0000000000E+00	0.0000000000E+00	-6.5000000000E+03	6.5000000000E+03	9.3827000000E-01	0.000E+00	0.0
	2212	1	0	0	0	0	0.0000000000E+00	0.0000000000E+00	5.0429451128E+03	5.0429451128E+03	9.3827000000E-01	0.000E+00	0.0
	2212	1	0	0	0	0	0.0000000000E+00	0.0000000000E+00	-6.3119142910E+03	6.3119142910E+03	9.3827000000E-01	0.000E+00	0.0
	51	2	1	2	0	0	-1.0620630174E+02	7.7954047227E+01	1.2781548837E+03	1.6574804145E+03	1.0469979971E+03	0.000E+00	0.0
	1000022	2	5	5	0	0	1.0620630174E+02	-7.7954047227E+01	1.0495290531E+03	1.3602188371E+03	8.5517684690E+02	0.000E+00	0.0
	14	1	6	6	0	0	1.9275166169E+02	2.5953908315E+01	1.7445375596E+02	4.1699630863E+02	3.2500000000E+02	0.000E+00	0.0
	-14	1	6	6	0	0	-8.6545359944E+01	-1.0390795554E+02	8.7507529712E+02	9.4322252846E+02	3.2500000000E+02	0.000E+00	0.0
	25	2	5	5	0	0	-1.0620630174E+02	7.7954047227E+01	2.1944012512E+02	2.8492175906E+02	1.2517918465E+02	0.000E+00	0.0
	-5	1	9	9	0	501	2.3737384812E+01	-8.5423827869E+00	3.1609453685E+01	4.0657910714E+01	4.1800000000E+00	0.000E+00	0.0
	5	1	9	9	501	0	-1.2994368655E+02	8.6496430013E+01	1.8783067143E+02	2.4426384835E+02	4.1800000000E+00	0.000E+00	0.0
</event>
<event>
    11  -1  1.0000000E+00  1.0000000E+00  -1.0000000E+00  -1.0000000E+00
	2212	-1	0	0	0	0	0.0000000000E+00	0.0000000000E+00	6.5000000000E+03	6.5000000000E+03	9.3827000000E-01	0.000E+00	0.0
	2212	-1	0	0	0	0	0.0000000000E+00	0.0000000000E+00	-6.5000000000E+03	6.5000000000E+03	9.3827000000E-01	0.000E+00	0.0
	2212	1	0	0	0	0	0.0000000000E+00	0.0000000000E+00	4.9369995523E+03	4.9369995523E+03	9.3827000000E-01	0.000E+00	0.0
	2212	1	0	0	0	0	0.0000000000E+00	0.0000000000E+00	-6.3156063486E+03	6.3156063486E+03	9.3827000000E-01	0.000E+00	0.0
	51	2	1	2	0	0	-1.6138954002E+02	1.5637374604E+01	1.4729476401E+03	1.8299440702E+03	1.0736989517E+03	0.000E+00	0.0
	1000022	2	5	5	0	0	1.6138954002E+02	-1.5637374604E+01	1.0312251304E+03	1.3441130533E+03	8.4671336308E+02	0.000E+00	0.0
	14	1	6	6	0	0	1.1268743401E+02	2.5952752386E+02	4.6503963857E+02	6.3398727028E+02	3.2500000000E+02	0.000E+00	0.0
	-14	1	6	6	0	0	4.8702106010E+01	-2.7516489847E+02	5.6618549185E+02	7.1012578299E+02	3.2500000000E+02	0.000E+00	0.0
	25	2	5	5	0	0	-1.6138954002E+02	1.5637374604E+01	3.4738166584E+02	4.0328104581E+02	1.2518174403E+02	0.000E+00	0.0
	-5	1	9	9	0	501	-1.1371607581E+02	4.1681276145E+01	3.2025597086E+02	3.4241792294E+02	4.1800000000E+00	0.000E+00	0.0
	5	1	9	9	501	0	-4.7673464215E+01	-2.6043901541E+01	2.7125694976E+01	6.0863122871E+01	4.1800000000E+00	0.000E+00	0.0
</event>
<event>
    11  -1  1.0000000E+00  1.0000000E+00  -1.0000000E+00  -1.0000000E+00
	2212	-1	0	0	0	0	0.0000000000E+00	0.0000000000E+00	6.5000000000E+03	6.5000000000E+03	9.3827000000E-01	0.000E+00	0.0
	2212	-1	0	0	0	0	0.0000000000E+00	0.0000000000E+00	-6.5000000000E+03	6.5000000000E+03	9.3827000000E-01	0.000E+00	0.0
	2212	1	0	0	0	0	0.0000000000E+00	0.0000000000E+00	5.9418520703E+03	5.9418520703E+03	9.3827000000E-01	0.000E+00	0.0
	2212	1	0	0	0	0	0.0000000000E+00	0.0000000000E+00	-6.0207177772E+03	6.0207177772E+03	9.3827000000E-01	0.000E+00	0.0
	51	2	1	2	0	0	4.7179128600E+01	-1.0086035597E+02	2.9352388167E+01	1.0408178351E+03	1.0344281133E+03	0.000E+00	0.0
	1000022	2	5	5	0	0	-4.7179128600E+01	1.0086035597E+02	1.1559797496E+02	8.6591556269E+02	8.5091021166E+02	0.000E+00	0.0
	14	1	6	6	0	0	-5.2939203358E+01	1.9013493943E+02	-1.7712699683E+02	4.1946731393E+02	3.2500000000E+02	0.000E+00	0.0
	-14	1	6	6	0	0	5.7600747585E+00	-8.9274583469E+01	2.9272497179E+02	4.4644824877E+02	3.2500000000E+02	0.000E+00	0.0
	25	2	5	5	0	0	4.7179128600E+01	-1.0086035597E+02	-3.6732268043E+01	1.7151458978E+02	1.2517712815E+02	0.000E+00	0.0
	-5	1	9	9	0	501	-3.8366176511E+01	-4.3524854777E+01	8.8094962168E+00	5.8834140659E+01	4.1800000000E+00	0.000E+00	0.0
	5	1	9	9	501	0	8.5545305111E+01	-5.7335501188E+01	-4.5541764260E+01	1.1268044912E+02	4.1800000000E+00	0.000E+00	0.0
</event>
<event>
    11  -1  1.0000000E+00  1.0000000E+00  -1.0000000E+00  -1.0000000E+00
	2212	-1	0	0	0	0	0.0000000000E+00	0.0000000000E+00	6.5000000000E+03	6.5000000000E+03	9.3827000000E-01	0.000E+00	0.0
	2212	-1	0	0	0	0	0.0000000000E+00	0.0000000000E+00	-6.5000000000E+03	6.5000000000E+03	9.3827000000E-01	0.000E+00	0.0
	2212	1	0	0	0	0	0.0000000000E+00	0.0000000000E+00	5.0554326790E+03	5.0554326790E+03	9.3827000000E-01	0.000E+00	0.0
	2212	1	0	0	0	0	0.0000000000E+00	0.0000000000E+00	-6.3091501015E+03	6.3091501015E+03	9.3827000000E-01	0.000E+00	0.0
	51	2	1	2	0	0	1.7853701486E+01	1.7219260914E+01	1.4072907164E+03	1.7560935408E+03	1.0501343277E+03	0.000E+00	0.0
	1000022	2	5	5	0	0	-1.7853701486E+01	-1.7219260914E+01	9.1562925214E+02	1.2740496539E+03	8.8555651184E+02	0.000E+00	0.0
	14	1	6	6	0	0	-2.5714426499E+02	1.4030905394E+02	5.7721107060E+02	7.2429788324E+02	3.2500000000E+02	0.000E+00	0.0
	-14	1	6	6	0	0	2.3929056351E+02	-1.5752831485E+02	3.3841818154E+02	5.4975177067E+02	3.2500000000E+02	0.000E+00	0.0
	25	2	5	5	0	0	1.7853701486E+01	1.7219260914E+01	3.3808817035E+02	3.6136756554E+02	1.2517047933E+02	0.000E+00	0.0
	-5	1	9	9	0	501	-3.2766920501E+01	-4.3042927483E+00	2.7724535304E+02	2.7923942451E+02	4.1800000000E+00	0.000E+00	0.0
	5	1	9	9	501	0	5.0620621988E+01	2.1523553663E+01	6.0842817305E+01	8.2128141037E+01	4.1800000000E+00	0.000E+00	0.0
</event>
<event>
    11  -1  1.0000000E+00  1.0000000E+00  -1.0000000E+00  -1.0000000E+00
	2212	-1	0	0	0	0	0.0000000000E+00	0.0000000000E+00	6.5000000000E+03	6.5000000000E+03	9.3827000000E-01	0.000E+00	0.0
	2212	-1	0	0	0	0	0.0000000000E+00	0.0000000000E+00	-6.5000000000E+03	6.5000000000E+03	9.3827000000E-01	0.000E+00	0.0
	2212	1	0	0	0	0	0.0000000000E+00	0.0000000000E+00	4.9618617291E+03	4.9618617291E+03	9.3827000000E-01	0.000E+00	0.0
	2212	1	0	0	0	0	0.0000000000E+00	0.0000000000E+00	-6.3209350699E+03	6.3209350699E+03	9.3827000000E-01	0.000E+00	0.0
	51	2	1	2	0	0	-9.3335132983E+00	1.3161070062E+02	1.4330795982E+03	1.7812445406E+03	1.0496220689E+03	0.000E+00	0.0
	1000022	2	5	5	0	0	9.3335132983E+00	-1.3161070062E+02	1.0560131465E+03	1.3637498465E+03	8.5278449054E+02	0.000E+00	0.0
	14	1	6	6	0	0	-1.5925973728E+02	-2.1128578530E+02	2.8588523176E+02	5.0730731586E+02	3.2500000000E+02	0.000E+00	0.0
	-14	1	6	6	0	0	1.6859325058E+02	7.9675084686E+01	7.7012791471E+02	8.5644253063E+02	3.2500000000E+02	0.000E+00	0.0
	25	2	5	5	0	0	-9.3335132983E+00	1.3161070062E+02	3.0306019443E+02	3.5345335451E+02	1.2520104384E+02	0.000E+00	0.0
	-5	1	9	9	0	501	4.0963628650E+01	6.2772225787E+01	6.0829924412E+01	9.6623616711E+01	4.1800000000E+00	0.000E+00	0.0
	5	1	9	9	501	0	-5.0297141948E+01	6.8838474831E+01	2.4223027001E+02	2.5682973780E+02	4.1800000000E+00	0.000E+00	0.0
</event>
<event>
    11  -1  1.0000000E+00  1.0000000E+00  -1.0000000E+00  -1.0000000E+00
	2212	-1	0	0	0	0	0.0000000000E+00	0.0000000000E+00	6.5000000000E+03	6.5000000000E+03	9.3827000000E-01	0.000E+00	0.0
	2212	-1	0	0	0	0	0.0000000000E+00	0.0000000000E+00	-6.5000000000E+03	6.5000000000E+03	9.3827000000E-01	0.000E+00	0.0
	2212	1	0	0	0	0	0.0000000000E+00	0.0000000000E+00	6.1882368601E+03	6.1882368601E+03	9.3827000000E-01	0.000E+00	0.0
	2212	1	0	0	0	0	0.0000000000E+00	0.0000000000E+00	-5.6219206131E+03	5.6219206131E+03	9.3827000000E-01	0.000E+00	0.0
	51	2	1	2	0	0	1.6853003529E+01	2.5313752615E+02	-4.8309491982E+02	1.1801501936E+03	1.0464278031E+03	0.000E+00	0.0
	1000022	2	5	5	0	0	-1.6853003529E+01	-2.5313752615E+02	-5.0738343895E+02	9.0086598675E+02	6.9982779389E+02	0.000E+00	0.0
	14	1	6	6	0	0	-3.2579699998E+01	-1.4003486914E+02	-4.1062997755E+02	5.4305909429E+02	3.2500000000E+02	0.000E+00	0.0
	-14	1	6	6	0	0	1.5726696469E+01	-1.1310265701E+02	-9.6753461406E+01	3.5780689247E+02	3.2500000000E+02	0.000E+00	0.0
	25	2	5	5	0	0	1.6853003529E+01	2.5313752615E+02	-5.8932808035E+01	2.8897654009E+02	1.2518679638E+02	0.000E+00	0.0
	-5	1	9	9	0	501	6.6755792995E+01	9.9925962077E+01	-3.9779250458E+01	1.2665462867E+02	4.1800000000E+00	0.000E+00	0.0
	5	1	9	9	501	0	-4.9902789466E+01	1.5321156407E+02	-1.9153557577E+01	1.6232191143E+02	4.1800000000E+00	0.000E+00	0.0
</event>
<event>
    11  -1  1.0000000E+00  1.0000000E+00  -1.0000000E+00  -1.0000000E+00
	2212	-1	0	0	0	0	0.0000000000E+00	0.0000000000E+00	6.5000000000E+03	6.5000000000E+03	9.3827000000E-01	0.000E+00	0.0
	2212	-1	0	0	0	0	0.0000000000E+00	0.0000000000E+00	-6.5000000000E+03	6.5000000000E+03	9.3827000000E-01	0.000E+00	0.0
	2212	1	0	0	0	0	0.0000000000E+00	0.0000000000E+00	5.0427910392E+03	5.0427910392E+03	9.3827000000E-01	0.000E+00	0.0
	2212	1	0	0	0	0	0.0000000000E+00	0.0000000000E+00	-6.3143077795E+03	6.3143077795E+03	9.3827000000E-01	0.000E+00	0.0
	51	2	1	2	0	0	-4.7677608097E+01	-3.0232979565E+01	1.0778771298E+03	1.4991249998E+03	1.0403698721E+03	0.000E+00	0.0
	1000022	2	5	5	0	0	4.7677608097E+01	3.0232979565E+01	1.2457528475E+03	1.5031905134E+03	8.3934163193E+02	0.000E+00	0.0
	14	1	6	6	0	0	5.9442687998E+01	6.2977852967E+01	1.0907758319E+03	1.1414537041E+03	3.2500000000E+02	0.000E+00	0.0
	-14	1	6	6	0	0	-1.1765079900E+01	-3.2744873402E+01	1.5497701563E+02	3.6173680932E+02	3.2500000000E+02	0.000E+00	0.0
	25	2	5	5	0	0	-4.7677608097E+01	-3.0232979565E+01	2.5763892778E+01	1.3971066791E+02	1.2517230201E+02	0.000E+00	0.0
	-5	1	9	9	0	501	3.9569614000E+01	-1.3172298794E+00	2.6274408765E+01	4.7700171934E+01	4.1800000000E+00	0.000E+00	0.0
	5	1	9	9	501	0	-8.7247222097E+01	-2.8915749686E+01	-5.1051598696E-01	9.2010495978E+01	4.1800000000E+00	0.000E+00	0.0
</event>
<event>
    11  -1  1.0000000E+00  1.0000000E+00  -1.0000000E+00  -1.0000000E+00
	2212	-1	0	0	0	0	0.0000000000E+00	0.0000000000E+00	6.5000000000E+03	6.5000000000E+03	9.3827000000E-01	0.000E+00	0.0
	2212	-1	0	0	0	0	0.0000000000E+00	0.0000000000E+00	-6.5000000000E+03	6.5000000000E+03	9.3827000000E-01	0.000E+00	0.0
	2212	1	0	0	0	0	0.0000000000E+00	0.0000000000E+00	6.0603506246E+03	6.0603506246E+03	9.3827000000E-01	0.000E+00	0.0
	2212	1	0	0	0	0	0.0000000000E+00	0.0000000000E+00	-5.8580798783E+03	5.8580798783E+03	9.3827000000E-01	0.000E+00	0.0
	51	2	1	2	0	0	-8.4743336939E+01	1.0113755260E+01	-3.3222442262E+02	1.1164837260E+03	1.0624872339E+03	0.000E+00	0.0
	1000022	2	5	5	0	0	8.4743336939E+01	-1.0113755260E+01	-3.6902115068E+01	8.5728663462E+02	8.5222936267E+02	0.000E+00	0.0
	14	1	6	6	0	0	1.8499976124E+02	-1.4110775798E+02	1.7429481756E+02	4.3605044943E+02	3.2500000000E+02	0.000E+00	0.0
	-14	1	6	6	0	0	-1.0025642430E+02	1.3099400272E+02	-2.1119693262E+02	4.2123618519E+02	3.2500000000E+02	0.000E+00	0.0
	25	2	5	5	0	0	-8.4743336939E+01	1.0113755260E+01	-1.6536863116E+02	2.2428286248E+02	1.2518904516E+02	0.000E+00	0.0
	-5	1	9	9	0	501	-1.1070218688E+01	-5.3019608499E+01	-5.5961318591E+01	7.7992116304E+01	4.1800000000E+00	0.000E+00	0.0
	5	1	9	9	501	0	-7.3673118251E+01	6.3133363759E+01	-1.0940731257E+02	1.4629074618E+02	4.1800000000E+00	0.000E+00	0.0
</event>
<event>
    11  -1  1.0000000E+00  1.0000000E+00  -1.0000000E+00  -1.0000000E+00
	2212	-1	0	0	0	0	0.0000000000E+00	0.0000000000E+00	6.5000000000E+03	6.5000000000E+03	9.3827000000E-01	0.000E+00	0.0
	2212	-1	0	0	0	0	0.0000000000E+00	0.0000000000E+00	-6.5000000000E+03	6.5000000000E+03	9.3827000000E-01	0.000E+00	0.0
	2212	1	0	0	0	0	0.0000000000E+00	0.0000000000E+00	6.1354144029E+03	6.1354144029E+03	9.3827000000E-01	0.000E+00	0.0
	2212	1	0	0	0	0	0.0000000000E+00	0.0000000000E+00	-5.7333927564E+03	5.7333927564E+03	9.3827000000E-01	0.000E+00	0.0
	51	2	1	2	0	0	6.9913213750E+01	7.7930442588E+01	-5.0823384780E+02	1.1778108905E+03	1.0573437655E+03	0.000E+00	0.0
	1000022	2	5	5	0	0	-6.9913213750E+01	-7.7930442588E+01	-2.2744829290E+02	8.9222284469E+02	8.5636900184E+02	0.000E+00	0.0
	14	1	6	6	0	0	1.0618037292E+02	-8.0364664109E+01	-3.5673503436E+02	5.0061725457E+02	3.2500000000E+02	0.000E+00	0.0
	-14	1	6	6	0	0	-1.7609358667E+02	2.4342215214E+00	1.2928674146E+02	3.9160559013E+02	3.2500000000E+02	0.000E+00	0.0
	25	2	5	5	0	0	6.9913213750E+01	7.7930442588E+01	-1.7457335360E+02	2.3896999595E+02	1.2517903913E+02	0.000E+00	0.0
	-5	1	9	9	0	501	-2.0460290962E+01	4.7446976725E+01	-1.1576754371E+02	1.2684413933E+02	4.1800000000E+00	0.000E+00	0.0
	5	1	9	9	501	0	9.0373504712E+01	3.0483465863E+01	-5.8805809891E+01	1.1212585662E+02	4.1800000000E+00	0.000E+00	0.0
</event>
<event>
    11  -1  1.0000000E+00  1.0000000E+00  -1.0000000E+00  -1.0000000E+00
	2212	-1	0	0	0	0	0.0000000000E+00	0.0000000000E+00	6.5000000000E+03	6.5000000000E+03	9.3827000000E-01	0.000E+00	0.0
	2212	-1	0	0	0	0	0.0000000000E+00	0.0000000000E+00	-6.5000000000E+03	6.5000000000E+03	9.3827000000E-01	0.000E+00	0.0
	2212	1	0	0	0	0	0.0000000000E+00	0.0000000000E+00	6.2631339549E+03	6.2631339549E+03	9.3827000000E-01	0.000E+00	0.0
	2212	1	0	0	0	0	0.0000000000E+00	0.0000000000E+00	-5.3138678193E+03	5.3138678193E+03	9.3827000000E-01	0.000E+00	0.0
	51	2	1	2	0	0	-7.8450882190E+01	3.5383417727E+01	-1.1218938250E+03	1.5459204495E+03	1.0601027093E+03	0.000E+00	0.0
	1000022	2	5	5	0	0	7.8450882190E+01	-3.5383417727E+01	-6.1170825204E+02	1.0528372510E+03	8.5256833409E+02	0.000E+00	0.0
	14	1	6	6	0	0	1.1431665679E+02	2.4834403430E+01	1.2466086793E+01	3.4563774235E+02	3.2500000000E+02	0.000E+00	0.0
	-14	1	6	6	0	0	-3.5865774603E+01	-6.0217821157E+01	-6.2417433883E+02	7.0719950865E+02	3.2500000000E+02	0.000E+00	0.0
	25	2	5	5	0	0	-7.8450882190E+01	3.5383417727E+01	-3.3755788365E+02	3.7016097481E+02	1.2516906682E+02	0.000E+00	0.0
	-5	1	9	9	0	501	-5.2883690803E+01	7.9417033394E+01	-2.6277838134E+02	2.7959560090E+02	4.1800000000E+00	0.000E+00	0.0
	5	1	9	9	501	0	-2.5567191387E+01	-4.4033615667E+01	-7.4779502317E+01	9.0565373907E+01	4.1800000000E+00	0.000E+00	0.0
</event>
<event>
    11  -1  1.0000000E+00  1.0000000E+00  -1.0000000E+00  -1.0000000E+00
	2212	-1	0	0	0	0	0.0000000000E+00	0.0000000000E+00	6.5000000000E+03	6.5000000000E+03	9.3827000000E-01	0.000E+00	0.0
	2212	-1	0	0	0	0	0.0000000000E+00	0.0000000000E+00	-6.5000000000E+03	6.5000000000E+03	9.3827000000E-01	0.000E+00	0.0
	2212	1	0	0	0	0	0.0000000000E+00	0.0000000000E+00	6.1045375819E+03	6.1045375819E+03	9.3827000000E-01	0.000E+00	0.0
	2212	1	0	0	0	0	0.0000000000E+00	0.0000000000E+00	-5.8088218922E+03	5.8088218922E+03	9.3827000000E-01	0.000E+00	0.0
	51	2	1	2	0	0	-4.9715054968E+01	3.8058189909E+01	-4.1805073094E+02	1.1278414292E+03	1.0456289319E+03	0.000E+00	0.0
	1000022	2	5	5	0	0	4.9715054968E+01	-3.8058189909E+01	-1.2438495937E+02	8.6539945845E+02	8.5412211777E+02	0.000E+00	0.0
	14	1	6	6	0	0	5.4222724996E+01	-1.0455037780E+02	-3.2767590316E+02	4.7630597615E+02	3.2500000000E+02	0.000E+00	0.0
	-14	1	6	6	0	0	-4.5076700277E+00	6.6492187892E+01	2.0329094380E+02	3.8909348230E+02	3.2500000000E+02	0.000E+00	0.0
	25	2	5	5	0	0	-4.9715054968E+01	3.8058189909E+01	-1.7133073029E+02	2.2124106740E+02	1.2519336345E+02	0.000E+00	0.0
	-5	1	9	9	0	501	-8.9431253589E+01	1.7507901114E+01	-8.8950756372E+01	1.2741344191E+02	4.1800000000E+00	0.000E+00	0.0
	5	1	9	9	501	0	3.9716198621E+01	2.0550288795E+01	-8.2379973920E+01	9.3827625492E+01	4.1800000000E+00	0.000E+00	0.0
</event>
<event>
    11  -1  1.0000000E+00  1.0000000E+00  -1.0000000E+00  -1.0000000E+00
	2212	-1	0	0	0	0	0.0000000000E+00	0.0000000000E+00	6.5000000000E+03	6.5000000000E+03	9.3827000000E-01	0.000E+00	0.0
	2212	-1	0	0	0	0	0.0000000000E+00	0.0000000000E+00	-6.5000000000E+03	6.5000000000E+03	9.3827000000E-01	0.000E+00	0.0
	2212	1	0	0	0	0	0.0000000000E+00	0.0000000000E+00	6.2832309532E+03	6.2832309532E+03	9.3827000000E-01	0.000E+00	0.0
	2212	1	0	0	0	0	0.0000000000E+00	0.0000000000E+00	-5.2177248526E+03	5.2177248526E+03	9.3827000000E-01	0.000E+00	0.0
	51	2	1	2	0	0	-1.1222105468E+02	5.6737451110E+01	-1.1756465980E+03	1.5842310035E+03	1.0544336136E+03	0.000E+00	0.0
	1000022	2	5	5	0	0	1.1222105468E+02	-5.6737451110E+01	-7.7234382143E+02	1.1563668465E+03	8.5138510769E+02	0.000E+00	0.0
	14	1	6	6	0	0	8.3630035639E+01	1.9231708235E+02	-1.5864190516E+02	4.1805752846E+02	3.2500000000E+02	0.000E+00	0.0
	-14	1	6	6	0	0	2.8591019040E+01	-2.4905453346E+02	-6.1370191627E+02	7.3830931800E+02	3.2500000000E+02	0.000E+00	0.0
	25	2	5	5	0	0	-1.1222105468E+02	5.6737451110E+01	-2.9316227922E+02	3.4267734772E+02	1.2518362197E+02	0.000E+00	0.0
	-5	1	9	9	0	501	1.1754149979E+01	5.1782274378E+01	-9.0819991573E+01	1.0528678574E+02	4.1800000000E+00	0.000E+00	0.0
	5	1	9	9	501	0	-1.2397520466E+02	4.9551767321E+00	-2.0234228765E+02	2.3739056198E+02	4.1800000000E+00	0.000E+00	0.0
</event>
<event>
    11  -1  1.0000000E+00  1.0000000E+00  -1.0000000E+00  -1.0000000E+00
	2212	-1	0	0	0	0	0.0000000000E+00	0.0000000000E+00	6.5000000000E+03	6.5000000000E+03	9.3827000000E-01	0.000E+00	0.0
	2212	-1	0	0	0	0	0.0000000000E+00	0.0000000000E+00	-6.5000000000E+03	6.5000000000E+03	9.3827000000E-01	0.000E+00	0.0
	2212	1	0	0	0	0	0.0000000000E+00	0.0000000000E+00	5.6609476389E+03	5.6609476389E+03	9.3827000000E-01	0.000E+00	0.0
	2212	1	0	0	0	0	0.0000000000E+00	0.0000000000E+00	-6.1587355913E+03	6.1587355913E+03	9.3827000000E-01	0.000E+00	0.0
	51	2	1	2	0	0	1.0679934109E+02	-9.6226827493E+01	5.6543706236E+02	1.2189091863E+03	1.0702125169E+03	0.000E+00	0.0
	1000022	2	5	5	0	0	-1.0679934109E+02	9.6226827493E+01	3.4280354103E+02	9.3464155741E+02	8.5754001161E+02	0.000E+00	0.0
	14	1	6	6	0	0	-3.2634527934E+02	-1.7397325858E+01	1.7007706552E+02	4.9127906174E+02	3.2500000000E+02	0.000E+00	0.0
	-14	1	6	6	0	0	2.1954593824E+02	1.1362415335E+02	1.7272647551E+02	4.4336249567E+02	3.2500000000E+02	0.000E+00	0.0
	25	2	5	5	0	0	1.0679934109E+02	-9.6226827493E+01	1.5498441140E+02	2.4567521236E+02	1.2518163046E+02	0.000E+00	0.0
	-5	1	9	9	0	501	7.4395030101E+01	8.5775674348E+00	3.4129825985E+01	8.2404566552E+01	4.1800000000E+00	0.000E+00	0.0
	5	1	9	9	501	0	3.2404310993E+01	-1.0480439493E+02	1.2085458541E+02	1.6327064581E+02	4.1800000000E+00	0.000E+00	0.0
</event>
<event>
    11  -1  1.0000000E+00  1.0000000E+00  -1.0000000E+00  -1.0000000E+00
	2212	-1	0	0	0	0	0.0000000000E+00	0.0000000000E+00	6.5000000000E+03	6.5000000000E+03	9.3827000000E-01	0.000E+00	0.0
	2212	-1	0	0	0	0	0.0000000000E+00	0.0000000000E+00	-6.5000000000E+03	6.5000000000E+03	9.3827000000E-01	0.000E+00	0.0
	2212	1	0	0	0	0	0.0000000000E+00	0.0000000000E+00	6.2410566675E+03	6.2410566675E+03	9.3827000000E-01	0.000E+00	0.0
	2212	1	0	0	0	0	0.0000000000E+00	0.0000000000E+00	-5.4178690182E+03	5.4178690182E+03	9.3827000000E-01	0.000E+00	0.0
	51	2	1	2	0	0	-1.2855274520E+02	-3.4811735613E+00	-8.5982559586E+02	1.3699198490E+03	1.0586984512E+03	0.000E+00	0.0
	1000022	2	5	5	0	0	1.2855274520E+02	3.4811735613E+00	-6.5202516498E+02	1.0930716988E+03	8.6783120254E+02	0.000E+00	0.0
	14	1	6	6	0	0	1.2555752887E+02	-2.6019605616E+02	-4.5869758544E+02	6.3205629147E+02	3.2500000000E+02	0.000E+00	0.0
	-14	1	6	6	0	0	2.9952163324E+00	2.6367722972E+02	-1.9332757954E+02	4.6101540734E+02	3.2500000000E+02	0.000E+00	0.0
	25	2	5	5	0	0	-1.2855274520E+02	-3.4811735613E+00	-1.7116248427E+02	2.4800261545E+02	1.2518296361E+02	0.000E+00	0.0
	-5	1	9	9	0	501	-8.2789646848E+01	3.1434530205E+01	-2.6934914721E+01	9.2656447943E+01	4.1800000000E+00	0.000E+00	0.0
	5	1	9	9	501	0	-4.5763098357E+01	-3.4915703767E+01	-1.4422756955E+02	1.5534616751E+02	4.1800000000E+00	0.000E+00	0.0
</event>
<event>
    11  -1  1.0000000E+00  1.0000000E+00  -1.0000000E+00  -1.0000000E+00
	2212	-1	0	0	0	0	0.0000000000E+00	0.0000000000E+00	6.5000000000E+03	6.5000000000E+03	9.3827000000E-01	0.000E+00	0.0
	2212	-1	0	0	0	0	0.0000000000E+00	0.0000000000E+00	-6.5000000000E+03	6.5000000000E+03	9.3827000000E-01	0.000E+00	0.0
	2212	1	0	0	0	0	0.0000000000E+00	0.0000000000E+00	5.1183264182E+03	5.1183264182E+03	9.3827000000E-01	0.000E+00	0.0
	2212	1	0	0	0	0	0.0000000000E+00	0.0000000000E+00	-6.3007289098E+03	6.3007289098E+03	9.3827000000E-01	0.000E+00	0.0
	51	2	1	2	0	0	-7.8505029322E+01	-3.2233694975E+01	1.0201065308E+03	1.4659910602E+03	1.0494333727E+03	0.000E+00	0.0
	1000022	2	5	5	0	0	7.8505029322E+01	3.2233694975E+01	1.1415627677E+03	1.4242934110E+03	8.4749284192E+02	0.000E+00	0.0
	14	1	6	6	0	0	-1.1533083161E+02	1.2740429952E+02	2.3240027154E+02	4.3493441168E+02	3.2500000000E+02	0.000E+00	0.0
	-14	1	6	6	0	0	1.9383586093E+02	-9.5170604544E+01	9.0916249620E+02	9.8935899928E+02	3.2500000000E+02	0.000E+00	0.0
	25	2	5	5	0	0	-7.8505029322E+01	-3.2233694975E+01	4.0839723832E+01	1.5665126103E+02	1.2517860767E+02	0.000E+00	0.0
	-5	1	9	9	0	501	-9.6198667983E+01	-1.9069820737E+01	-1.2336493259E+01	9.8931811115E+01	4.1800000000E+00	0.000E+00	0.0
	5	1	9	9	501	0	1.7693638661E+01	-1.3163874238E+01	5.3176217091E+01	5.7719449912E+01	4.1800000000E+00	0.000E+00	0.0
</event>
<event>
    11  -1  1.0000000E+00  1.0000000E+00  -1.0000000E+00  -1.0000000E+00
	2212	-1	0	0	0	0	0.0000000000E+00	0.0000000000E+00	6.5000000000E+03	6.5000000000E+03	9.3827000000E-01	0.000E+00	0.0
	2212	-1	0	0	0	0	0.0000000000E+00	0.0000000000E+00	-6.5000000000E+03	6.5000000000E+03	9.3827000000E-01	0.000E+00	0.0
	2212	1	0	0	0	0	0.0000000000E+00	0.0000000000E+00	6.0316112822E+03	6.0316112822E+03	9.3827000000E-01	0.000E+00	0.0
	2212	1	0	0	0	0	0.0000000000E+00	0.0000000000E+00	-5.8882085865E+03	5.8882085865E+03	9.3827000000E-01	0.000E+00	0.0
	51	2	1	2	0	0	8.7705442196E+01	7.6281756352E+01	-2.5704270211E+01	1.0772170828E+03	1.0706188785E+03	0.000E+00	0.0
	1000022	2	5	5	0	0	-8.7705442196E+01	-7.6281756352E+01	-2.3497698071E+02	8.8636321506E+02	8.4670798781E+02	0.000E+00	0.0
	14	1	6	6	0	0	5.2821604715E+01	-1.7912959509E+02	-3.3672065943E+02	5.0386837195E+02	3.2500000000E+02	0.000E+00	0.0
	-14	1	6	6	0	0	-1.4052704691E+02	1.0284783874E+02	1.0174367873E+02	3.8249484311E+02	3.2500000000E+02	0.000E+00	0.0
	25	2	5	5	0	0	8.7705442196E+01	7.6281756352E+01	9.1574285051E+01	1.9381691624E+02	1.2517186743E+02	0.000E+00	0.0
	-5	1	9	9	0	501	-2.0444995653E+01	2.1205382081E+01	-1.4020525694E+01	3.2889414972E+01	4.1800000000E+00	0.000E+00	0.0
	5	1	9	9	501	0	1.0815043785E+02	5.5076374271E+01	1.0559481074E+02	1.6092750127E+02	4.1800000000E+00	0.000E+00	0.0
</event>
<event>
    11  -1  1.0000000E+00  1.0000000E+00  -1.0000000E+00  -1.0000000E+00
	2212	-1	0	0	0	0	0.0000000000E+00	0.0000000000E+00	6.5000000000E+03	6.5000000000E+03	9.3827000000E-01	0.000E+00	0.0
	2212	-1	0	0	0	0	0.0000000000E+00	0.0000000000E+00	-6.5000000000E+03	6.5000000000E+03	9.3827000000E-01	0.000E+00	0.0
	2212	1	0	0	0	0	0.0000000000E+00	0.0000000000E+00	4.9292964009E+03	4.9292964009E+03	9.3827000000E-01	0.000E+00	0.0
	2212	1	0	0	0	0	0.0000000000E+00	0.0000000000E+00	-6.3248488573E+03	6.3248488573E+03	9.3827000000E-01	0.000E+00	0.0
	51	2	1	2	0	0	4.9772081090E+01	-1.4027996136E+02	1.4288482073E+03	1.7788212525E+03	1.0490196000E+03	0.000E+00	0.0
	1000022	2	5	5	0	0	-4.9772081090E+01	1.4027996136E+02	1.1171162633E+03	1.4062142675E+03	8.4103156470E+02	0.000E+00	0.0
	14	1	6	6	0	0	-7.4240967818E+01	-1.8056231234E+02	3.6694949758E+02	5.2762809223E+02	3.2500000000E+02	0.000E+00	0.0
	-14	1	6	6	0	0	2.4468886728E+01	3.2084227370E+02	7.5016676570E+02	8.7858617526E+02	3.2500000000E+02	0.000E+00	0.0
	25	2	5	5	0	0	4.9772081090E+01	-1.4027996136E+02	2.7843619310E+02	3.3964047436E+02	1.2519269380E+02	0.000E+00	0.0
	-5	1	9	9	0	501	3.5100849116E+01	-1.5922541405E+02	2.6673219093E+02	3.1264730315E+02	4.1800000000E+00	0.000E+00	0.0
	5	1	9	9	501	0	1.4671231974E+01	1.8945452690E+01	1.1704002170E+01	2.6993171212E+01	4.1800000000E+00	0.000E+00	0.0
</event>
<event>
    11  -1  1.0000000E+00  1.0000000E+00  -1.0000000E+00  -1.0000000E+00
	2212	-1	0	0	0	0	0.0000000000E+00	0.0000000000E+00	6.5000000000E+03	6.5000000000E+03	9.3827000000E-01	0.000E+00	0.0
	2212	-1	0	0	0	0	0.0000000000E+00	0.0000000000E+00	-6.5000000000E+03	6.5000000000E+03	9.3827000000E-01	0.000E+00	0.0
	2212	1	0	0	0	0	0.0000000000E+00	0.0000000000E+00	6.1633744376E+03	6.1633744376E+03	9.3827000000E-01	0.000E+00	0.0
	2212	1	0	0	0	0	0.0000000000E+00	0.0000000000E+00	-5.6840356129E+03	5.6840356129E+03	9.3827000000E-01	0.000E+00	0.0
	51	2	1	2	0	0	6.7804784389E+01	-5.7832331255E+01	-3.6411144762E+02	1.1132012830E+03	1.0481879044E+03	0.000E+00	0.0
	1000022	2	5	5	0	0	-6.7804784389E+01	5.7832331255E+01	-5.1278296577E+02	9.9532745594E+02	8.4840338710E+02	0.000E+00	0.0
	14	1	6	6	0	0	-2.2267164644E+02	-1.4099364325E+02	-3.7417244739E+02	5.6133046413E+02	3.2500000000E+02	0.000E+00	0.0
	-14	1	6	6	0	0	1.5486686205E+02	1.9882597451E+02	-1.3861051838E+02	4.3399699182E+02	3.2500000000E+02	0.000E+00	0.0
	25	2	5	5	0	0	6.7804784389E+01	-5.7832331255E+01	3.3444141024E+01	1.5726249358E+02	1.2518352125E+02	0.000E+00	0.0
	-5	1	9	9	0	501	-5.0607693301E+00	-6.8677991097E+01	-1.2819214142E+01	7.0171807007E+01	4.1800000000E+00	0.000E+00	0.0
	5	1	9	9	501	0	7.2865553719E+01	1.0845659842E+01	4.6263355166E+01	8.7090686571E+01	4.1800000000E+00	0.000E+00	0.0
</event>
<event>
    11  -1  1.0000000E+00  1.0000000E+00  -1.0000000E+00  -1.0000000E+00
	2212	-1	0	0	0	0	0.0000000000E+00	0.0000000000E+00	6.5000000000E+03	6.5000000000E+03	9.3827000000E-01	0.000E+00	0.0
	2212	-1	0	0	0	0	0.0000000000E+00	0.0000000000E+00	-6.5000000000E+03	6.5000000000E+03	9.3827000000E-01	0.000E+00	0.0
	2212	1	0	0	0	0	0.0000000000E+00	0.0000000000E+00	6.1688424144E+03	6.1688424144E+03	9.3827000000E-01	0.000E+00	0.0
	2212	1	0	0	0	0	0.0000000000E+00	0.0000000000E+00	-5.6672836337E+03	5.6672836337E+03	9.3827000000E-01	0.000E+00	0.0
	51	2	1	2	0	0	3.7549475662E+01	1.2336511957E+02	-4.4171952928E+02	1.1466413668E+03	1.0502577615E+03	0.000E+00	0.0
	1000022	2	5	5	0	0	-3.7549475662E+01	-1.2336511957E+02	-4.7572671201E+02	9.8230507721E+02	8.4969314717E+02	0.000E+00	0.0
	14	1	6	6	0	0	-1.1460545159E+02	-2.1252108785E+02	-4.9083211181E+02	6.3627099910E+02	3.2500000000E+02	0.000E+00	0.0
	-14	1	6	6	0	0	7.7055975925E+01	8.9155968280E+01	1.5105399804E+01	3.4603407810E+02	3.2500000000E+02	0.000E+00	0.0
	25	2	5	5	0	0	3.7549475662E+01	1.2336511957E+02	-2.5832068662E+01	1.8156887474E+02	1.2518404313E+02	0.000E+00	0.0
	-5	1	9	9	0	501	7.5577593147E+01	1.1002733652E+02	-3.8726304436E+01	1.3905102093E+02	4.1800000000E+00	0.000E+00	0.0
	5	1	9	9	501	0	-3.8028117485E+01	1.3337783052E+01	1.2894235774E+01	4.2517853807E+01	4.1800000000E+00	0.000E+00	0.0
</event>
<event>
    11  -1  1.0000000E+00  1.0000000E+00  -1.0000000E+00  -1.0000000E+00
	2212	-1	0	0	0	0	0.0000000000E+00	0.0000000000E+00	6.5000000000E+03	6.5000000000E+03	9.3827000000E-01	0.000E+00	0.0
	2212	-1	0	0	0	0	0.0000000000E+00	0.0000000000E+00	-6.5000000000E+03	6.5000000000E+03	9.3827000000E-01	0.000E+00	0.0
	2212	1	0	0	0	0	0.0000000000E+00	0.0000000000E+00	5.9628976336E+03	5.9628976336E+03	9.3827000000E-01	0.000E+00	0.0
	2212	1	0	0	0	0	0.0000000000E+00	0.0000000000E+00	-5.9937728992E+03	5.9937728992E+03	9.3827000000E-01	0.000E+00	0.0
	51	2	1	2	0	0	9.9240205122E+01	-9.2097112302E+01	4.3192157843E+01	1.0525108807E+03	1.0428725211E+03	0.000E+00	0.0
	1000022	2	5	5	0	0	-9.9240205122E+01	9.2097112302E+01	1.3347559321E+01	8.5806549303E+02	8.4721174247E+02	0.000E+00	0.0
	14	1	6	6	0	0	-1.5387363339E+02	-1.6410058516E+01	2.4984147825E+02	4.3816908760E+02	3.2500000000E+02	0.000E+00	0.0
	-14	1	6	6	0	0	5.4633428266E+01	1.0850717082E+02	-2.3649391893E+02	4.1989640543E+02	3.2500000000E+02	0.000E+00	0.0
	25	2	5	5	0	0	9.9240205122E+01	-9.2097112302E+01	1.7527706278E+01	1.8526397421E+02	1.2523986284E+02	0.000E+00	0.0
	-5	1	9	9	0	501	-2.3570138240E+01	-4.1620506240E+01	2.0926625674E+01	5.2375700649E+01	4.1800000000E+00	0.000E+00	0.0
	5	1	9	9	501	0	1.2281034336E+02	-5.0476606062E+01	-3.3989193969E+00	1.3288827356E+02	4.1800000000E+00	0.000E+00	0.0
</event>
<event>
    11  -1  1.0000000E+00  1.0000000E+00  -1.0000000E+00  -1.0000000E+00
	2212	-1	0	0	0	0	0.0000000000E+00	0.0000000000E+00	6.5000000000E+03	6.5000000000E+03	9.3827000000E-01	0.000E+00	0.0
	2212	-1	0	0	0	0	0.0000000000E+00	0.0000000000E+00	-6.5000000000E+03	6.5000000000E+03	9.3827000000E-01	0.000E+00	0.0
	2212	1	0	0	0	0	0.0000000000E+00	0.0000000000E+00	5.5965964317E+03	5.5965964317E+03	9.3827000000E-01	0.000E+00	0.0
	2212	1	0	0	0	0	0.0000000000E+00	0.0000000000E+00	-6.2021464228E+03	6.2021464228E+03	9.3827000000E-01	0.000E+00	0.0
	51	2	1	2	0	0	-9.8906641445E+01	1.2082487906E+01	5.2440589771E+02	1.1667296146E+03	1.0374622585E+03	0.000E+00	0.0
	1000022	2	5	5	0	0	9.8906641445E+01	-1.2082487906E+01	5.8816116649E+02	1.0403204313E+03	8.5229368863E+02	0.000E+00	0.0
	14	1	6	6	0	0	-2.1946032166E+01	1.7943357006E+02	5.4728651428E+01	3.7589660770E+02	3.2500000000E+02	0.000E+00	0.0
	-14	1	6	6	0	0	1.2085267361E+02	-1.9151605797E+02	5.3343251506E+02	6.6442382355E+02	3.2500000000E+02	0.000E+00	0.0
	25	2	5	5	0	0	-9.8906641445E+01	1.2082487906E+01	1.7388824643E+01	1.6093671423E+02	1.2517885017E+02	0.000E+00	0.0
	-5	1	9	9	0	501	2.3873311918E+01	-2.0016780964E+01	1.2618019313E+01	3.3871719080E+01	4.1800000000E+00	0.000E+00	0.0
	5	1	9	9	501	0	-1.2277995336E+02	3.2099268870E+01	4.7708053300E+00	1.2706499515E+02	4.1800000000E+00	0.000E+00	0.0
</event>
<event>
    11  -1  1.0000000E+00  1.0000000E+00  -1.0000000E+00  -1.0000000E+00
	2212	-1	0	0	0	0	0.0000000000E+00	0.0000000000E+00	6.5000000000E+03	6.5000000000E+03	9.3827000000E-01	0.000E+00	0.0
	2212	-1	0	0	0	0	0.0000000000E+00	0.0000000000E+00	-6.5000000000E+03	6.5000000000E+03	9.3827000000E-01	0.000E+00	0.0
	2212	1	0	0	0	0	0.0000000000E+00	0.0000000000E+00	6.1357552749E+03	6.1357552749E+03	9.3827000000E-01	0.000E+00	0.0
	2212	1	0	0	0	0	0.0000000000E+00	0.0000000000E+00	-5.7859825236E+03	5.7859825236E+03	9.3827000000E-01	0.000E+00	0.0
	51	2	1	2	0	0	1.0053287167E+02	2.5138244129E+01	-3.8753290021E+02	1.0960059014E+03	1.0199550958E+03	0.000E+00	0.0
	1000022	2	5	5	0	0	-1.0053287167E+02	-2.5138244129E+01	-2.5708167987E+02	8.9118016032E+02	8.4697833409E+02	0.000E+00	0.0
	14	1	6	6	0	0	-2.5079303667E+02	-1.5735742415E+02	-2.5748683716E+02	5.0949286304E+02	3.2500000000E+02	0.000E+00	0.0
	-14	1	6	6	0	0	1.5026016500E+02	1.3221918002E+02	4.0515728960E-01	3.8168729728E+02	3.2500000000E+02	0.000E+00	0.0
	25	2	5	5	0	0	1.0053287167E+02	2.5138244129E+01	-9.2691071460E+01	1.8708204115E+02	1.2517693792E+02	0.000E+00	0.0
	-5	1	9	9	0	501	4.7441620992E+01	5.3868336667E+00	2.6702831123E+01	5.4865644709E+01	4.1800000000E+00	0.000E+00	0.0
	5	1	9	9	501	0	5.3091250680E+01	1.9751410462E+01	-1.1939390258E+02	1.3221639644E+02	4.1800000000E+00	0.000E+00	0.0
</event>
<event>
    11  -1  1.0000000E+00  1.0000000E+00  -1.0000000E+00  -1.0000000E+00
	2212	-1	0	0	0	0	0.0000000000E+00	0.0000000000E+00	6.5000000000E+03	6.5000000000E+03	9.3827000000E-01	0.000E+00	0.0
	2212	-1	0	0	0	0	0.0000000000E+00	0.0000000000E+00	-6.5000000000E+03	6.5000000000E+03	9.3827000000E-01	0.000E+00	0.0
	2212	1	0	0	0	0	0.0000000000E+00	0.0000000000E+00	6.0848068439E+03	6.0848068439E+03	9.3827000000E-01	0.000E+00	0.0
	2212	1	0	0	0	0	0.0000000000E+00	0.0000000000E+00	-5.8503674709E+03	5.8503674709E+03	9.3827000000E-01	0.000E+00	0.0
	51	2	1	2	0	0	-6.7158567977E+01	3.8708137553E+01	-3.1549460339E+02	1.0883185922E+03	1.0386972226E+03	0.000E+00	0.0
	1000022	2	5	5	0	0	6.7158567977E+01	-3.8708137553E+01	-1.1710603512E+02	8.7655729613E+02	8.6523423231E+02	0.000E+00	0.0
	14	1	6	6	0	0	1.8364606313E+02	3.8210854587E+01	-2.9808643384E+02	4.7923529498E+02	3.2500000000E+02	0.000E+00	0.0
	-14	1	6	6	0	0	-1.1648749515E+02	-7.6918992140E+01	1.8098039872E+02	3.9732200115E+02	3.2500000000E+02	0.000E+00	0.0
	25	2	5	5	0	0	-6.7158567977E+01	3.8708137553E+01	-1.1733333789E+02	1.8826838906E+02	1.2517699858E+02	0.000E+00	0.0
	-5	1	9	9	0	501	-2.0365969463E+01	-3.7872591297E+01	-3.6325493783E+00	4.3356357074E+01	4.1800000000E+00	0.000E+00	0.0
	5	1	9	9	501	0	-4.6792598515E+01	7.6580728850E+01	-1.1370078851E+02	1.4491203199E+02	4.1800000000E+00	0.000E+00	0.0
</event>
<event>
    11  -1  1.0000000E+00  1.0000000E+00  -1.0000000E+00  -1.0000000E+00
	2212	-1	0	0	0	0	0.0000000000E+00	0.0000000000E+00	6.5000000000E+03	6.5000000000E+03	9.3827000000E-01	0.000E+00	0.0
	2212	-1	0	0	0	0	0.0000000000E+00	0.0000000000E+00	-6.5000000000E+03	6.5000000000E+03	9.3827000000E-01	0.000E+00	0.0
	2212	1	0	0	0	0	0.0000000000E+00	0.0000000000E+00	5.9598037431E+03	5.9598037431E+03	9.3827000000E-01	0.000E+00	0.0
	2212	1	0	0	0	0	0.0000000000E+00	0.0000000000E+00	-5.9866741130E+03	5.9866741130E+03	9.3827000000E-01	0.000E+00	0.0
	51	2	1	2	0	0	2.6641754710E+00	1.2495154888E+02	-3.9592895708E+01	1.0613079080E+03	1.0531794201E+03	0.000E+00	0.0
	1000022	2	5	5	0	0	-2.6641754710E+00	-1.2495154888E+02	8.8752503370E+01	8.6612127983E+02	8.5244887068E+02	0.000E+00	0.0
	14	1	6	6	0	0	1.0820741973E+02	-2.6364257402E+00	-2.0391149934E+02	3.9864858709E+02	3.2500000000E+02	0.000E+00	0.0
	-14	1	6	6	0	0	-1.1087159520E+02	-1.2231512314E+02	2.9266400271E+02	4.6747269274E+02	3.2500000000E+02	0.000E+00	0.0
	25	2	5	5	0	0	2.6641754710E+00	1.2495154888E+02	-6.1882133459E+01	1.8740086404E+02	1.2517866432E+02	0.000E+00	0.0
	-5	1	9	9	0	501	-5.5354578722E+01	3.4223142966E+01	-4.2655420659E+01	7.7925029429E+01	4.1800000000E+00	0.000E+00	0.0
	5	1	9	9	501	0	5.8018754193E+01	9.0728405917E+01	-1.9226712800E+01	1.0947583461E+02	4.1800000000E+00	0.000E+00	0.0
</event>
<event>
    11  -1  1.0000000E+00  1.0000000E+00  -1.0000000E+00  -1.0000000E+00
	2212	-1	0	0	0	0	0.0000000000E+00	0.0000000000E+00	6.5000000000E+03	6.5000000000E+03	9.3827000000E-01	0.000E+00	0.0
	2212	-1	0	0	0	0	0.0000000000E+00	0.0000000000E+00	-6.5000000000E+03	6.5000000000E+03	9.3827000000E-01	0.000E+00	0.0
	2212	1	0	0	0	0	0.0000000000E+00	0.0000000000E+00	6.3202356162E+03	6.3202356162E+03	9.3827000000E-01	0.000E+00	0.0
	2212	1	0	0	0	0	0.0000000000E+00	0.0000000000E+00	-4.9612373771E+03	4.9612373771E+03	9.3827000000E-01	0.000E+00	0.0
	51	2	1	2	0	0	-4.0248689860E+01	5.5290128645E+00	-1.5753076054E+03	1.8946512707E+03	1.0518834817E+03	0.000E+00	0.0
	1000022	2	5	5	0	0	4.0248689860E+01	-5.5290128645E+00	-9.1812252070E+02	1.2584264066E+03	8.5967292077E+02	0.000E+00	0.0
	14	1	6	6	0	0	-2.3631428089E+02	-1.1084901530E+02	-5.0937121067E+02	6.5819144161E+02	3.2500000000E+02	0.000E+00	0.0
	-14	1	6	6	0	0	2.7656297075E+02	1.0532000243E+02	-4.0875131003E+02	6.0023496495E+02	3.2500000000E+02	0.000E+00	0.0
	25	2	5	5	0	0	-4.0248689860E+01	5.5290128645E+00	-4.4087571834E+02	4.6010060012E+02	1.2518241168E+02	0.000E+00	0.0
	-5	1	9	9	0	501	3.4355567411E+01	-1.2475660414E+01	-5.1974282173E+01	6.3676883736E+01	4.1800000000E+00	0.000E+00	0.0
	5	1	9	9	501	0	-7.4604257272E+01	1.8004673279E+01	-3.8890143616E+02	3.9642371639E+02	4.1800000000E+00	0.000E+00	0.0
</event>
<event>
    11  -1  1.0000000E+00  1.0000000E+00  -1.0000000E+00  -1.0000000E+00
	2212	-1	0	0	0	0	0.0000000000E+00	0.0000000000E+00	6.5000000000E+03	6.5000000000E+03	9.3827000000E-01	0.000E+00	0.0
	2212	-1	0	0	0	0	0.0000000000E+00	0.0000000000E+00	-6.5000000000E+03	6.5000000000E+03	9.3827000000E-01	0.000E+00	0.0
	2212	1	0	0	0	0	0.0000000000E+00	0.0000000000E+00	5.9218651906E+03	5.9218651906E+03	9.3827000000E-01	0.000E+00	0.0
	2212	1	0	0	0	0	0.0000000000E+00	0.0000000000E+00	-5.9515779868E+03	5.9515779868E+03	9.3827000000E-01	0.000E+00	0.0
	51	2	1	2	0	0	-8.7488225688E+01	4.5994281793E+01	-1.1634591945E+02	1.1364653363E+03	1.1261649187E+03	0.000E+00	0.0
	1000022	2	5	5	0	0	8.7488225688E+01	-4.5994281793E+01	1.7042311215E+02	9.1386442557E+02	8.9237575470E+02	0.000E+00	0.0
	14	1	6	6	0	0	-6.6718421941E+01	-6.5036313360E+01	-2.0352937964E+02	3.9462675816E+02	3.2500000000E+02	0.000E+00	0.0
	-14	1	6	6	0	0	1.5420664763E+02	1.9042031567E+01	3.7395249179E+02	5.1923766741E+02	3.2500000000E+02	0.000E+00	0.0
	25	2	5	5	0	0	-8.7488225688E+01	4.5994281793E+01	-1.4071031594E+02	2.1269239697E+02	1.2517587277E+02	0.000E+00	0.0
	-5	1	9	9	0	501	-1.0922436772E+02	5.5262437581E+00	-7.6076938591E+01	1.3328793966E+02	4.1800000000E+00	0.000E+00	0.0
	5	1	9	9	501	0	2.1736142032E+01	4.0468038035E+01	-6.4633377348E+01	7.9404457307E+01	4.1800000000E+00	0.000E+00	0.0
</event>
<event>
    11  -1  1.0000000E+00  1.0000000E+00  -1.0000000E+00  -1.0000000E+00
	2212	-1	0	0	0	0	0.0000000000E+00	0.0000000000E+00	6.5000000000E+03	6.5000000000E+03	9.3827000000E-01	0.000E+00	0.0
	2212	-1	0	0	0	0	0.0000000000E+00	0.0000000000E+00	-6.5000000000E+03	6.5000000000E+03	9.3827000000E-01	0.000E+00	0.0
	2212	1	0	0	0	0	0.0000000000E+00	0.0000000000E+00	5.2987779306E+03	5.2987779306E+03	9.3827000000E-01	0.000E+00	0.0
	2212	1	0	0	0	0	0.0000000000E+00	0.0000000000E+00	-6.2811443136E+03	6.2811443136E+03	9.3827000000E-01	0.000E+00	0.0
	51	2	1	2	0	0	7.7005545105E+01	-5.0916446130E+01	8.9514047575E+02	1.3643225175E+03	1.0254643446E+03	0.000E+00	0.0
	1000022	2	5	5	0	0	-7.7005545105E+01	5.0916446130E+01	9.1327658973E+02	1.2498679639E+03	8.4827675877E+02	0.000E+00	0.0
	14	1	6	6	0	0	9.8120370211E+01	7.9479760628E+01	7.8336582159E+02	8.5745650026E+02	3.2500000000E+02	0.000E+00	0.0
	-14	1	6	6	0	0	-1.7512591532E+02	-2.8563314498E+01	1.2991076814E+02	3.9241146368E+02	3.2500000000E+02	0.000E+00	0.0
	25	2	5	5	0	0	7.7005545105E+01	-5.0916446130E+01	6.9089793344E+01	1.7020979187E+02	1.2520237714E+02	0.000E+00	0.0
	-5	1	9	9	0	501	-1.6664188961E+01	1.7880494875E+01	-1.2868041099E+01	2.7936824666E+01	4.1800000000E+00	0.000E+00	0.0
	5	1	9	9	501	0	9.3669734065E+01	-6.8796941005E+01	8.1957834443E+01	1.4227296721E+02	4.1800000000E+00	0.000E+00	0.0
</event>
<event>
    11  -1  1.0000000E+00  1.0000000E+00  -1.0000000E+00  -1.0000000E+00
	2212	-1	0	0	0	0	0.0000000000E+00	0.0000000000E+00	6.5000000000E+03	6.5000000000E+03	9.3827000000E-01	0.000E+00	0.0
	2212	-1	0	0	0	0	0.0000000000E+00	0.0000000000E+00	-6.5000000000E+03	6.5000000000E+03	9.3827000000E-01	0.000E+00	0.0
	2212	1	0	0	0	0	0.0000000000E+00	0.0000000000E+00	6.0671490533E+03	6.0671490533E+03	9.3827000000E-01	0.000E+00	0.0
	2212	1	0	0	0	0	0.0000000000E+00	0.0000000000E+00	-5.8592267139E+03	5.8592267139E+03	9.3827000000E-01	0.000E+00	0.0
	51	2	1	2	0	0	-4.1996501175E+01	-1.3432256942E+02	-1.5679230146E+02	1.0741635716E+03	1.0532982930E+03	0.000E+00	0.0
	1000022	2	5	5	0	0	4.1996501175E+01	1.3432256942E+02	-2.2257298247E+02	8.8472051468E+02	8.4462145237E+02	0.000E+00	0.0
	14	1	6	6	0	0	-9.6852926810E+01	1.5711619570E+02	1.1944921623E+02	3.9237622716E+02	3.2500000000E+02	0.000E+00	0.0
	-14	1	6	6	0	0	1.3884942798E+02	-2.2793626282E+01	-3.4202219870E+02	4.9234428752E+02	3.2500000000E+02	0.000E+00	0.0
	25	2	5	5	0	0	-4.1996501175E+01	-1.3432256942E+02	1.4650643032E+01	1.8890371810E+02	1.2515476262E+02	0.000E+00	0.0
	-5	1	9	9	0	501	-6.3456007600E+01	-1.4191596719E+02	3.3470092993E+01	1.5907396446E+02	4.1800000000E+00	0.000E+00	0.0
	5	1	9	9	501	0	2.1459506425E+01	7.5933977706E+00	-1.8819449961E+01	2.9829753645E+01	4.1800000000E+00	0.000E+00	0.0
</event>
<event>
    11  -1  1.0000000E+00  1.0000000E+00  -1.0000000E+00  -1.0000000E+00
	2212	-1	0	0	0	0	0.0000000000E+00	0.0000000000E+00	6.5000000000E+03	6.5000000000E+03	9.3827000000E-01	0.000E+00	0.0
	2212	-1	0	0	0	0	0.0000000000E+00	0.0000000000E+00	-6.5000000000E+03	6.5000000000E+03	9.3827000000E-01	0.000E+00	0.0
	2212	1	0	0	0	0	0.0000000000E+00	0.0000000000E+00	5.3775940288E+03	5.3775940288E+03	9.3827000000E-01	0.000E+00	0.0
	2212	1	0	0	0	0	0.0000000000E+00	0.0000000000E+00	-6.2327437748E+03	6.2327437748E+03	9.3827000000E-01	0.000E+00	0.0
	51	2	1	2	0	0	5.1736029239E+01	1.7408191872E+02	8.3787865565E+02	1.3910074424E+03	1.0953903104E+03	0.000E+00	0.0
	1000022	2	5	5	0	0	-5.1736029239E+01	-1.7408191872E+02	7.1115909673E+02	1.1262583528E+03	8.5424205311E+02	0.000E+00	0.0
	14	1	6	6	0	0	-1.1390997911E+02	1.7614193106E+02	2.5910671711E+02	4.6557787111E+02	3.2500000000E+02	0.000E+00	0.0
	-14	1	6	6	0	0	6.2173949867E+01	-3.5022384978E+02	4.5205237962E+02	6.6068048171E+02	3.2500000000E+02	0.000E+00	0.0
	25	2	5	5	0	0	5.1736029239E+01	1.7408191872E+02	1.4399064921E+02	2.6340384355E+02	1.2516847284E+02	0.000E+00	0.0
	-5	1	9	9	0	501	1.8229449862E+01	1.2071507447E+02	1.5700135295E+02	1.9892546161E+02	4.1800000000E+00	0.000E+00	0.0
	5	1	9	9	501	0	3.3506579376E+01	5.3366844250E+01	-1.3010703743E+01	6.4478381948E+01	4.1800000000E+00	0.000E+00	0.0
</event>
<event>
    11  -1  1.0000000E+00  1.0000000E+00  -1.0000000E+00  -1.0000000E+00
	2212	-1	0	0	0	0	0.0000000000E+00	0.0000000000E+00	6.5000000000E+03	6.5000000000E+03	9.3827000000E-01	0.000E+00	0.0
	2212	-1	0	0	0	0	0.0000000000E+00	0.0000000000E+00	-6.5000000000E+03	6.5000000000E+03	9.3827000000E-01	0.000E+00	0.0
	2212	1	0	0	0	0	0.0000000000E+00	0.0000000000E+00	4.8619980559E+03	4.8619980559E+03	9.3827000000E-01	0.000E+00	0.0
	2212	1	0	0	0	0	0.0000000000E+00	0.0000000000E+00	-6.2781191215E+03	6.2781191215E+03	9.3827000000E-01	0.000E+00	0.0
	51	2	1	2	0	0	-6.9492519998E+01	-6.8825730342E+01	1.0420362867E+03	1.5966123685E+03	1.2057218755E+03	0.000E+00	0.0
	1000022	2	5	5	0	0	6.9492519998E+01	6.8825730342E+01	1.4635241658E+03	1.6941012291E+03	8.4764957310E+02	0.000E+00	0.0
	14	1	6	6	0	0	-2.0217208955E+02	9.3248547601E+01	9.4688779997E+02	1.0255683064E+03	3.2500000000E+02	0.000E+00	0.0
	-14	1	6	6	0	0	2.7166460955E+02	-2.4422817259E+01	5.1663636588E+02	6.6853292263E+02	3.2500000000E+02	0.000E+00	0.0
	25	2	5	5	0	0	-6.9492519998E+01	-6.8825730342E+01	-4.7403100230E+01	1.6578159346E+02	1.2518103421E+02	0.000E+00	0.0
	-5	1	9	9	0	501	-4.4769918460E+01	-2.5755689272E+01	3.9801961257E+01	6.5340413594E+01	4.1800000000E+00	0.000E+00	0.0
	5	1	9	9	501	0	-2.4722601539E+01	-4.3070041070E+01	-8.7205061487E+01	1.0044117987E+02	4.1800000000E+00	0.000E+00	0.0
</event>
<event>
    11  -1  1.0000000E+00  1.0000000E+00  -1.0000000E+00  -1.0000000E+00
	2212	-1	0	0	0	0	0.0000000000E+00	0.0000000000E+00	6.5000000000E+03	6.5000000000E+03	9.3827000000E-01	0.000E+00	0.0
	2212	-1	0	0	0	0	0.0000000000E+00	0.0000000000E+00	-6.5000000000E+03	6.5000000000E+03	9.3827000000E-01	0.000E+00	0.0
	2212	1	0	0	0	0	0.0000000000E+00	0.0000000000E+00	6.1278758189E+03	6.1278758189E+03	9.3827000000E-01	0.000E+00	0.0
	2212	1	0	0	0	0	0.0000000000E+00	0.0000000000E+00	-5.7683525226E+03	5.7683525226E+03	9.3827000000E-01	0.000E+00	0.0
	51	2	1	2	0	0	-2.4395184742E+01	1.2328097254E+02	-3.9707752957E+02	1.1236186013E+03	1.0435779192E+03	0.000E+00	0.0
	1000022	2	5	5	0	0	2.4395184742E+01	-1.2328097254E+02	-2.6259394650E+02	9.0163730447E+02	8.5334689596E+02	0.000E+00	0.0
	14	1	6	6	0	0	-2.0064858290E+02	6.9647574734E+01	-2.4962182001E+02	4.6156981218E+02	3.2500000000E+02	0.000E+00	0.0
	-14	1	6	6	0	0	2.2504376764E+02	-1.9292854728E+02	-1.2972126489E+01	4.4006749229E+02	3.2500000000E+02	0.000E+00	0.0
	25	2	5	5	0	0	-2.4395184742E+01	1.2328097254E+02	-9.6929349857E+01	2.0213435404E+02	1.2517857240E+02	0.000E+00	0.0
	-5	1	9	9	0	501	-2.4496488709E+01	-1.9684444231E+01	-4.9534290639E+00	3.2086822268E+01	4.1800000000E+00	0.000E+00	0.0
	5	1	9	9	501	0	1.0130396693E-01	1.4296541677E+02	-9.1975920793E+01	1.7004753177E+02	4.1800000000E+00	0.000E+00	0.0
</event>
<event>
    11  -1  1.0000000E+00  1.0000000E+00  -1.0000000E+00  -1.0000000E+00
	2212	-1	0	0	0	0	0.0000000000E+00	0.0000000000E+00	6.5000000000E+03	6.5000000000E+03	9.3827000000E-01	0.000E+00	0.0
	2212	-1	0	0	0	0	0.0000000000E+00	0.0000000000E+00	-6.5000000000E+03	6.5000000000E+03	9.3827000000E-01	0.000E+00	0.0
	2212	1	0	0	0	0	0.0000000000E+00	0.0000000000E+00	5.4395129725E+03	5.4395129725E+03	9.3827000000E-01	0.000E+00	0.0
	2212	1	0	0	0	0	0.0000000000E+00	0.0000000000E+00	-6.2441835448E+03	6.2441835448E+03	9.3827000000E-01	0.000E+00	0.0
	51	2	1	2	0	0	3.0630047516E+01	-1.0131593958E+02	9.0775981849E+02	1.3857817779E+03	1.0417101941E+03	0.000E+00	0.0
	1000022	2	5	5	0	0	-3.0630047516E+01	1.0131593958E+02	5.6807875760E+02	1.0284378102E+03	8.5074539969E+02	0.000E+00	0.0
	14	1	6	6	0	0	-2.7357497636E+01	-1.7783278864E+02	8.1869511833E+01	3.8039525544E+02	3.2500000000E+02	0.000E+00	0.0
	-14	1	6	6	0	0	-3.2725498805E+00	2.7914872822E+02	4.8620924577E+02	6.4804255471E+02	3.2500000000E+02	0.000E+00	0.0
	25	2	5	5	0	0	3.0630047516E+01	-1.0131593958E+02	2.3659181468E+02	2.8786567251E+02	1.2525110465E+02	0.000E+00	0.0
	-5	1	9	9	0	501	-1.2577928725E+01	-2.4365292786E+01	1.8180143387E+02	1.8390515366E+02	4.1800000000E+00	0.000E+00	0.0
	5	1	9	9	501	0	4.3207976241E+01	-7.6950646789E+01	5.4790380810E+01	1.0396051886E+02	4.1800000000E+00	0.000E+00	0.0
</event>
<event>
    11  -1  1.0000000E+00  1.0000000E+00  -1.0000000E+00  -1.0000000E+00
	2212	-1	0	0	0	0	0.0000000000E+00	0.0000000000E+00	6.5000000000E+03	6.5000000000E+03	9.3827000000E-01	0.000E+00	0.0
	2212	-1	0	0	0	0	0.0000000000E+00	0.0000000000E+00	-6.5000000000E+03	6.5000000000E+03	9.3827000000E-01	0.000E+00	0.0
	2212	1	0	0	0	0	0.0000000000E+00	0.0000000000E+00	5.3890603221E+03	5.3890603221E+03	9.3827000000E-01	0.000E+00	0.0
	2212	1	0	0	0	0	0.0000000000E+00	0.0000000000E+00	-6.2508031166E+03	6.2508031166E+03	9.3827000000E-01	0.000E+00	0.0
	51	2	1	2	0	0	-1.1212198568E+02	-1.3009412828E+01	9.7664968067E+02	1.4401236075E+03	1.0523168827E+03	0.000E+00	0.0
	1000022	2	5	5	0	0	1.1212198568E+02	1.3009412828E+01	6.0057734134E+02	1.0493014876E+03	8.5299465674E+02	0.000E+00	0.0
	14	1	6	6	0	0	2.8997713634E+02	-3.8079619139E+01	4.9552598333E+02	6.6083870736E+02	3.2500000000E+02	0.000E+00	0.0
	-14	1	6	6	0	0	-1.7785515066E+02	5.1089031966E+01	1.0505135801E+02	3.8846278023E+02	3.2500000000E+02	0.000E+00	0.0
	25	2	5	5	0	0	-1.1212198568E+02	-1.3009412828E+01	2.6116545317E+02	3.1083507374E+02	1.2518172648E+02	0.000E+00	0.0
	-5	1	9	9	0	501	-1.0222016127E+02	4.2209465837E+01	1.5192716923E+02	1.8796259609E+02	4.1800000000E+00	0.000E+00	0.0
	5	1	9	9	501	0	-9.9018244029E+00	-5.5218878665E+01	1.0923828394E+02	1.2287247766E+02	4.1800000000E+00	0.000E+00	0.0
</event>
<event>
    11  -1  1.0000000E+00  1.0000000E+00  -1.0000000E+00  -1.0000000E+00
	2212	-1	0	0	0	0	0.0000000000E+00	0.0000000000E+00	6.5000000000E+03	6.5000000000E+03	9.3827000000E-01	0.000E+00	0.0
	2212	-1	0	0	0	0	0.0000000000E+00	0.0000000000E+00	-6.5000000000E+03	6.5000000000E+03	9.3827000000E-01	0.000E+00	0.0
	2212	1	0	0	0	0	0.0000000000E+00	0.0000000000E+00	6.2945903342E+03	6.2945903342E+03	9.3827000000E-01	0.000E+00	0.0
	2212	1	0	0	0	0	0.0000000000E+00	0.0000000000E+00	-5.2092612784E+03	5.2092612784E+03	9.3827000000E-01	0.000E+00	0.0
	51	2	1	2	0	0	-7.8660567915E+01	1.1444931443E+02	-1.1206731946E+03	1.5283047397E+03	1.0298159243E+03	0.000E+00	0.0
	1000022	2	5	5	0	0	7.8660567915E+01	-1.1444931443E+02	-8.6204851579E+02	1.2049178474E+03	8.3030912605E+02	0.000E+00	0.0
	14	1	6	6	0	0	2.8265426180E+02	2.5130720198E+01	-4.0056314608E+02	5.8872813659E+02	3.2500000000E+02	0.000E+00	0.0
	-14	1	6	6	0	0	-2.0399369388E+02	-1.3958003463E+02	-4.6148536971E+02	6.1618971077E+02	3.2500000000E+02	0.000E+00	0.0
	25	2	5	5	0	0	-7.8660567915E+01	1.1444931443E+02	-2.2328054000E+02	2.9123054008E+02	1.2519943058E+02	0.000E+00	0.0
	-5	1	9	9	0	501	-1.0819533574E+02	5.9142062835E+01	-1.6008640522E+02	2.0211171121E+02	4.1800000000E+00	0.000E+00	0.0
	5	1	9	9	501	0	2.9534767823E+01	5.5307251593E+01	-6.3194134778E+01	8.9118828872E+01	4.1800000000E+00	0.000E+00	0.0
</event>
<event>
    11  -1  1.0000000E+00  1.0000000E+00  -1.0000000E+00  -1.0000000E+00
	2212	-1	0	0	0	0	0.0000000000E+00	0.0000000000E+00	6.5000000000E+03	6.5000000000E+03	9.3827000000E-01	0.000E+00	0.0
	2212	-1	0	0	0	0	0.0000000000E+00	0.0000000000E+00	-6.5000000000E+03	6.5000000000E+03	9.3827000000E-01	0.000E+00	0.0
	2212	1	0	0	0	0	0.0000000000E+00	0.0000000000E+00	5.5164719737E+03	5.5164719737E+03	9.3827000000E-01	0.000E+00	0.0
	2212	1	0	0	0	0	0.0000000000E+00	0.0000000000E+00	-6.2239257014E+03	6.2239257014E+03	9.3827000000E-01	0.000E+00	0.0
	51	2	1	2	0	0	-1.2339418749E+02	-1.0104891326E+01	6.6617673565E+02	1.2430715657E+03	1.0421646895E+03	0.000E+00	0.0
	1000022	2	5	5	0	0	1.2339418749E+02	1.0104891326E+01	6.3178435844E+02	1.0679132347E+03	8.5203225693E+02	0.000E+00	0.0
	14	1	6	6	0	0	6.1161140461E+01	-1.6600021076E+02	5.8214461379E+02	6.8979279964E+02	3.2500000000E+02	0.000E+00	0.0
	-14	1	6	6	0	0	6.2233047026E+01	1.7610510208E+02	4.9639744650E+01	3.7812043501E+02	3.2500000000E+02	0.000E+00	0.0
	25	2	5	5	0	0	-1.2339418749E+02	-1.0104891326E+01	7.5669369280E+01	1.9168909022E+02	1.2526220310E+02	0.000E+00	0.0
	-5	1	9	9	0	501	-8.9188190762E+01	4.4600893028E+01	7.8490952966E+01	1.2697273380E+02	4.1800000000E+00	0.000E+00	0.0
	5	1	9	9	501	0	-3.4205996725E+01	-5.4705784354E+01	-2.8215836862E+00	6.4716356420E+01	4.1800000000E+00	0.000E+00	0.0
</event>
<event>
    11  -1  1.0000000E+00  1.0000000E+00  -1.0000000E+00  -1.0000000E+00
	2212	-1	0	0	0	0	0.0000000000E+00	0.0000000000E+00	6.5000000000E+03	6.5000000000E+03	9.3827000000E-01	0.000E+00	0.0
	2212	-1	0	0	0	0	0.0000000000E+00	0.0000000000E+00	-6.5000000000E+03	6.5000000000E+03	9.3827000000E-01	0.000E+00	0.0
	2212	1	0	0	0	0	0.0000000000E+00	0.0000000000E+00	6.2680717476E+03	6.2680717476E+03	9.3827000000E-01	0.000E+00	0.0
	2212	1	0	0	0	0	0.0000000000E+00	0.0000000000E+00	-5.3101086386E+03	5.3101086386E+03	9.3827000000E-01	0.000E+00	0.0
	51	2	1	2	0	0	-7.3310082906E+01	-9.9990853240E+01	-1.0605331902E+03	1.4979922838E+03	1.0506558408E+03	0.000E+00	0.0
	1000022	2	5	5	0	0	7.3310082906E+01	9.9990853240E+01	-6.9146458122E+02	1.1023425007E+03	8.4950761199E+02	0.000E+00	0.0
	14	1	6	6	0	0	1.5850231288E+02	-2.8473583693E+01	-6.4454560917E+02	7.3959297620E+02	3.2500000000E+02	0.000E+00	0.0
	-14	1	6	6	0	0	-8.5192229969E+01	1.2846443693E+02	-4.6918972059E+01	3.6274952452E+02	3.2500000000E+02	0.000E+00	0.0
	25	2	5	5	0	0	-7.3310082906E+01	-9.9990853240E+01	-2.6649852779E+02	3.1947711299E+02	1.2518634680E+02	0.000E+00	0.0
	-5	1	9	9	0	501	-4.7308559703E+01	-1.0685622845E+02	-1.0970887274E+02	1.6034295288E+02	4.1800000000E+00	0.000E+00	0.0
	5	1	9	9	501	0	-2.6001523203E+01	6.8653752066E+00	-1.5678965505E+02	1.5913416012E+02	4.1800000000E+00	0.000E+00	0.0
</event>
<event>
    11  -1  1.0000000E+00  1.0000000E+00  -1.0000000E+00  -1.0000000E+00
	2212	-1	0	0	0	0	0.0000000000E+00	0.0000000000E+00	6.5000000000E+03	6.5000000000E+03	9.3827000000E-01	0.000E+00	0.0
	2212	-1	0	0	0	0	0.0000000000E+00	0.0000000000E+00	-6.5000000000E+03	6.5000000000E+03	9.3827000000E-01	0.000E+00	0.0
	2212	1	0	0	0	0	0.0000000000E+00	0.0000000000E+00	6.3189392026E+03	6.3189392026E+03	9.3827000000E-01	0.000E+00	0.0
	2212	1	0	0	0	0	0.0000000000E+00	0.0000000000E+00	-4.9886287983E+03	4.9886287983E+03	9.3827000000E-01	0.000E+00	0.0
	51	2	1	2	0	0	-1.3014905692E+02	1.0056990287E+01	-1.2785439445E+03	1.6572009045E+03	1.0462314751E+03	0.000E+00	0.0
	1000022	2	5	5	0	0	1.3014905692E+02	-1.0056990287E+01	-1.1580622549E+03	1.4426698382E+03	8.5038118262E+02	0.000E+00	0.0
	14	1	6	6	0	0	2.5157794043E+01	2.0352698933E+02	-2.7647967690E+02	4.7341542194E+02	3.2500000000E+02	0.000E+00	0.0
	-14	1	6	6	0	0	1.0499126288E+02	-2.1358397961E+02	-8.8158257798E+02	9.6925441625E+02	3.2500000000E+02	0.000E+00	0.0
	25	2	5	5	0	0	-1.3014905692E+02	1.0056990287E+01	-1.7224814942E+02	2.4976216084E+02	1.2518702783E+02	0.000E+00	0.0
	-5	1	9	9	0	501	-1.1487934425E+02	2.8683658898E+01	-1.8687957460E+02	2.2127237475E+02	4.1800000000E+00	0.000E+00	0.0
	5	1	9	9	501	0	-1.5269712666E+01	-1.8626668611E+01	1.4631425182E+01	2.8489786087E+01	4.1800000000E+00	0.000E+00	0.0
</event>
<event>
    11  -1  1.0000000E+00  1.0000000E+00  -1.0000000E+00  -1.0000000E+00
	2212	-1	0	0	0	0	0.0000000000E+00	0.0000000000E+00	6.5000000000E+03	6.5000000000E+03	9.3827000000E-01	0.000E+00	0.0
	2212	-1	0	0	0	0	0.0000000000E+00	0.0000000000E+00	-6.5000000000E+03	6.5000000000E+03	9.3827000000E-01	0.000E+00	0.0
	2212	1	0	0	0	0	0.0000000000E+00	0.0000000000E+00	5.8596903128E+03	5.8596903128E+03	9.3827000000E-01	0.000E+00	0.0
	2212	1	0	0	0	0	0.0000000000E+00	0.0000000000E+00	-6.0689188881E+03	6.0689188881E+03	9.3827000000E-01	0.000E+00	0.0
	51	2	1	2	0	0	9.7644367841E+01	-2.2430846914E+01	3.0740413336E+02	1.0993800591E+03	1.0507624126E+03	0.000E+00	0.0
	1000022	2	5	5	0	0	-9.7644367841E+01	2.2430846914E+01	7.5780848609E+01	8.6278435165E+02	8.5359037891E+02	0.000E+00	0.0
	14	1	6	6	0	0	6.5638678507E+01	-1.9865166360E+02	-1.0473055504E+02	4.0045525184E+02	3.2500000000E+02	0.000E+00	0.0
	-14	1	6	6	0	0	-1.6328304635E+02	2.2108251051E+02	1.8051140365E+02	4.6232909981E+02	3.2500000000E+02	0.000E+00	0.0
	25	2	5	5	0	0	9.7644367841E+01	-2.2430846914E+01	1.3344772662E+02	2.0860644742E+02	1.2518302082E+02	0.000E+00	0.0
	-5	1	9	9	0	501	1.2021045022E+02	5.0280071715E+00	1.2107585579E+02	1.7074152527E+02	4.1800000000E+00	0.000E+00	0.0
	5	1	9	9	501	0	-2.2566082378E+01	-2.7458854086E+01	1.2371870833E+01	3.7864922151E+01	4.1800000000E+00	0.000E+00	0.0
</event>
<event>
    11  -1  1.0000000E+00  1.0000000E+00  -1.0000000E+00  -1.0000000E+00
	2212	-1	0	0	0	0	0.0000000000E+00	0.0000000000E+00	6.5000000000E+03	6.5000000000E+03	9.3827000000E-01	0.000E+00	0.0
	2212	-1	0	0	0	0	0.0000000000E+00	0.0000000000E+00	-6.5000000000E+03	6.5000000000E+03	9.3827000000E-01	0.000E+00	0.0
	2212	1	0	0	0	0	0.0000000000E+00	0.0000000000E+00	6.1804025029E+03	6.1804025029E+03	9.3827000000E-01	0.000E+00	0.0
	2212	1	0	0	0	0	0.0000000000E+00	0.0000000000E+00	-5.5968156909E+03	5.5968156909E+03	9.3827000000E-01	0.000E+00	0.0
	51	2	1	2	0	0	4.4780627539E+02	-6.6636104237E+01	-3.7999426366E+02	1.2263719866E+03	1.0745332840E+03	0.000E+00	0.0
	1000022	2	5	5	0	0	-4.4780627539E+02	6.6636104237E+01	-5.6452855130E+02	7.5267430077E+02	2.0701518579E+02	0.000E+00	0.0
	14	1	6	6	0	0	0.0000000000E+00	0.0000000000E+00	0.0000000000E+00	0.0000000000E+00	0.0000000000E+00	0.000E+00	0.0
	-14	1	6	6	0	0	0.0000000000E+00	0.0000000000E+00	0.0000000000E+00	0.0000000000E+00	0.0000000000E+00	0.000E+00	0.0
	25	2	5	5	0	0	4.4780627539E+02	-6.6636104237E+01	-1.9058260719E+01	4.7010750545E+02	1.2516796203E+02	0.000E+00	0.0
	-5	1	9	9	0	501	3.7639723090E+02	-2.8682021606E+01	-5.5028380104E+01	3.8150115178E+02	4.1800000000E+00	0.000E+00	0.0
	5	1	9	9	501	0	7.1409044485E+01	-3.7954082631E+01	3.5970119384E+01	8.8606353672E+01	4.1800000000E+00	0.000E+00	0.0
</event>
<event>
    11  -1  1.0000000E+00  1.0000000E+00  -1.0000000E+00  -1.0000000E+00
	2212	-1	0	0	0	0	0.0000000000E+00	0.0000000000E+00	6.5000000000E+03	6.5000000000E+03	9.3827000000E-01	0.000E+00	0.0
	2212	-1	0	0	0	0	0.0000000000E+00	0.0000000000E+00	-6.5000000000E+03	6.5000000000E+03	9.3827000000E-01	0.000E+00	0.0
	2212	1	0	0	0	0	0.0000000000E+00	0.0000000000E+00	6.0160583992E+03	6.0160583992E+03	9.3827000000E-01	0.000E+00	0.0
	2212	1	0	0	0	0	0.0000000000E+00	0.0000000000E+00	-5.8421198268E+03	5.8421198268E+03	9.3827000000E-01	0.000E+00	0.0
	51	2	1	2	0	0	-1.8482944791E+02	1.4311895160E+01	-6.3389878352E+01	1.1453765181E+03	1.1284956076E+03	0.000E+00	0.0
	1000022	2	5	5	0	0	1.8482944791E+02	-1.4311895160E+01	-2.4908218673E+02	9.0584997357E+02	8.5097325675E+02	0.000E+00	0.0
	14	1	6	6	0	0	-1.8728845668E+02	-2.9039469807E+01	-1.2169951096E+02	3.9541880049E+02	3.2500000000E+02	0.000E+00	0.0
	-14	1	6	6	0	0	3.7211790458E+02	1.4727574647E+01	-1.2738267577E+02	5.1043117308E+02	3.2500000000E+02	0.000E+00	0.0
	25	2	5	5	0	0	-1.8482944791E+02	1.4311895160E+01	7.5143614319E+01	2.3597180035E+02	1.2517736469E+02	0.000E+00	0.0
	-5	1	9	9	0	501	-6.4908934478E+01	4.5042117503E+01	-1.7822828584E+01	8.1099246254E+01	4.1800000000E+00	0.000E+00	0.0
	5	1	9	9	501	0	-1.1992051343E+02	-3.0730222343E+01	9.2966442903E+01	1.5487255410E+02	4.1800000000E+00	0.000E+00	0.0
</event>
<event>
    11  -1  1.0000000E+00  1.0000000E+00  -1.0000000E+00  -1.0000000E+00
	2212	-1	0	0	0	0	0.0000000000E+00	0.0000000000E+00	6.5000000000E+03	6.5000000000E+03	9.3827000000E-01	0.000E+00	0.0
	2212	-1	0	0	0	0	0.0000000000E+00	0.0000000000E+00	-6.5000000000E+03	6.5000000000E+03	9.3827000000E-01	0.000E+00	0.0
	2212	1	0	0	0	0	0.0000000000E+00	0.0000000000E+00	6.2684695186E+03	6.2684695186E+03	9.3827000000E-01	0.000E+00	0.0
	2212	1	0	0	0	0	0.0000000000E+00	0.0000000000E+00	-5.2884502472E+03	5.2884502472E+03	9.3827000000E-01	0.000E+00	0.0
	51	2	1	2	0	0	-1.4345231099E+02	-7.3439610397E+01	-9.8953847939E+02	1.4584927611E+03	1.0592652123E+03	0.000E+00	0.0
	1000022	2	5	5	0	0	1.4345231099E+02	7.3439610397E+01	-7.9298400144E+02	1.1662749697E+03	8.3988197773E+02	0.000E+00	0.0
	14	1	6	6	0	0	1.4238649729E+02	-1.5813178623E+02	-1.6463033092E+02	4.2190961388E+02	3.2500000000E+02	0.000E+00	0.0
	-14	1	6	6	0	0	1.0658137035E+00	2.3157139663E+02	-6.2835367053E+02	7.4436535583E+02	3.2500000000E+02	0.000E+00	0.0
	25	2	5	5	0	0	-1.4345231099E+02	-7.3439610397E+01	-1.8703526993E+02	2.7680526444E+02	1.2516796843E+02	0.000E+00	0.0
	-5	1	9	9	0	501	-7.0590506816E+01	4.2538124664E+00	-1.4656133121E+02	1.6278455326E+02	4.1800000000E+00	0.000E+00	0.0
	5	1	9	9	501	0	-7.2861804173E+01	-7.7693422863E+01	-4.0473938723E+01	1.1402071119E+02	4.1800000000E+00	0.000E+00	0.0
</event>
<event>
    11  -1  1.0000000E+00  1.0000000E+00  -1.0000000E+00  -1.0000000E+00
	2212	-1	0	0	0	0	0.0000000000E+00	0.0000000000E+00	6.5000000000E+03	6.5000000000E+03	9.3827000000E-01	0.000E+00	0.0
	2212	-1	0	0	0	0	0.0000000000E+00	0.0000000000E+00	-6.5000000000E+03	6.5000000000E+03	9.3827000000E-01	0.000E+00	0.0
	2212	1	0	0	0	0	0.0000000000E+00	0.0000000000E+00	6.2525201664E+03	6.2525201664E+03	9.3827000000E-01	0.000E+00	0.0
	2212	1	0	0	0	0	0.0000000000E+00	0.0000000000E+00	-5.3934456334E+03	5.3934456334E+03	9.3827000000E-01	0.000E+00	0.0
	51	2	1	2	0	0	1.0104435292E+01	-1.6946914593E+00	-1.0427884325E+03	1.4774681888E+03	1.0466133776E+03	0.000E+00	0.0
	1000022	2	5	5	0	0	-1.0104435292E+01	1.6946914593E+00	-5.3048823691E+02	1.0022589304E+03	8.5029419762E+02	0.000E+00	0.0
	14	1	6	6	0	0	1.5770544075E+02	-1.6057013252E+02	-8.6710122486E+01	4.0471893808E+02	3.2500000000E+02	0.000E+00	0.0
	-14	1	6	6	0	0	-1.6780987604E+02	1.6226482398E+02	-4.4377811442E+02	5.9753999233E+02	3.2500000000E+02	0.000E+00	0.0
	25	2	5	5	0	0	1.0104435292E+01	-1.6946914593E+00	-3.2858629608E+02	3.5177526985E+02	1.2518751901E+02	0.000E+00	0.0
	-5	1	9	9	0	501	4.9448386399E+01	2.2066282442E+01	-2.7818051458E+02	2.8343241669E+02	4.1800000000E+00	0.000E+00	0.0
	5	1	9	9	501	0	-3.9343951107E+01	-2.3760973901E+01	-5.0405781494E+01	6.8342853156E+01	4.1800000000E+00	0.000E+00	0.0
</event>
<event>
    11  -1  1.0000000E+00  1.0000000E+00  -1.0000000E+00  -1.0000000E+00
	2212	-1	0	0	0	0	0.0000000000E+00	0.0000000000E+00	6.5000000000E+03	6.5000000000E+03	9.3827000000E-01	0.000E+00	0.0
	2212	-1	0	0	0	0	0.0000000000E+00	0.0000000000E+00	-6.5000000000E+03	6.5000000000E+03	9.3827000000E-01	0.000E+00	0.0
	2212	1	0	0	0	0	0.0000000000E+00	0.0000000000E+00	6.1952451514E+03	6.1952451514E+03	9.3827000000E-01	0.000E+00	0.0
	2212	1	0	0	0	0	0.0000000000E+00	0.0000000000E+00	-5.5978242205E+03	5.5978242205E+03	9.3827000000E-01	0.000E+00	0.0
	51	2	1	2	0	0	-5.7385315207E+01	-9.9879114463E+01	-6.7697341015E+02	1.2535276951E+03	1.0486990858E+03	0.000E+00	0.0
	1000022	2	5	5	0	0	5.7385315207E+01	9.9879114463E+01	-4.1885590908E+02	9.6030496500E+02	8.5643239156E+02	0.000E+00	0.0
	14	1	6	6	0	0	8.4207500953E+01	-2.2350866348E+02	-2.2461190511E+02	4.6165196175E+02	3.2500000000E+02	0.000E+00	0.0
	-14	1	6	6	0	0	-2.6822185746E+01	3.2338777794E+02	-1.9424400397E+02	4.9865300325E+02	3.2500000000E+02	0.000E+00	0.0
	25	2	5	5	0	0	-5.7385315207E+01	-9.9879114463E+01	-1.7856502179E+02	2.4662566314E+02	1.2517922673E+02	0.000E+00	0.0
	-5	1	9	9	0	501	-7.2955949083E+01	-9.7796909246E+01	-7.8263429601E+01	1.4501531911E+02	4.1800000000E+00	0.000E+00	0.0
	5	1	9	9	501	0	1.5570633876E+01	-2.0822052174E+00	-1.0030159218E+02	1.0161034402E+02	4.1800000000E+00	0.000E+00	0.0
</event>
<event>
    11  -1  1.0000000E+00  1.0000000E+00  -1.0000000E+00  -1.0000000E+00
	2212	-1	0	0	0	0	0.0000000000E+00	0.0000000000E+00	6.5000000000E+03	6.5000000000E+03	9.3827000000E-01	0.000E+00	0.0
	2212	-1	0	0	0	0	0.0000000000E+00	0.0000000000E+00	-6.5000000000E+03	6.5000000000E+03	9.3827000000E-01	0.000E+00	0.0
	2212	1	0	0	0	0	0.0000000000E+00	0.0000000000E+00	5.4882947207E+03	5.4882947207E+03	9.3827000000E-01	0.000E+00	0.0
	2212	1	0	0	0	0	0.0000000000E+00	0.0000000000E+00	-6.2284495831E+03	6.2284495831E+03	9.3827000000E-01	0.000E+00	0.0
	51	2	1	2	0	0	-1.8055582464E+02	1.7879264996E+01	7.3856678597E+02	1.2951127105E+03	1.0482919257E+03	0.000E+00	0.0
	1000022	2	5	5	0	0	1.8055582464E+02	-1.7879264996E+01	5.9697009859E+02	1.0203963832E+03	8.0741278560E+02	0.000E+00	0.0
	14	1	6	6	0	0	1.6256366949E+02	8.6655112704E+01	5.6458908228E+02	6.7699474667E+02	3.2500000000E+02	0.000E+00	0.0
	-14	1	6	6	0	0	1.7992155157E+01	-1.0453437770E+02	3.2381016311E+01	3.4340163655E+02	3.2500000000E+02	0.000E+00	0.0
	25	2	5	5	0	0	-1.8055582464E+02	1.7879264996E+01	1.4318476381E+02	2.6285931301E+02	1.2519212403E+02	0.000E+00	0.0
	-5	1	9	9	0	501	-1.5113814245E+02	4.0205678979E+01	5.2780840030E+01	1.6511367054E+02	4.1800000000E+00	0.000E+00	0.0
	5	1	9	9	501	0	-2.9417682197E+01	-2.2326413983E+01	9.0403923785E+01	9.7745642475E+01	4.1800000000E+00	0.000E+00	0.0
</event>
<event>
    11  -1  1.0000000E+00  1.0000000E+00  -1.0000000E+00  -1.0000000E+00
	2212	-1	0	0	0	0	0.0000000000E+00	0.0000000000E+00	6.5000000000E+03	6.5000000000E+03	9.3827000000E-01	0.000E+00	0.0
	2212	-1	0	0	0	0	0.0000000000E+00	0.0000000000E+00	-6.5000000000E+03	6.5000000000E+03	9.3827000000E-01	0.000E+00	0.0
	2212	1	0	0	0	0	0.0000000000E+00	0.0000000000E+00	5.8343596602E+03	5.8343596602E+03	9.3827000000E-01	0.000E+00	0.0
	2212	1	0	0	0	0	0.0000000000E+00	0.0000000000E+00	-5.7061969185E+03	5.7061969185E+03	9.3827000000E-01	0.000E+00	0.0
	51	2	1	2	0	0	3.6967327317E+02	2.1915475852E+02	4.1010978814E+01	1.5165482021E+03	1.4538051492E+03	0.000E+00	0.0
	1000022	2	5	5	0	0	-3.6967327317E+02	-2.1915475852E+02	-2.6134060401E+02	9.9243855846E+02	8.5553973837E+02	0.000E+00	0.0
	14	1	6	6	0	0	8.6561457021E+01	-1.0350838570E+02	-2.2839904094E+02	4.1952114804E+02	3.2500000000E+02	0.000E+00	0.0
	-14	1	6	6	0	0	-4.5623473019E+02	-1.1564637282E+02	-3.2941563074E+01	5.7291741042E+02	3.2500000000E+02	0.000E+00	0.0
	25	2	5	5	0	0	3.6967327317E+02	2.1915475852E+02	1.3317786235E+02	4.6700486287E+02	1.2518011761E+02	0.000E+00	0.0
	-5	1	9	9	0	501	2.5484666737E+02	9.0959962964E+01	1.1446881480E+02	2.9383859633E+02	4.1800000000E+00	0.000E+00	0.0
	5	1	9	9	501	0	1.1482660580E+02	1.2819479555E+02	1.8709047553E+01	1.7316626654E+02	4.1800000000E+00	0.000E+00	0.0
</event>
<event>
    11  -1  1.0000000E+00  1.0000000E+00  -1.0000000E+00  -1.0000000E+00
	2212	-1	0	0	0	0	0.0000000000E+00	0.0000000000E+00	6.5000000000E+03	6.5000000000E+03	9.3827000000E-01	0.000E+00	0.0
	2212	-1	0	0	0	0	0.0000000000E+00	0.0000000000E+00	-6.5000000000E+03	6.5000000000E+03	9.3827000000E-01	0.000E+00	0.0
	2212	1	0	0	0	0	0.0000000000E+00	0.0000000000E+00	6.1043107697E+03	6.1043107697E+03	9.3827000000E-01	0.000E+00	0.0
	2212	1	0	0	0	0	0.0000000000E+00	0.0000000000E+00	-5.8003524729E+03	5.8003524729E+03	9.3827000000E-01	0.000E+00	0.0
	51	2	1	2	0	0	-2.4551067298E+01	7.2355765236E+01	-4.3077540567E+02	1.1396392094E+03	1.0523174263E+03	0.000E+00	0.0
	1000022	2	5	5	0	0	2.4551067298E+01	-7.2355765236E+01	-1.2529036627E+02	8.6418594017E+02	8.5163463506E+02	0.000E+00	0.0
	14	1	6	6	0	0	1.4057668422E+02	-2.7181952132E+02	-1.3211363230E+02	4.6553911560E+02	3.2500000000E+02	0.000E+00	0.0
	-14	1	6	6	0	0	-1.1602561692E+02	1.9946375608E+02	6.8232660359E+00	3.9864682456E+02	3.2500000000E+02	0.000E+00	0.0
	25	2	5	5	0	0	-2.4551067298E+01	7.2355765236E+01	-1.7866793051E+02	2.3115081716E+02	1.2518130537E+02	0.000E+00	0.0
	-5	1	9	9	0	501	2.1114671798E+00	-2.7276995803E+01	-9.2931772392E+01	9.6965352130E+01	4.1800000000E+00	0.000E+00	0.0
	5	1	9	9	501	0	-2.6662534478E+01	9.9632761039E+01	-8.5736158115E+01	1.3418546503E+02	4.1800000000E+00	0.000E+00	0.0
</event>
<event>
    11  -1  1.0000000E+00  1.0000000E+00  -1.0000000E+00  -1.0000000E+00
	2212	-1	0	0	0	0	0.0000000000E+00	0.0000000000E+00	6.5000000000E+03	6.5000000000E+03	9.3827000000E-01	0.000E+00	0.0
	2212	-1	0	0	0	0	0.0000000000E+00	0.0000000000E+00	-6.5000000000E+03	6.5000000000E+03	9.3827000000E-01	0.000E+00	0.0
	2212	1	0	0	0	0	0.0000000000E+00	0.0000000000E+00	6.0200666365E+03	6.0200666365E+03	9.3827000000E-01	0.000E+00	0.0
	2212	1	0	0	0	0	0.0000000000E+00	0.0000000000E+00	-5.9290918287E+03	5.9290918287E+03	9.3827000000E-01	0.000E+00	0.0
	51	2	1	2	0	0	8.8238239445E+01	-1.4899690107E+01	-1.9744723245E+02	1.0691047250E+03	1.0468961341E+03	0.000E+00	0.0
	1000022	2	5	5	0	0	-8.8238239445E+01	1.4899690107E+01	3.0910748092E+01	8.5454270202E+02	8.4928191289E+02	0.000E+00	0.0
	14	1	6	6	0	0	-1.2148794234E+02	1.4625534475E+01	-2.4657397077E+02	4.2590720756E+02	3.2500000000E+02	0.000E+00	0.0
	-14	1	6	6	0	0	3.3249702892E+01	2.7415563219E-01	2.7748471886E+02	4.2863549445E+02	3.2500000000E+02	0.000E+00	0.0
	25	2	5	5	0	0	8.8238239445E+01	-1.4899690107E+01	-1.2188555583E+02	1.9629883280E+02	1.2517649689E+02	0.000E+00	0.0
	-5	1	9	9	0	501	1.1717667293E+02	6.8119925922E+00	-9.3797199950E+01	1.5030689618E+02	4.1800000000E+00	0.000E+00	0.0
	5	1	9	9	501	0	-2.8938433480E+01	-2.1711682699E+01	-2.8088355881E+01	4.5991936620E+01	4.1800000000E+00	0.000E+00	0.0
</event>
<event>
    11  -1  1.0000000E+00  1.0000000E+00  -1.0000000E+00  -1.0000000E+00
	2212	-1	0	0	0	0	0.0000000000E+00	0.0000000000E+00	6.5000000000E+03	6.5000000000E+03	9.3827000000E-01	0.000E+00	0.0
	2212	-1	0	0	0	0	0.0000000000E+00	0.0000000000E+00	-6.5000000000E+03	6.5000000000E+03	9.3827000000E-01	0.000E+00	0.0
	2212	1	0	0	0	0	0.0000000000E+00	0.0000000000E+00	6.2882256928E+03	6.2882256928E+03	9.3827000000E-01	0.000E+00	0.0
	2212	1	0	0	0	0	0.0000000000E+00	0.0000000000E+00	-5.2337055627E+03	5.2337055627E+03	9.3827000000E-01	0.000E+00	0.0
	51	2	1	2	0	0	-1.1701056657E+02	1.3853076825E+01	-1.0277400920E+03	1.4638331823E+03	1.0357000089E+03	0.000E+00	0.0
	1000022	2	5	5	0	0	1.1701056657E+02	-1.3853076825E+01	-9.1189845645E+02	1.2548623002E+03	8.5395387296E+02	0.000E+00	0.0
	14	1	6	6	0	0	4.5989889848E+01	-2.2810852495E+01	-5.2386643670E+01	3.3317377657E+02	3.2500000000E+02	0.000E+00	0.0
	-14	1	6	6	0	0	7.1020676718E+01	8.9577756698E+00	-8.5951181278E+02	9.2168852362E+02	3.2500000000E+02	0.000E+00	0.0
	25	2	5	5	0	0	-1.1701056657E+02	1.3853076825E+01	-1.4262167370E+02	2.2320644428E+02	1.2488712717E+02	0.000E+00	0.0
	-5	1	9	9	0	501	-1.1448939798E+02	-8.6128531363E+00	-4.5781416208E+01	1.2367462941E+02	4.1800000000E+00	0.000E+00	0.0
	5	1	9	9	501	0	-2.5211685831E+00	2.2465929961E+01	-9.6840257496E+01	9.9531814873E+01	4.1800000000E+00	0.000E+00	0.0
</event>
<event>
    11  -1  1.0000000E+00  1.0000000E+00  -1.0000000E+00  -1.0000000E+00
	2212	-1	0	0	0	0	0.0000000000E+00	0.0000000000E+00	6.5000000000E+03	6.5000000000E+03	9.3827000000E-01	0.000E+00	0.0
	2212	-1	0	0	0	0	0.0000000000E+00	0.0000000000E+00	-6.5000000000E+03	6.5000000000E+03	9.3827000000E-01	0.000E+00	0.0
	2212	1	0	0	0	0	0.0000000000E+00	0.0000000000E+00	5.3082784082E+03	5.3082784082E+03	9.3827000000E-01	0.000E+00	0.0
	2212	1	0	0	0	0	0.0000000000E+00	0.0000000000E+00	-6.2708010937E+03	6.2708010937E+03	9.3827000000E-01	0.000E+00	0.0
	51	2	1	2	0	0	-5.1372826483E+01	-8.0967875264E+01	1.0806057657E+03	1.5064756642E+03	1.0452584091E+03	0.000E+00	0.0
	1000022	2	5	5	0	0	5.1372826483E+01	8.0967875264E+01	6.8836667483E+02	1.1049632547E+03	8.5901114728E+02	0.000E+00	0.0
	14	1	6	6	0	0	2.9624720456E+02	-3.4987778071E+01	3.5860441110E+02	5.6851444527E+02	3.2500000000E+02	0.000E+00	0.0
	-14	1	6	6	0	0	-2.4487437808E+02	1.1595565334E+02	3.2976226373E+02	5.3644880945E+02	3.2500000000E+02	0.000E+00	0.0
	25	2	5	5	0	0	-5.1372826483E+01	-8.0967875264E+01	2.7415601070E+02	3.1595724337E+02	1.2438849347E+02	0.000E+00	0.0
	-5	1	9	9	0	501	-5.2382939650E+01	-5.1375667374E+01	4.7875782644E+01	8.7709717410E+01	4.1800000000E+00	0.000E+00	0.0
	5	1	9	9	501	0	1.0101131662E+00	-2.9592207891E+01	2.2628022806E+02	2.2824752596E+02	4.1800000000E+00	0.000E+00	0.0
</event>
<event>
    11  -1  1.0000000E+00  1.0000000E+00  -1.0000000E+00  -1.0000000E+00
	2212	-1	0	0	0	0	0.0000000000E+00	0.0000000000E+00	6.5000000000E+03	6.5000000000E+03	9.3827000000E-01	0.000E+00	0.0
	2212	-1	0	0	0	0	0.0000000000E+00	0.0000000000E+00	-6.5000000000E+03	6.5000000000E+03	9.3827000000E-01	0.000E+00	0.0
	2212	1	0	0	0	0	0.0000000000E+00	0.0000000000E+00	5.5699990420E+03	5.5699990420E+03	9.3827000000E-01	0.000E+00	0.0
	2212	1	0	0	0	0	0.0000000000E+00	0.0000000000E+00	-6.1962345867E+03	6.1962345867E+03	9.3827000000E-01	0.000E+00	0.0
	51	2	1	2	0	0	-1.0575783926E+02	9.0321563212E+01	6.8714476229E+02	1.2733888374E+03	1.0630185801E+03	0.000E+00	0.0
	1000022	2	5	5	0	0	1.0575783926E+02	-9.0321563212E+01	4.5757272426E+02	9.8185513839E+02	8.5751035531E+02	0.000E+00	0.0
	14	1	6	6	0	0	7.0596467837E+01	-2.0649512565E+02	-1.9524906634E+01	3.9195703867E+02	3.2500000000E+02	0.000E+00	0.0
	-14	1	6	6	0	0	3.5161371418E+01	1.1617356244E+02	4.7709763089E+02	5.8989809972E+02	3.2500000000E+02	0.000E+00	0.0
	25	2	5	5	0	0	-1.0575783926E+02	9.0321563212E+01	1.6866282042E+02	2.5191123295E+02	1.2517754171E+02	0.000E+00	0.0
	-5	1	9	9	0	501	-8.9823883731E+01	7.8171960310E+01	1.8876379011E+02	2.2322281766E+02	4.1800000000E+00	0.000E+00	0.0
	5	1	9	9	501	0	-1.5933955525E+01	1.2149602903E+01	-2.0100969691E+01	2.8688415290E+01	4.1800000000E+00	0.000E+00	0.0
</event>
<event>
    11  -1  1.0000000E+00  1.0000000E+00  -1.0000000E+00  -1.0000000E+00
	2212	-1	0	0	0	0	0.0000000000E+00	0.0000000000E+00	6.5000000000E+03	6.5000000000E+03	9.3827000000E-01	0.000E+00	0.0
	2212	-1	0	0	0	0	0.0000000000E+00	0.0000000000E+00	-6.5000000000E+03	6.5000000000E+03	9.3827000000E-01	0.000E+00	0.0
	2212	1	0	0	0	0	0.0000000000E+00	0.0000000000E+00	5.9999892384E+03	5.9999892384E+03	9.3827000000E-01	0.000E+00	0.0
	2212	1	0	0	0	0	0.0000000000E+00	0.0000000000E+00	-5.9015285641E+03	5.9015285641E+03	9.3827000000E-01	0.000E+00	0.0
	51	2	1	2	0	0	1.9907543436E+01	-1.2636645568E+01	-2.9319596129E+02	1.1329115149E+03	1.0940606170E+03	0.000E+00	0.0
	1000022	2	5	5	0	0	-1.9907543436E+01	1.2636645568E+01	1.1550884975E+02	8.4946500412E+02	8.4124461588E+02	0.000E+00	0.0
	14	1	6	6	0	0	1.1398819563E+02	2.9576225809E+00	-1.8137613885E+02	3.8926130044E+02	3.2500000000E+02	0.000E+00	0.0
	-14	1	6	6	0	0	-1.3389573906E+02	9.6790229876E+00	2.9688498860E+02	4.6020370368E+02	3.2500000000E+02	0.000E+00	0.0
	25	2	5	5	0	0	1.9907543436E+01	-1.2636645568E+01	-2.1396952403E+02	2.4901719334E+02	1.2518230812E+02	0.000E+00	0.0
	-5	1	9	9	0	501	3.6127962894E+01	-5.4884958541E+01	-6.2149731929E+01	9.0540874503E+01	4.1800000000E+00	0.000E+00	0.0
	5	1	9	9	501	0	-1.6220419458E+01	4.2248312973E+01	-1.5181979210E+02	1.5847631883E+02	4.1800000000E+00	0.000E+00	0.0
</event>
<event>
    11  -1  1.0000000E+00  1.0000000E+00  -1.0000000E+00  -1.0000000E+00
	2212	-1	0	0	0	0	0.0000000000E+00	0.0000000000E+00	6.5000000000E+03	6.5000000000E+03	9.3827000000E-01	0.000E+00	0.0
	2212	-1	0	0	0	0	0.0000000000E+00	0.0000000000E+00	-6.5000000000E+03	6.5000000000E+03	9.3827000000E-01	0.000E+00	0.0
	2212	1	0	0	0	0	0.0000000000E+00	0.0000000000E+00	6.1372393506E+03	6.1372393506E+03	9.3827000000E-01	0.000E+00	0.0
	2212	1	0	0	0	0	0.0000000000E+00	0.0000000000E+00	-5.7416961330E+03	5.7416961330E+03	9.3827000000E-01	0.000E+00	0.0
	51	2	1	2	0	0	-1.1217391761E+02	7.9337171023E+01	-3.9113723473E+02	1.1279170731E+03	1.0489667358E+03	0.000E+00	0.0
	1000022	2	5	5	0	0	1.1217391761E+02	-7.9337171023E+01	-3.3319957268E+02	9.2502747619E+02	8.5192517393E+02	0.000E+00	0.0
	14	1	6	6	0	0	-2.4092649886E+01	2.1478673003E+02	-2.3508453667E+02	4.5563530873E+02	3.2500000000E+02	0.000E+00	0.0
	-14	1	6	6	0	0	1.3626656750E+02	-2.9412390105E+02	-9.8115036004E+01	4.6939216747E+02	3.2500000000E+02	0.000E+00	0.0
	25	2	5	5	0	0	-1.1217391761E+02	7.9337171023E+01	-6.2343644983E+01	1.9603704020E+02	1.2516555662E+02	0.000E+00	0.0
	-5	1	9	9	0	501	2.0273971875E+01	4.2059427576E+01	-5.8612336150E+00	4.7242521557E+01	4.1800000000E+00	0.000E+00	0.0
	5	1	9	9	501	0	-1.3244788948E+02	3.7277743447E+01	-5.6482411368E+01	1.4879451865E+02	4.1800000000E+00	0.000E+00	0.0
</event>
<event>
    11  -1  1.0000000E+00  1.0000000E+00  -1.0000000E+00  -1.0000000E+00
	2212	-1	0	0	0	0	0.0000000000E+00	0.0000000000E+00	6.5000000000E+03	6.5000000000E+03	9.3827000000E-01	0.000E+00	0.0
	2212	-1	0	0	0	0	0.0000000000E+00	0.0000000000E+00	-6.5000000000E+03	6.5000000000E+03	9.3827000000E-01	0.000E+00	0.0
	2212	1	0	0	0	0	0.0000000000E+00	0.0000000000E+00	5.8985925755E+03	5.8985925755E+03	9.3827000000E-01	0.000E+00	0.0
	2212	1	0	0	0	0	0.0000000000E+00	0.0000000000E+00	-5.7931186399E+03	5.7931186399E+03	9.3827000000E-01	0.000E+00	0.0
	51	2	1	2	0	0	-7.6393094486E+01	3.1752301854E+02	-2.6037682597E+02	1.3692872805E+03	1.3040302116E+03	0.000E+00	0.0
	1000022	2	5	5	0	0	7.6393094486E+01	-3.1752301854E+02	7.6288820379E+01	9.1412303996E+02	8.5037884256E+02	0.000E+00	0.0
	14	1	6	6	0	0	3.0205264558E+02	-1.0427155066E+02	-1.2581127836E+01	4.5595135898E+02	3.2500000000E+02	0.000E+00	0.0
	-14	1	6	6	0	0	-2.2565955109E+02	-2.1325146788E+02	8.8869948215E+01	4.5817168097E+02	3.2500000000E+02	0.000E+00	0.0
	25	2	5	5	0	0	-7.6393094486E+01	3.1752301854E+02	-1.8176275598E+02	3.9416574467E+02	1.2518850832E+02	0.000E+00	0.0
	-5	1	9	9	0	501	1.2043607038E+01	1.0697890829E+02	-1.1186331792E+02	1.5530746790E+02	4.1800000000E+00	0.000E+00	0.0
	5	1	9	9	501	0	-8.8436701524E+01	2.1054411026E+02	-6.9899438066E+01	2.3885827677E+02	4.1800000000E+00	0.000E+00	0.0
</event>
<event>
    11  -1  1.0000000E+00  1.0000000E+00  -1.0000000E+00  -1.0000000E+00
	2212	-1	0	0	0	0	0.0000000000E+00	0.0000000000E+00	6.5000000000E+03	6.5000000000E+03	9.3827000000E-01	0.000E+00	0.0
	2212	-1	0	0	0	0	0.0000000000E+00	0.0000000000E+00	-6.5000000000E+03	6.5000000000E+03	9.3827000000E-01	0.000E+00	0.0
	2212	1	0	0	0	0	0.0000000000E+00	0.0000000000E+00	6.1631601247E+03	6.1631601247E+03	9.3827000000E-01	0.000E+00	0.0
	2212	1	0	0	0	0	0.0000000000E+00	0.0000000000E+00	-5.7009380850E+03	5.7009380850E+03	9.3827000000E-01	0.000E+00	0.0
	51	2	1	2	0	0	7.5881794223E+01	5.4133036645E+01	-5.6778086900E+02	1.1864599492E+03	1.0376047723E+03	0.000E+00	0.0
	1000022	2	5	5	0	0	-7.5881794223E+01	-5.4133036645E+01	-2.7942922001E+02	8.9554258270E+02	8.4571117770E+02	0.000E+00	0.0
	14	1	6	6	0	0	2.0675761962E+00	2.3997507170E+02	-1.6066320639E+02	4.3477577646E+02	3.2500000000E+02	0.000E+00	0.0
	-14	1	6	6	0	0	-7.7949370419E+01	-2.9410810834E+02	-1.1876601362E+02	4.6076680624E+02	3.2500000000E+02	0.000E+00	0.0
	25	2	5	5	0	0	7.5881794223E+01	5.4133036645E+01	-1.8279281969E+02	2.4035920768E+02	1.2518347110E+02	0.000E+00	0.0
	-5	1	9	9	0	501	7.6384877919E+01	5.8616368332E+01	-2.0004174170E+02	2.2204661455E+02	4.1800000000E+00	0.000E+00	0.0
	5	1	9	9	501	0	-5.0308369631E-01	-4.4833316865E+00	1.7248922017E+01	1.8312593125E+01	4.1800000000E+00	0.000E+00	0.0
</event>
<event>
    11  -1  1.0000000E+00  1.0000000E+00  -1.0000000E+00  -1.0000000E+00
	2212	-1	0	0	0	0	0.0000000000E+00	0.0000000000E+00	6.5000000000E+03	6.5000000000E+03	9.3827000000E-01	0.000E+00	0.0
	2212	-1	0	0	0	0	0.0000000000E+00	0.0000000000E+00	-6.5000000000E+03	6.5000000000E+03	9.3827000000E-01	0.000E+00	0.0
	2212	1	0	0	0	0	0.0000000000E+00	0.0000000000E+00	5.2028929262E+03	5.2028929262E+03	9.3827000000E-01	0.000E+00	0.0
	2212	1	0	0	0	0	0.0000000000E+00	0.0000000000E+00	-6.2847172288E+03	6.2847172288E+03	9.3827000000E-01	0.000E+00	0.0
	51	2	1	2	0	0	6.5369073876E+00	-8.8540054385E+00	1.2763169735E+03	1.6571316673E+03	1.0568723770E+03	0.000E+00	0.0
	1000022	2	5	5	0	0	-6.5369073876E+00	8.8540054385E+00	7.1037134140E+02	1.1202576233E+03	8.6615736181E+02	0.000E+00	0.0
	14	1	6	6	0	0	-1.7260373942E+02	1.8408414939E+02	5.4510937949E+02	6.8297017543E+02	3.2500000000E+02	0.000E+00	0.0
	-14	1	6	6	0	0	1.6606683203E+02	-1.7523014395E+02	1.6526196191E+02	4.3728744792E+02	3.2500000000E+02	0.000E+00	0.0
	25	2	5	5	0	0	6.5369073876E+00	-8.8540054385E+00	3.7145296128E+02	3.9213222163E+02	1.2517688376E+02	0.000E+00	0.0
	-5	1	9	9	0	501	-4.4332118124E+01	-3.4037205964E+01	2.7045616375E+02	2.7620260136E+02	4.1800000000E+00	0.000E+00	0.0
	5	1	9	9	501	0	5.0869025512E+01	2.5183200526E+01	1.0099679753E+02	1.1592962027E+02	4.1800000000E+00	0.000E+00	0.0
</event>
<event>
    11  -1  1.0000000E+00  1.0000000E+00  -1.0000000E+00  -1.0000000E+00
	2212	-1	0	0	0	0	0.0000000000E+00	0.0000000000E+00	6.5000000000E+03	6.5000000000E+03	9.3827000000E-01	0.000E+00	0.0
	2212	-1	0	0	0	0	0.0000000000E+00	0.0000000000E+00	-6.5000000000E+03	6.5000000000E+03	9.3827000000E-01	0.000E+00	0.0
	2212	1	0	0	0	0	0.0000000000E+00	0.0000000000E+00	6.3278673236E+03	6.3278673236E+03	9.3827000000E-01	0.000E+00	0.0
	2212	1	0	0	0	0	0.0000000000E+00	0.0000000000E+00	-4.9119109457E+03	4.9119109457E+03	9.3827000000E-01	0.000E+00	0.0
	51	2	1	2	0	0	3.5890887081E+01	9.3172566085E+01	-1.5421329686E+03	1.8659023159E+03	1.0456806764E+03	0.000E+00	0.0
	1000022	2	5	5	0	0	-3.5890887081E+01	-9.3172566085E+01	-1.0630525653E+03	1.3726891129E+03	8.6268497214E+02	0.000E+00	0.0
	14	1	6	6	0	0	-1.9757408989E+02	-2.3316372704E+02	-7.5285092256E+02	8.7510591142E+02	3.2500000000E+02	0.000E+00	0.0
	-14	1	6	6	0	0	1.6168320281E+02	1.3999116095E+02	-3.1020164276E+02	4.9758320147E+02	3.2500000000E+02	0.000E+00	0.0
	25	2	5	5	0	0	3.5890887081E+01	9.3172566085E+01	-3.5290381266E+02	3.8753261782E+02	1.2518444806E+02	0.000E+00	0.0
	-5	1	9	9	0	501	3.1079919990E+01	-9.8268995994E+00	-2.0237923107E+02	2.0503013181E+02	4.1800000000E+00	0.000E+00	0.0
	5	1	9	9	501	0	4.8109670914E+00	1.0299946568E+02	-1.5052458159E+02	1.8250248601E+02	4.1800000000E+00	0.000E+00	0.0
</event>
<event>
    11  -1  1.0000000E+00  1.0000000E+00  -1.0000000E+00  -1.0000000E+00
	2212	-1	0	0	0	0	0.0000000000E+00	0.0000000000E+00	6.5000000000E+03	6.5000000000E+03	9.3827000000E-01	0.000E+00	0.0
	2212	-1	0	0	0	0	0.0000000000E+00	0.0000000000E+00	-6.5000000000E+03	6.5000000000E+03	9.3827000000E-01	0.000E+00	0.0
	2212	1	0	0	0	0	0.0000000000E+00	0.0000000000E+00	6.3085172579E+03	6.3085172579E+03	9.3827000000E-01	0.000E+00	0.0
	2212	1	0	0	0	0	0.0000000000E+00	0.0000000000E+00	-5.0180351541E+03	5.0180351541E+03	9.3827000000E-01	0.000E+00	0.0
	51	2	1	2	0	0	2.3369879680E+01	-9.7432183062E+01	-1.4924032963E+03	1.8364066952E+03	1.0654026327E+03	0.000E+00	0.0
	1000022	2	5	5	0	0	-2.3369879680E+01	9.7432183062E+01	-8.5993810552E+02	1.2140192143E+03	8.5106399623E+02	0.000E+00	0.0
	14	1	6	6	0	0	-7.1169568702E+01	1.0714216019E+02	-6.7294223719E+01	3.5594671307E+02	3.2500000000E+02	0.000E+00	0.0
	-14	1	6	6	0	0	4.7799689022E+01	-9.7099771321E+00	-7.9264388180E+02	8.5807250118E+02	3.2500000000E+02	0.000E+00	0.0
	25	2	5	5	0	0	2.3369879680E+01	-9.7432183062E+01	-4.3054399831E+02	4.5942837381E+02	1.2516834510E+02	0.000E+00	0.0
	-5	1	9	9	0	501	3.1365257221E+01	-1.0475509040E+02	-1.9506790096E+02	2.2366574774E+02	4.1800000000E+00	0.000E+00	0.0
	5	1	9	9	501	0	-7.9953775417E+00	7.3229073370E+00	-2.3547609734E+02	2.3576262608E+02	4.1800000000E+00	0.000E+00	0.0
</event>
<event>
    11  -1  1.0000000E+00  1.0000000E+00  -1.0000000E+00  -1.0000000E+00
	2212	-1	0	0	0	0	0.0000000000E+00	0.0000000000E+00	6.5000000000E+03	6.5000000000E+03	9.3827000000E-01	0.000E+00	0.0
	2212	-1	0	0	0	0	0.0000000000E+00	0.0000000000E+00	-6.5000000000E+03	6.5000000000E+03	9.3827000000E-01	0.000E+00	0.0
	2212	1	0	0	0	0	0.0000000000E+00	0.0000000000E+00	5.5720762155E+03	5.5720762155E+03	9.3827000000E-01	0.000E+00	0.0
	2212	1	0	0	0	0	0.0000000000E+00	0.0000000000E+00	-6.1885338567E+03	6.1885338567E+03	9.3827000000E-01	0.000E+00	0.0
	51	2	1	2	0	0	1.0044617598E+02	-1.0559555775E+02	5.2000062893E+02	1.2032073304E+03	1.0752057337E+03	0.000E+00	0.0
	1000022	2	5	5	0	0	-1.0044617598E+02	1.0559555775E+02	5.9896460000E+02	1.0464756028E+03	8.4564338768E+02	0.000E+00	0.0
	14	1	6	6	0	0	1.1663418712E+02	1.7284940939E+02	8.1713600616E+01	3.9469300027E+02	3.2500000000E+02	0.000E+00	0.0
	-14	1	6	6	0	0	-2.1708036310E+02	-6.7253851641E+01	5.1725099938E+02	6.5178260254E+02	3.2500000000E+02	0.000E+00	0.0
	25	2	5	5	0	0	1.0044617598E+02	-1.0559555775E+02	1.7493041126E+01	1.9291432500E+02	1.2518016703E+02	0.000E+00	0.0
	-5	1	9	9	0	501	3.6283072254E+01	1.3751699499E+01	-3.0048315927E+01	4.9253875597E+01	4.1800000000E+00	0.000E+00	0.0
	5	1	9	9	501	0	6.4163103725E+01	-1.1934725725E+02	4.7541357053E+01	1.4366044941E+02	4.1800000000E+00	0.000E+00	0.0
</event>
<event>
    11  -1  1.0000000E+00  1.0000000E+00  -1.0000000E+00  -1.0000000E+00
	2212	-1	0	0	0	0	0.0000000000E+00	0.0000000000E+00	6.5000000000E+03	6.5000000000E+03	9.3827000000E-01	0.000E+00	0.0
	2212	-1	0	0	0	0	0.0000000000E+00	0.0000000000E+00	-6.5000000000E+03	6.5000000000E+03	9.3827000000E-01	0.000E+00	0.0
	2212	1	0	0	0	0	0.0000000000E+00	0.0000000000E+00	5.9584330328E+03	5.9584330328E+03	9.3827000000E-01	0.000E+00	0.0
	2212	1	0	0	0	0	0.0000000000E+00	0.0000000000E+00	-5.7448340662E+03	5.7448340662E+03	9.3827000000E-01	0.000E+00	0.0
	51	2	1	2	0	0	-2.2631740364E+02	2.4731243812E+02	-1.8463180124E+02	1.3350519125E+03	1.2790198192E+03	0.000E+00	0.0
	1000022	2	5	5	0	0	2.2631740364E+02	-2.4731243812E+02	-1.8980342453E+02	9.3809802006E+02	8.5534761707E+02	0.000E+00	0.0
	14	1	6	6	0	0	2.2076416375E+02	-6.7705089951E+01	-3.5295729887E+02	5.3247032783E+02	3.2500000000E+02	0.000E+00	0.0
	-14	1	6	6	0	0	5.5532398949E+00	-1.7960734817E+02	1.6315387433E+02	4.0562769223E+02	3.2500000000E+02	0.000E+00	0.0
	25	2	5	5	0	0	-2.2631740364E+02	2.4731243812E+02	-2.3795542067E+01	3.5863488087E+02	1.2517883493E+02	0.000E+00	0.0
	-5	1	9	9	0	501	-2.8678412535E+01	6.2727792578E+01	-5.2319697226E+01	8.6672085616E+01	4.1800000000E+00	0.000E+00	0.0
	5	1	9	9	501	0	-1.9763899111E+02	1.8458464554E+02	2.8524155159E+01	2.7196279526E+02	4.1800000000E+00	0.000E+00	0.0
</event>
<event>
    11  -1  1.0000000E+00  1.0000000E+00  -1.0000000E+00  -1.0000000E+00
	2212	-1	0	0	0	0	0.0000000000E+00	0.0000000000E+00	6.5000000000E+03	6.5000000000E+03	9.3827000000E-01	0.000E+00	0.0
	2212	-1	0	0	0	0	0.0000000000E+00	0.0000000000E+00	-6.5000000000E+03	6.5000000000E+03	9.3827000000E-01	0.000E+00	0.0
	2212	1	0	0	0	0	0.0000000000E+00	0.0000000000E+00	5.2780907357E+03	5.2780907357E+03	9.3827000000E-01	0.000E+00	0.0
	2212	1	0	0	0	0	0.0000000000E+00	0.0000000000E+00	-6.2759772742E+03	6.2759772742E+03	9.3827000000E-01	0.000E+00	0.0
	51	2	1	2	0	0	1.1261549784E+02	4.6888177271E+01	9.8516331952E+02	1.4423485341E+03	1.0463946560E+03	0.000E+00	0.0
	1000022	2	5	5	0	0	-1.1261549784E+02	-4.6888177271E+01	8.5022667058E+02	1.2171212538E+03	8.6233288443E+02	0.000E+00	0.0
	14	1	6	6	0	0	-2.1752495621E+01	-1.3000743939E+02	6.2645545226E+01	3.5626474664E+02	3.2500000000E+02	0.000E+00	0.0
	-14	1	6	6	0	0	-9.0863002216E+01	8.3119262121E+01	7.8758112535E+02	8.6085650716E+02	3.2500000000E+02	0.000E+00	0.0
	25	2	5	5	0	0	1.1261549784E+02	4.6888177271E+01	1.4765986793E+02	2.2881073624E+02	1.2518052924E+02	0.000E+00	0.0
	-5	1	9	9	0	501	7.9483688957E+01	6.3875322358E+01	3.1572489425E+01	1.0682700082E+02	4.1800000000E+00	0.000E+00	0.0
	5	1	9	9	501	0	3.3131808880E+01	-1.6987145088E+01	1.1608737850E+02	1.2198373541E+02	4.1800000000E+00	0.000E+00	0.0
</event>
<event>
    11  -1  1.0000000E+00  1.0000000E+00  -1.0000000E+00  -1.0000000E+00
	2212	-1	0	0	0	0	0.0000000000E+00	0.0000000000E+00	6.5000000000E+03	6.5000000000E+03	9.3827000000E-01	0.000E+00	0.0
	2212	-1	0	0	0	0	0.0000000000E+00	0.0000000000E+00	-6.5000000000E+03	6.5000000000E+03	9.3827000000E-01	0.000E+00	0.0
	2212	1	0	0	0	0	0.0000000000E+00	0.0000000000E+00	5.6853688288E+03	5.6853688288E+03	9.3827000000E-01	0.000E+00	0.0
	2212	1	0	0	0	0	0.0000000000E+00	0.0000000000E+00	-6.1648855734E+03	6.1648855734E+03	9.3827000000E-01	0.000E+00	0.0
	51	2	1	2	0	0	-6.2312508081E+01	-7.1264322979E+01	5.2563147222E+02	1.1735538029E+03	1.0449778137E+03	0.000E+00	0.0
	1000022	2	5	5	0	0	6.2312508081E+01	7.1264322979E+01	3.6141213234E+02	9.5332600023E+02	8.7706914261E+02	0.000E+00	0.0
	14	1	6	6	0	0	3.0306380136E+02	1.6913316065E+01	3.0981970928E+02	5.4198429886E+02	3.2500000000E+02	0.000E+00	0.0
	-14	1	6	6	0	0	-2.4075129328E+02	5.4351006915E+01	5.1592423053E+01	4.1134170137E+02	3.2500000000E+02	0.000E+00	0.0
	25	2	5	5	0	0	-6.2312508081E+01	-7.1264322979E+01	1.1810461228E+02	1.9641959753E+02	1.2518189350E+02	0.000E+00	0.0
	-5	1	9	9	0	501	2.2754739636E+01	-2.9545566033E+01	-8.2605262116E+00	3.8424306648E+01	4.1800000000E+00	0.000E+00	0.0
	5	1	9	9	501	0	-8.5067247717E+01	-4.1718756947E+01	1.2636513849E+02	1.5799529088E+02	4.1800000000E+00	0.000E+00	0.0
</event>
<event>
    11  -1  1.0000000E+00  1.0000000E+00  -1.0000000E+00  -1.0000000E+00
	2212	-1	0	0	0	0	0.0000000000E+00	0.0000000000E+00	6.5000000000E+03	6.5000000000E+03	9.3827000000E-01	0.000E+00	0.0
	2212	-1	0	0	0	0	0.0000000000E+00	0.0000000000E+00	-6.5000000000E+03	6.5000000000E+03	9.3827000000E-01	0.000E+00	0.0
	2212	1	0	0	0	0	0.0000000000E+00	0.0000000000E+00	5.5567181874E+03	5.5567181874E+03	9.3827000000E-01	0.000E+00	0.0
	2212	1	0	0	0	0	0.0000000000E+00	0.0000000000E+00	-6.2057120968E+03	6.2057120968E+03	9.3827000000E-01	0.000E+00	0.0
	51	2	1	2	0	0	-6.3247912729E+01	-6.6884277407E+01	7.8509357388E+02	1.3172818346E+03	1.0537484078E+03	0.000E+00	0.0
	1000022	2	5	5	0	0	6.3247912729E+01	6.6884277407E+01	4.0140800853E+02	9.4526393804E+02	8.5083589382E+02	0.000E+00	0.0
	14	1	6	6	0	0	-1.8520401811E+02	-2.9669682421E+00	9.1147204049E+00	3.7418900218E+02	3.2500000000E+02	0.000E+00	0.0
	-14	1	6	6	0	0	2.4845193084E+02	6.9851245649E+01	3.9229328813E+02	5.7107493586E+02	3.2500000000E+02	0.000E+00	0.0
	25	2	5	5	0	0	-6.3247912729E+01	-6.6884277407E+01	2.4758590082E+02	2.9230577771E+02	1.2518020756E+02	0.000E+00	0.0
	-5	1	9	9	0	501	-9.5440801267E+01	-7.1482904826E+01	2.1608612952E+02	2.4683889482E+02	4.1800000000E+00	0.000E+00	0.0
	5	1	9	9	501	0	3.2192888538E+01	4.5986274185E+00	3.1499771309E+01	4.5466882883E+01	4.1800000000E+00	0.000E+00	0.0
</event>
<event>
    11  -1  1.0000000E+00  1.0000000E+00  -1.0000000E+00  -1.0000000E+00
	2212	-1	0	0	0	0	0.0000000000E+00	0.0000000000E+00	6.5000000000E+03	6.5000000000E+03	9.3827000000E-01	0.000E+00	0.0
	2212	-1	0	0	0	0	0.0000000000E+00	0.0000000000E+00	-6.5000000000E+03	6.5000000000E+03	9.3827000000E-01	0.000E+00	0.0
	2212	1	0	0	0	0	0.0000000000E+00	0.0000000000E+00	6.2570166798E+03	6.2570166798E+03	9.3827000000E-01	0.000E+00	0.0
	2212	1	0	0	0	0	0.0000000000E+00	0.0000000000E+00	-5.3631347628E+03	5.3631347628E+03	9.3827000000E-01	0.000E+00	0.0
	51	2	1	2	0	0	-4.4638794393E+01	-7.6894394397E+01	-7.5065657765E+02	1.2947385168E+03	1.0511694248E+03	0.000E+00	0.0
	1000022	2	5	5	0	0	4.4638794393E+01	7.6894394397E+01	-8.8209094530E+02	1.2256663276E+03	8.4632626158E+02	0.000E+00	0.0
	14	1	6	6	0	0	7.8948613264E+01	-3.2741698465E+01	-8.0516712132E+02	8.7248151591E+02	3.2500000000E+02	0.000E+00	0.0
	-14	1	6	6	0	0	-3.4309818871E+01	1.0963609286E+02	-7.6923823980E+01	3.5318481171E+02	3.2500000000E+02	0.000E+00	0.0
	25	2	5	5	0	0	-4.4638794393E+01	-7.6894394397E+01	-1.1790971704E+01	1.5418222968E+02	1.2541037868E+02	0.000E+00	0.0
	-5	1	9	9	0	501	1.7400169041E+01	-7.4987888361E+01	2.6040954454E+01	8.1372925426E+01	4.1800000000E+00	0.000E+00	0.0
	5	1	9	9	501	0	-6.2038963434E+01	-1.9065060362E+00	-3.7831926158E+01	7.2809304254E+01	4.1800000000E+00	0.000E+00	0.0
</event>
<event>
    11  -1  1.0000000E+00  1.0000000E+00  -1.0000000E+00  -1.0000000E+00
	2212	-1	0	0	0	0	0.0000000000E+00	0.0000000000E+00	6.5000000000E+03	6.5000000000E+03	9.3827000000E-01	0.000E+00	0.0
	2212	-1	0	0	0	0	0.0000000000E+00	0.0000000000E+00	-6.5000000000E+03	6.5000000000E+03	9.3827000000E-01	0.000E+00	0.0
	2212	1	0	0	0	0	0.0000000000E+00	0.0000000000E+00	5.6975090216E+03	5.6975090216E+03	9.3827000000E-01	0.000E+00	0.0
	2212	1	0	0	0	0	0.0000000000E+00	0.0000000000E+00	-6.1601839970E+03	6.1601839970E+03	9.3827000000E-01	0.000E+00	0.0
	51	2	1	2	0	0	7.6313100268E+01	-6.1590047049E+00	3.4462558455E+02	1.1024633886E+03	1.0444123262E+03	0.000E+00	0.0
	1000022	2	5	5	0	0	-7.6313100268E+01	6.1590047049E+00	5.0291362196E+02	9.9004215882E+02	8.4935254310E+02	0.000E+00	0.0
	14	1	6	6	0	0	-2.0255256193E+02	2.1199901680E+02	3.3727899544E+02	5.5258777062E+02	3.2500000000E+02	0.000E+00	0.0
	-14	1	6	6	0	0	1.2623946166E+02	-2.0584001209E+02	1.6563462652E+02	4.3745438821E+02	3.2500000000E+02	0.000E+00	0.0
	25	2	5	5	0	0	7.6313100268E+01	-6.1590047049E+00	-4.0238646565E+01	1.5226482266E+02	1.2531482327E+02	0.000E+00	0.0
	-5	1	9	9	0	501	-2.5265266411E+01	2.6333840926E+01	-2.5045049109E+01	4.4458202277E+01	4.1800000000E+00	0.000E+00	0.0
	5	1	9	9	501	0	1.0157836668E+02	-3.2492845631E+01	-1.5193597456E+01	1.0780662038E+02	4.1800000000E+00	0.000E+00	0.0
</event>
<event>
    11  -1  1.0000000E+00  1.0000000E+00  -1.0000000E+00  -1.0000000E+00
	2212	-1	0	0	0	0	0.0000000000E+00	0.0000000000E+00	6.5000000000E+03	6.5000000000E+03	9.3827000000E-01	0.000E+00	0.0
	2212	-1	0	0	0	0	0.0000000000E+00	0.0000000000E+00	-6.5000000000E+03	6.5000000000E+03	9.3827000000E-01	0.000E+00	0.0
	2212	1	0	0	0	0	0.0000000000E+00	0.0000000000E+00	5.4581589305E+03	5.4581589305E+03	9.3827000000E-01	0.000E+00	0.0
	2212	1	0	0	0	0	0.0000000000E+00	0.0000000000E+00	-6.1008492911E+03	6.1008492911E+03	9.3827000000E-01	0.000E+00	0.0
	51	2	1	2	0	0	-1.7309896890E+02	-1.5916477799E+02	9.0207543177E+02	1.5913651907E+03	1.2897311371E+03	0.000E+00	0.0
	1000022	2	5	5	0	0	1.7309896890E+02	1.5916477799E+02	2.3206590627E+02	9.5152084593E+02	8.9232317901E+02	0.000E+00	0.0
	14	1	6	6	0	0	-1.7224305633E+02	1.7957256490E+02	2.4434676818E+02	4.7670149951E+02	3.2500000000E+02	0.000E+00	0.0
	-14	1	6	6	0	0	3.4534202523E+02	-2.0407786915E+01	-1.2280861906E+01	4.7481934641E+02	3.2500000000E+02	0.000E+00	0.0
	25	2	5	5	0	0	-1.7309896890E+02	-1.5916477799E+02	4.1062445427E+02	4.8947093252E+02	1.2519054176E+02	0.000E+00	0.0
	-5	1	9	9	0	501	-1.6290314961E+02	-8.1108651435E+01	2.3739622212E+02	2.9914960834E+02	4.1800000000E+00	0.000E+00	0.0
	5	1	9	9	501	0	-1.0195819289E+01	-7.8056126552E+01	1.7322823215E+02	1.9032132418E+02	4.1800000000E+00	0.000E+00	0.0
</event>
<event>
    11  -1  1.0000000E+00  1.0000000E+00  -1.0000000E+00  -1.0000000E+00
	2212	-1	0	0	0	0	0.0000000000E+00	0.0000000000E+00	6.5000000000E+03	6.5000000000E+03	9.3827000000E-01	0.000E+00	0.0
	2212	-1	0	0	0	0	0.0000000000E+00	0.0000000000E+00	-6.5000000000E+03	6.5000000000E+03	9.3827000000E-01	0.000E+00	0.0
	2212	1	0	0	0	0	0.0000000000E+00	0.0000000000E+00	6.2938182192E+03	6.2938182192E+03	9.3827000000E-01	0.000E+00	0.0
	2212	1	0	0	0	0	0.0000000000E+00	0.0000000000E+00	-5.1529758410E+03	5.1529758410E+03	9.3827000000E-01	0.000E+00	0.0
	51	2	1	2	0	0	8.5097905979E+01	4.1294526035E+01	-9.8113444081E+02	1.4430866371E+03	1.0540053888E+03	0.000E+00	0.0
	1000022	2	5	5	0	0	-8.5097905979E+01	-4.1294526035E+01	-1.1007117575E+03	1.3912539720E+03	8.4562068929E+02	0.000E+00	0.0
	14	1	6	6	0	0	-1.3990981858E+02	-5.6040834833E+00	-1.4992537648E+02	3.8432900177E+02	3.2500000000E+02	0.000E+00	0.0
	-14	1	6	6	0	0	5.4811912598E+01	-3.5690442552E+01	-9.5078638101E+02	1.0069249703E+03	3.2500000000E+02	0.000E+00	0.0
	25	2	5	5	0	0	8.5097905979E+01	4.1294526035E+01	-4.0130620647E+01	1.6195196776E+02	1.2518419096E+02	0.000E+00	0.0
	-5	1	9	9	0	501	8.8590150500E+01	-2.0707423777E+01	-6.7472644255E+00	9.1323655984E+01	4.1800000000E+00	0.000E+00	0.0
	5	1	9	9	501	0	-3.4922445209E+00	6.2001949812E+01	-3.3383356222E+01	7.0628311780E+01	4.1800000000E+00	0.000E+00	0.0
</event>
<event>
    11  -1  1.0000000E+00  1.0000000E+00  -1.0000000E+00  -1.0000000E+00
	2212	-1	0	0	0	0	0.0000000000E+00	0.0000000000E+00	6.5000000000E+03	6.5000000000E+03	9.3827000000E-01	0.000E+00	0.0
	2212	-1	0	0	0	0	0.0000000000E+00	0.0000000000E+00	-6.5000000000E+03	6.5000000000E+03	9.3827000000E-01	0.000E+00	0.0
	2212	1	0	0	0	0	0.0000000000E+00	0.0000000000E+00	5.2351991696E+03	5.2351991696E+03	9.3827000000E-01	0.000E+00	0.0
	2212	1	0	0	0	0	0.0000000000E+00	0.0000000000E+00	-6.2829016609E+03	6.2829016609E+03	9.3827000000E-01	0.000E+00	0.0
	51	2	1	2	0	0	-4.0252199609E+00	-1.3170596916E+02	9.4840523910E+02	1.4195702873E+03	1.0480193883E+03	0.000E+00	0.0
	1000022	2	5	5	0	0	4.0252199609E+00	1.3170596916E+02	9.6036186270E+02	1.2802423088E+03	8.3627913831E+02	0.000E+00	0.0
	14	1	6	6	0	0	-3.7617667773E+01	5.9806024838E+01	8.7210658733E+02	9.3337385285E+02	3.2500000000E+02	0.000E+00	0.0
	-14	1	6	6	0	0	4.1642887734E+01	7.1899944318E+01	8.8255275379E+01	3.4686845594E+02	3.2500000000E+02	0.000E+00	0.0
	25	2	5	5	0	0	-4.0252199609E+00	-1.3170596916E+02	8.7340628579E+01	2.0165686070E+02	1.2519760125E+02	0.000E+00	0.0
	-5	1	9	9	0	501	-3.8911959246E+01	-9.5873965700E+01	1.0593274786E+02	1.4813904732E+02	4.1800000000E+00	0.000E+00	0.0
	5	1	9	9	501	0	3.4886739285E+01	-3.5832003456E+01	-1.8592119282E+01	5.3517813380E+01	4.1800000000E+00	0.000E+00	0.0
</event>
<event>
    11  -1  1.0000000E+00  1.0000000E+00  -1.0000000E+00  -1.0000000E+00
	2212	-1	0	0	0	0	0.0000000000E+00	0.0000000000E+00	6.5000000000E+03	6.5000000000E+03	9.3827000000E-01	0.000E+00	0.0
	2212	-1	0	0	0	0	0.0000000000E+00	0.0000000000E+00	-6.5000000000E+03	6.5000000000E+03	9.3827000000E-01	0.000E+00	0.0
	2212	1	0	0	0	0	0.0000000000E+00	0.0000000000E+00	5.0434386600E+03	5.0434386600E+03	9.3827000000E-01	0.000E+00	0.0
	2212	1	0	0	0	0	0.0000000000E+00	0.0000000000E+00	-6.3141534198E+03	6.3141534198E+03	9.3827000000E-01	0.000E+00	0.0
	51	2	1	2	0	0	-9.5516881319E+01	8.1082703156E+01	1.3691877169E+03	1.7242855503E+03	1.0405708892E+03	0.000E+00	0.0
	1000022	2	5	5	0	0	9.5516881319E+01	-8.1082703156E+01	9.5658295788E+02	1.2817896899E+03	8.4394074104E+02	0.000E+00	0.0
	14	1	6	6	0	0	9.9463213300E+01	-1.3958820477E+02	1.2678026376E+02	3.8868500484E+02	3.2500000000E+02	0.000E+00	0.0
	-14	1	6	6	0	0	-3.9463319813E+00	5.8505501612E+01	8.2980269412E+02	8.9310468503E+02	3.2500000000E+02	0.000E+00	0.0
	25	2	5	5	0	0	-9.5516881319E+01	8.1082703156E+01	3.1413180195E+02	3.6061823032E+02	1.2517523585E+02	0.000E+00	0.0
	-5	1	9	9	0	501	-1.1667917532E+02	6.1156170682E+01	3.0071772676E+02	3.2833326172E+02	4.1800000000E+00	0.000E+00	0.0
	5	1	9	9	501	0	2.1162294002E+01	1.9926532473E+01	1.3414075193E+01	3.2284968594E+01	4.1800000000E+00	0.000E+00	0.0
</event>
<event>
    11  -1  1.0000000E+00  1.0000000E+00  -1.0000000E+00  -1.0000000E+00
	2212	-1	0	0	0	0	0.0000000000E+00	0.0000000000E+00	6.5000000000E+03	6.5000000000E+03	9.3827000000E-01	0.000E+00	0.0
	2212	-1	0	0	0	0	0.0000000000E+00	0.0000000000E+00	-6.5000000000E+03	6.5000000000E+03	9.3827000000E-01	0.000E+00	0.0
	2212	1	0	0	0	0	0.0000000000E+00	0.0000000000E+00	6.1601859015E+03	6.1601859015E+03	9.3827000000E-01	0.000E+00	0.0
	2212	1	0	0	0	0	0.0000000000E+00	0.0000000000E+00	-5.6925586742E+03	5.6925586742E+03	9.3827000000E-01	0.000E+00	0.0
	51	2	1	2	0	0	-8.5355597468E+01	-4.1185352150E+01	-3.5302625464E+02	1.1095625862E+03	1.0476257848E+03	0.000E+00	0.0
	1000022	2	5	5	0	0	8.5355597468E+01	4.1185352150E+01	-5.0141436621E+02	9.8668326909E+02	8.4447954126E+02	0.000E+00	0.0
	14	1	6	6	0	0	-1.9794740822E+02	-2.4723745636E+01	-1.0073007322E+02	3.9441854377E+02	3.2500000000E+02	0.000E+00	0.0
	-14	1	6	6	0	0	2.8330300569E+02	6.5909097786E+01	-4.0068429300E+02	5.9226472532E+02	3.2500000000E+02	0.000E+00	0.0
	25	2	5	5	0	0	-8.5355597468E+01	-4.1185352150E+01	3.3787138908E+01	1.6057215528E+02	1.2514006171E+02	0.000E+00	0.0
	-5	1	9	9	0	501	2.2784328606E+01	-3.3566124138E+01	-1.2450197208E+01	4.2641413323E+01	4.1800000000E+00	0.000E+00	0.0
	5	1	9	9	501	0	-1.0813992607E+02	-7.6192280118E+00	4.6237336116E+01	1.1793074195E+02	4.1800000000E+00	0.000E+00	0.0
</event>
<event>
    11  -1  1.0000000E+00  1.0000000E+00  -1.0000000E+00  -1.0000000E+00
	2212	-1	0	0	0	0	0.0000000000E+00	0.0000000000E+00	6.5000000000E+03	6.5000000000E+03	9.3827000000E-01	0.000E+00	0.0
	2212	-1	0	0	0	0	0.0000000000E+00	0.0000000000E+00	-6.5000000000E+03	6.5000000000E+03	9.3827000000E-01	0.000E+00	0.0
	2212	1	0	0	0	0	0.0000000000E+00	0.0000000000E+00	4.8514787720E+03	4.8514787720E+03	9.3827000000E-01	0.000E+00	0.0
	2212	1	0	0	0	0	0.0000000000E+00	0.0000000000E+00	-6.3287749455E+03	6.3287749455E+03	9.3827000000E-01	0.000E+00	0.0
	51	2	1	2	0	0	-8.4824538799E+01	1.3222291735E+02	1.3735245738E+03	1.7436514575E+03	1.0625782551E+03	0.000E+00	0.0
	1000022	2	5	5	0	0	8.4824538799E+01	-1.3222291735E+02	1.3038501615E+03	1.5543620408E+03	8.3146738235E+02	0.000E+00	0.0
	14	1	6	6	0	0	-1.8431812373E+02	-7.0570545378E+01	3.8368242145E+02	5.4017642779E+02	3.2500000000E+02	0.000E+00	0.0
	-14	1	6	6	0	0	2.6914266253E+02	-6.1652371971E+01	9.2016774003E+02	1.0141856130E+03	3.2500000000E+02	0.000E+00	0.0
	25	2	5	5	0	0	-8.4824538799E+01	1.3222291735E+02	1.7344601209E+02	2.6538424173E+02	1.2516858389E+02	0.000E+00	0.0
	-5	1	9	9	0	501	-7.4210521313E+01	3.9979752110E+01	2.1218413693E+01	8.7024568553E+01	4.1800000000E+00	0.000E+00	0.0
	5	1	9	9	501	0	-1.0614017486E+01	9.2243165239E+01	1.5222759840E+02	1.7835967318E+02	4.1800000000E+00	0.000E+00	0.0
</event>
<event>
    11  -1  1.0000000E+00  1.0000000E+00  -1.0000000E+00  -1.0000000E+00
	2212	-1	0	0	0	0	0.0000000000E+00	0.0000000000E+00	6.5000000000E+03	6.5000000000E+03	9.3827000000E-01	0.000E+00	0.0
	2212	-1	0	0	0	0	0.0000000000E+00	0.0000000000E+00	-6.5000000000E+03	6.5000000000E+03	9.3827000000E-01	0.000E+00	0.0
	2212	1	0	0	0	0	0.0000000000E+00	0.0000000000E+00	6.2589445243E+03	6.2589445243E+03	9.3827000000E-01	0.000E+00	0.0
	2212	1	0	0	0	0	0.0000000000E+00	0.0000000000E+00	-5.3181795607E+03	5.3181795607E+03	9.3827000000E-01	0.000E+00	0.0
	51	2	1	2	0	0	-4.8982215002E+00	-1.4482242265E+02	-1.0371108594E+03	1.4953707280E+03	1.0674910551E+03	0.000E+00	0.0
	1000022	2	5	5	0	0	4.8982215002E+00	1.4482242265E+02	-6.7666311873E+02	1.0966557734E+03	8.5075459584E+02	0.000E+00	0.0
	14	1	6	6	0	0	-2.4225931926E+02	1.4294188855E+02	-2.1585780621E+02	4.8097978520E+02	3.2500000000E+02	0.000E+00	0.0
	-14	1	6	6	0	0	2.4715754076E+02	1.8805341011E+00	-4.6080531252E+02	6.1567598817E+02	3.2500000000E+02	0.000E+00	0.0
	25	2	5	5	0	0	-4.8982215002E+00	-1.4482242265E+02	-2.6410184490E+02	3.2622014163E+02	1.2518893582E+02	0.000E+00	0.0
	-5	1	9	9	0	501	-4.0631348147E+01	-1.4016060249E+02	-1.6306981148E+02	2.1887242119E+02	4.1800000000E+00	0.000E+00	0.0
	5	1	9	9	501	0	3.5733126647E+01	-4.6618201595E+00	-1.0103203342E+02	1.0734772044E+02	4.1800000000E+00	0.000E+00	0.0
</event>
<event>
    11  -1  1.0000000E+00  1.0000000E+00  -1.0000000E+00  -1.0000000E+00
	2212	-1	0	0	0	0	0.0000000000E+00	0.0000000000E+00	6.5000000000E+03	6.5000000000E+03	9.3827000000E-01	0.000E+00	0.0
	2212	-1	0	0	0	0	0.0000000000E+00	0.0000000000E+00	-6.5000000000E+03	6.5000000000E+03	9.3827000000E-01	0.000E+00	0.0
	2212	1	0	0	0	0	0.0000000000E+00	0.0000000000E+00	5.1484547311E+03	5.1484547311E+03	9.3827000000E-01	0.000E+00	0.0
	2212	1	0	0	0	0	0.0000000000E+00	0.0000000000E+00	-6.2975086027E+03	6.2975086027E+03	9.3827000000E-01	0.000E+00	0.0
	51	2	1	2	0	0	1.2607266572E+02	-7.3178839464E+01	1.1169517212E+03	1.5373795130E+03	1.0462815873E+03	0.000E+00	0.0
	1000022	2	5	5	0	0	-1.2607266572E+02	7.3178839464E+01	9.7925623917E+02	1.2976346763E+03	8.3884653641E+02	0.000E+00	0.0
	14	1	6	6	0	0	-1.6579723400E+02	-1.7177564476E+02	2.9181567432E+02	4.9777201881E+02	3.2500000000E+02	0.000E+00	0.0
	-14	1	6	6	0	0	3.9724568278E+01	2.4495448423E+02	6.8744056485E+02	7.9986265751E+02	3.2500000000E+02	0.000E+00	0.0
	25	2	5	5	0	0	1.2607266572E+02	-7.3178839464E+01	1.6979763246E+02	2.5640198986E+02	1.2514505515E+02	0.000E+00	0.0
	-5	1	9	9	0	501	5.2036506987E+01	1.5093152203E+01	1.1820596946E+02	1.3009890437E+02	4.1800000000E+00	0.000E+00	0.0
	5	1	9	9	501	0	7.4036158735E+01	-8.8271991667E+01	5.1591663005E+01	1.2630308549E+02	4.1800000000E+00	0.000E+00	0.0
</event>
<event>
    11  -1  1.0000000E+00  1.0000000E+00  -1.0000000E+00  -1.0000000E+00
	2212	-1	0	0	0	0	0.0000000000E+00	0.0000000000E+00	6.5000000000E+03	6.5000000000E+03	9.3827000000E-01	0.000E+00	0.0
	2212	-1	0	0	0	0	0.0000000000E+00	0.0000000000E+00	-6.5000000000E+03	6.5000000000E+03	9.3827000000E-01	0.000E+00	0.0
	2212	1	0	0	0	0	0.0000000000E+00	0.0000000000E+00	5.8177155919E+03	5.8177155919E+03	9.3827000000E-01	0.000E+00	0.0
	2212	1	0	0	0	0	0.0000000000E+00	0.0000000000E+00	-6.0968847342E+03	6.0968847342E+03	9.3827000000E-01	0.000E+00	0.0
	51	2	1	2	0	0	-4.1720902912E+01	-4.1623486908E+01	1.4640816894E+02	1.0606910684E+03	1.0488837124E+03	0.000E+00	0.0
	1000022	2	5	5	0	0	4.1720902912E+01	4.1623486908E+01	3.6385229753E+02	9.2318343680E+02	8.4640771214E+02	0.000E+00	0.0
	14	1	6	6	0	0	-1.1849092073E+02	-1.5012649167E+02	3.4767169040E+02	5.1291194771E+02	3.2500000000E+02	0.000E+00	0.0
	-14	1	6	6	0	0	1.6021182364E+02	1.9174997857E+02	1.6180607130E+01	4.1027148910E+02	3.2500000000E+02	0.000E+00	0.0
	25	2	5	5	0	0	-4.1720902912E+01	-4.1623486908E+01	-8.4683155283E+01	1.6221623714E+02	1.2517876178E+02	0.000E+00	0.0
	-5	1	9	9	0	501	-7.7977563944E+01	-2.7979468452E+01	-9.0563610705E+01	1.2281120111E+02	4.1800000000E+00	0.000E+00	0.0
	5	1	9	9	501	0	3.6256661032E+01	-1.3644018456E+01	5.8804554222E+00	3.9405036033E+01	4.1800000000E+00	0.000E+00	0.0
</event>
<event>
    11  -1  1.0000000E+00  1.0000000E+00  -1.0000000E+00  -1.0000000E+00
	2212	-1	0	0	0	0	0.0000000000E+00	0.0000000000E+00	6.5000000000E+03	6.5000000000E+03	9.3827000000E-01	0.000E+00	0.0
	2212	-1	0	0	0	0	0.0000000000E+00	0.0000000000E+00	-6.5000000000E+03	6.5000000000E+03	9.3827000000E-01	0.000E+00	0.0
	2212	1	0	0	0	0	0.0000000000E+00	0.0000000000E+00	6.2994986872E+03	6.2994986872E+03	9.3827000000E-01	0.000E+00	0.0
	2212	1	0	0	0	0	0.0000000000E+00	0.0000000000E+00	-5.0087108116E+03	5.0087108116E+03	9.3827000000E-01	0.000E+00	0.0
	51	2	1	2	0	0	-1.2064738860E+01	9.9089753017E+00	-1.0254141140E+03	1.4992463477E+03	1.0936277978E+03	0.000E+00	0.0
	1000022	2	5	5	0	0	1.2064738860E+01	-9.9089753017E+00	-1.3116934998E+03	1.5639188215E+03	8.5150366815E+02	0.000E+00	0.0
	14	1	6	6	0	0	1.5051226055E+02	3.7516456251E+01	-1.0808524776E+03	1.1392666516E+03	3.2500000000E+02	0.000E+00	0.0
	-14	1	6	6	0	0	-1.3844752169E+02	-4.7425431553E+01	-2.3084102220E+02	4.2465216984E+02	3.2500000000E+02	0.000E+00	0.0
	25	2	5	5	0	0	-1.2064738860E+01	9.9089753017E+00	2.0905624191E+01	1.2787167978E+02	1.2518137103E+02	0.000E+00	0.0
	-5	1	9	9	0	501	2.4914450299E+01	3.3815403712E+01	-3.6222563108E+01	5.5621559130E+01	4.1800000000E+00	0.000E+00	0.0
	5	1	9	9	501	0	-3.6979189159E+01	-2.3906428410E+01	5.7128187299E+01	7.2250120652E+01	4.1800000000E+00	0.000E+00	0.0
</event>
<event>
    11  -1  1.0000000E+00  1.0000000E+00  -1.0000000E+00  -1.0000000E+00
	2212	-1	0	0	0	0	0.0000000000E+00	0.0000000000E+00	6.5000000000E+03	6.5000000000E+03	9.3827000000E-01	0.000E+00	0.0
	2212	-1	0	0	0	0	0.0000000000E+00	0.0000000000E+00	-6.5000000000E+03	6.5000000000E+03	9.3827000000E-01	0.000E+00	0.0
	2212	1	0	0	0	0	0.0000000000E+00	0.0000000000E+00	5.6302171070E+03	5.6302171070E+03	9.3827000000E-01	0.000E+00	0.0
	2212	1	0	0	0	0	0.0000000000E+00	0.0000000000E+00	-6.1840734202E+03	6.1840734202E+03	9.3827000000E-01	0.000E+00	0.0
	51	2	1	2	0	0	-1.0045069563E+02	6.5189036138E+01	6.3043489028E+02	1.2292022785E+03	1.0484036141E+03	0.000E+00	0.0
	1000022	2	5	5	0	0	1.0045069563E+02	-6.5189036138E+01	3.8440160960E+02	9.4338512804E+02	8.5315353229E+02	0.000E+00	0.0
	14	1	6	6	0	0	-1.9368774294E+02	-1.4926653185E+02	1.1755380231E+02	4.2336666819E+02	3.2500000000E+02	0.000E+00	0.0
	-14	1	6	6	0	0	2.9413843857E+02	8.4077495716E+01	2.6684780729E+02	5.2001845985E+02	3.2500000000E+02	0.000E+00	0.0
	25	2	5	5	0	0	-1.0045069563E+02	6.5189036138E+01	1.6945470363E+02	2.4232434469E+02	1.2516484634E+02	0.000E+00	0.0
	-5	1	9	9	0	501	-9.8612563968E+01	6.1277721757E+01	5.6458383504E+01	1.2916817884E+02	4.1800000000E+00	0.000E+00	0.0
	5	1	9	9	501	0	-1.8381316667E+00	3.9113143805E+00	1.1299632012E+02	1.1315616585E+02	4.1800000000E+00	0.000E+00	0.0
</event>
<event>
    11  -1  1.0000000E+00  1.0000000E+00  -1.0000000E+00  -1.0000000E+00
	2212	-1	0	0	0	0	0.0000000000E+00	0.0000000000E+00	6.5000000000E+03	6.5000000000E+03	9.3827000000E-01	0.000E+00	0.0
	2212	-1	0	0	0	0	0.0000000000E+00	0.0000000000E+00	-6.5000000000E+03	6.5000000000E+03	9.3827000000E-01	0.000E+00	0.0
	2212	1	0	0	0	0	0.0000000000E+00	0.0000000000E+00	6.2245620994E+03	6.2245620994E+03	9.3827000000E-01	0.000E+00	0.0
	2212	1	0	0	0	0	0.0000000000E+00	0.0000000000E+00	-5.4938216118E+03	5.4938216118E+03	9.3827000000E-01	0.000E+00	0.0
	51	2	1	2	0	0	1.4508376374E+02	-4.1620620589E+01	-8.4050093332E+02	1.3556482011E+03	1.0528811194E+03	0.000E+00	0.0
	1000022	2	5	5	0	0	-1.4508376374E+02	4.1620620589E+01	-4.8309007536E+02	9.6574472203E+02	8.2249940587E+02	0.000E+00	0.0
	14	1	6	6	0	0	4.1035000268E+01	1.0204460923E+01	-4.9040409543E+02	5.8983826519E+02	3.2500000000E+02	0.000E+00	0.0
	-14	1	6	6	0	0	-1.8611876401E+02	3.1416159666E+01	7.3140200694E+00	3.7590645684E+02	3.2500000000E+02	0.000E+00	0.0
	25	2	5	5	0	0	1.4508376374E+02	-4.1620620589E+01	-2.4765041221E+02	3.1587156681E+02	1.2515009186E+02	0.000E+00	0.0
	-5	1	9	9	0	501	2.7772000482E+01	3.9874450884E+01	-3.6534644090E+01	6.0938563019E+01	4.1800000000E+00	0.000E+00	0.0
	5	1	9	9	501	0	1.1731176326E+02	-8.1495071473E+01	-2.1111576812E+02	2.5493300379E+02	4.1800000000E+00	0.000E+00	0.0
</event>
<event>
    11  -1  1.0000000E+00  1.0000000E+00  -1.0000000E+00  -1.0000000E+00
	2212	-1	0	0	0	0	0.0000000000E+00	0.0000000000E+00	6.5000000000E+03	6.5000000000E+03	9.3827000000E-01	0.000E+00	0.0
	2212	-1	0	0	0	0	0.0000000000E+00	0.0000000000E+00	-6.5000000000E+03	6.5000000000E+03	9.3827000000E-01	0.000E+00	0.0
	2212	1	0	0	0	0	0.0000000000E+00	0.0000000000E+00	5.3952031037E+03	5.3952031037E+03	9.3827000000E-01	0.000E+00	0.0
	2212	1	0	0	0	0	0.0000000000E+00	0.0000000000E+00	-6.2511369488E+03	6.2511369488E+03	9.3827000000E-01	0.000E+00	0.0
	51	2	1	2	0	0	-1.0913241752E+02	-3.8345684992E+00	7.1276939286E+02	1.2726890045E+03	1.0487003892E+03	0.000E+00	0.0
	1000022	2	5	5	0	0	1.0913241752E+02	3.8345684992E+00	8.4250596050E+02	1.1869800054E+03	8.2896360065E+02	0.000E+00	0.0
	14	1	6	6	0	0	2.4577319166E+02	-1.1228186504E+02	6.3186736500E+02	7.6019276891E+02	3.2500000000E+02	0.000E+00	0.0
	-14	1	6	6	0	0	-1.3664077413E+02	1.1611643354E+02	2.1063859551E+02	4.2678723647E+02	3.2500000000E+02	0.000E+00	0.0
	25	2	5	5	0	0	-1.0913241752E+02	-3.8345684992E+00	1.3427884542E+01	1.6667994212E+02	1.2520905140E+02	0.000E+00	0.0
	-5	1	9	9	0	501	-9.3771195759E+01	-5.3141706201E+01	-1.2775425513E+01	1.0861750314E+02	4.1800000000E+00	0.000E+00	0.0
	5	1	9	9	501	0	-1.5361221763E+01	4.9307137701E+01	2.6203310055E+01	5.8062438979E+01	4.1800000000E+00	0.000E+00	0.0
</event>
<event>
    11  -1  1.0000000E+00  1.0000000E+00  -1.0000000E+00  -1.0000000E+00
	2212	-1	0	0	0	0	0.0000000000E+00	0.0000000000E+00	6.5000000000E+03	6.5000000000E+03	9.3827000000E-01	0.000E+00	0.0
	2212	-1	0	0	0	0	0.0000000000E+00	0.0000000000E+00	-6.5000000000E+03	6.5000000000E+03	9.3827000000E-01	0.000E+00	0.0
	2212	1	0	0	0	0	0.0000000000E+00	0.0000000000E+00	5.5493020772E+03	5.5493020772E+03	9.3827000000E-01	0.000E+00	0.0
	2212	1	0	0	0	0	0.0000000000E+00	0.0000000000E+00	-6.2091389059E+03	6.2091389059E+03	9.3827000000E-01	0.000E+00	0.0
	51	2	1	2	0	0	1.1698305867E+02	-2.3560818599E+01	7.5163481956E+02	1.2981830388E+03	1.0517053542E+03	0.000E+00	0.0
	1000022	2	5	5	0	0	-1.1698305867E+02	2.3560818599E+01	4.5618184316E+02	9.7446317189E+02	8.5278159639E+02	0.000E+00	0.0
	14	1	6	6	0	0	7.9730850737E+01	-2.2019381984E+01	4.8622763343E+02	5.9066417976E+02	3.2500000000E+02	0.000E+00	0.0
	-14	1	6	6	0	0	-1.9671390941E+02	4.5580200583E+01	-3.0045790277E+01	3.8379899212E+02	3.2500000000E+02	0.000E+00	0.0
	25	2	5	5	0	0	1.1698305867E+02	-2.3560818599E+01	2.0365498555E+02	2.6709584510E+02	1.2499875654E+02	0.000E+00	0.0
	-5	1	9	9	0	501	7.4747885655E+01	-2.1435242883E+01	2.2549981048E+01	8.1072128951E+01	4.1800000000E+00	0.000E+00	0.0
	5	1	9	9	501	0	4.2235173018E+01	-2.1255757165E+00	1.8110500450E+02	1.8602371614E+02	4.1800000000E+00	0.000E+00	0.0
</event>
<event>
    11  -1  1.0000000E+00  1.0000000E+00  -1.0000000E+00  -1.0000000E+00
	2212	-1	0	0	0	0	0.0000000000E+00	0.0000000000E+00	6.5000000000E+03	6.5000000000E+03	9.3827000000E-01	0.000E+00	0.0
	2212	-1	0	0	0	0	0.0000000000E+00	0.0000000000E+00	-6.5000000000E+03	6.5000000000E+03	9.3827000000E-01	0.000E+00	0.0
	2212	1	0	0	0	0	0.0000000000E+00	0.0000000000E+00	6.0674636602E+03	6.0674636602E+03	9.3827000000E-01	0.000E+00	0.0
	2212	1	0	0	0	0	0.0000000000E+00	0.0000000000E+00	-5.8473254680E+03	5.8473254680E+03	9.3827000000E-01	0.000E+00	0.0
	51	2	1	2	0	0	-1.2844853739E+02	-5.9864303017E+01	-1.3104397518E+02	1.0800356927E+03	1.0626484897E+03	0.000E+00	0.0
	1000022	2	5	5	0	0	1.2844853739E+02	5.9864303017E+01	-2.6858690196E+02	8.9001670158E+02	8.3660507030E+02	0.000E+00	0.0
	14	1	6	6	0	0	2.0250172792E+02	2.5707812942E+02	-1.4745041926E+02	4.8421352787E+02	3.2500000000E+02	0.000E+00	0.0
	-14	1	6	6	0	0	-7.4053190527E+01	-1.9721382640E+02	-1.2113648271E+02	4.0580317371E+02	3.2500000000E+02	0.000E+00	0.0
	25	2	5	5	0	0	-1.2844853739E+02	-5.9864303017E+01	4.8448709788E+01	1.9519417020E+02	1.2518276665E+02	0.000E+00	0.0
	-5	1	9	9	0	501	-1.1740901712E+02	-9.4690913975E+01	4.8254115170E+01	1.5842089042E+02	4.1800000000E+00	0.000E+00	0.0
	5	1	9	9	501	0	-1.1039520268E+01	3.4826610958E+01	1.9459461772E-01	3.6773279779E+01	4.1800000000E+00	0.000E+00	0.0
</event>
<event>
    11  -1  1.0000000E+00  1.0000000E+00  -1.0000000E+00  -1.0000000E+00
	2212	-1	0	0	0	0	0.0000000000E+00	0.0000000000E+00	6.5000000000E+03	6.5000000000E+03	9.3827000000E-01	0.000E+00	0.0
	2212	-1	0	0	0	0	0.0000000000E+00	0.0000000000E+00	-6.5000000000E+03	6.5000000000E+03	9.3827000000E-01	0.000E+00	0.0
	2212	1	0	0	0	0	0.0000000000E+00	0.0000000000E+00	6.2467182767E+03	6.2467182767E+03	9.3827000000E-01	0.000E+00	0.0
	2212	1	0	0	0	0	0.0000000000E+00	0.0000000000E+00	-5.4115014564E+03	5.4115014564E+03	9.3827000000E-01	0.000E+00	0.0
	51	2	1	2	0	0	4.2353800548E+01	-1.3186355712E+01	-6.7326570296E+02	1.2482153577E+03	1.0501367282E+03	0.000E+00	0.0
	1000022	2	5	5	0	0	-4.2353800548E+01	1.3186355712E+01	-8.5532468562E+02	1.2074732371E+03	8.5114251221E+02	0.000E+00	0.0
	14	1	6	6	0	0	-2.5295257101E+00	2.1283760738E+02	-6.8575701796E+02	7.8815857116E+02	3.2500000000E+02	0.000E+00	0.0
	-14	1	6	6	0	0	-3.9824274838E+01	-1.9965125167E+02	-1.6956766766E+02	4.1931466594E+02	3.2500000000E+02	0.000E+00	0.0
	25	2	5	5	0	0	4.2353800548E+01	-1.3186355712E+01	2.0107865378E+01	1.3430702982E+02	1.2516520128E+02	0.000E+00	0.0
	-5	1	9	9	0	501	8.3885100270E+01	-1.2613914755E+01	3.2224748545E+01	9.0839020864E+01	4.1800000000E+00	0.000E+00	0.0
	5	1	9	9	501	0	-4.1531299722E+01	-5.7244095674E-01	-1.2116883167E+01	4.3468008960E+01	4.1800000000E+00	0.000E+00	0.0
</event>
<event>
    11  -1  1.0000000E+00  1.0000000E+00  -1.0000000E+00  -1.0000000E+00
	2212	-1	0	0	0	0	0.0000000000E+00	0.0000000000E+00	6.5000000000E+03	6.5000000000E+03	9.3827000000E-01	0.000E+00	0.0
	2212	-1	0	0	0	0	0.0000000000E+00	0.0000000000E+00	-6.5000000000E+03	6.5000000000E+03	9.3827000000E-01	0.000E+00	0.0
	2212	1	0	0	0	0	0.0000000000E+00	0.0000000000E+00	6.2008110700E+03	6.2008110700E+03	9.3827000000E-01	0.000E+00	0.0
	2212	1	0	0	0	0	0.0000000000E+00	0.0000000000E+00	-5.5789117632E+03	5.5789117632E+03	9.3827000000E-01	0.000E+00	0.0
	51	2	1	2	0	0	-4.5723450795E+01	1.3511080213E+02	-5.7307812086E+02	1.2046085303E+03	1.0499131468E+03	0.000E+00	0.0
	1000022	2	5	5	0	0	4.5723450795E+01	-1.3511080213E+02	-5.6118825554E+02	1.0210240521E+03	8.4095915118E+02	0.000E+00	0.0
	14	1	6	6	0	0	-7.1065172785E+01	-2.6567665053E+02	-1.1326903499E+02	4.4055557619E+02	3.2500000000E+02	0.000E+00	0.0
	-14	1	6	6	0	0	1.1678862358E+02	1.3056584840E+02	-4.4791922055E+02	5.8046847589E+02	3.2500000000E+02	0.000E+00	0.0
	25	2	5	5	0	0	-4.5723450795E+01	1.3511080213E+02	-6.0711051232E+01	1.9925311466E+02	1.2518150484E+02	0.000E+00	0.0
	-5	1	9	9	0	501	2.1051303799E+01	6.5264451130E+01	-7.4741486300E+01	1.0152028441E+02	4.1800000000E+00	0.000E+00	0.0
	5	1	9	9	501	0	-6.6774754594E+01	6.9846351005E+01	1.4030435068E+01	9.7732830246E+01	4.1800000000E+00	0.000E+00	0.0
</event>
<event>
    11  -1  1.0000000E+00  1.0000000E+00  -1.0000000E+00  -1.0000000E+00
	2212	-1	0	0	0	0	0.0000000000E+00	0.0000000000E+00	6.5000000000E+03	6.5000000000E+03	9.3827000000E-01	0.000E+00	0.0
	2212	-1	0	0	0	0	0.0000000000E+00	0.0000000000E+00	-6.5000000000E+03	6.5000000000E+03	9.3827000000E-01	0.000E+00	0.0
	2212	1	0	0	0	0	0.0000000000E+00	0.0000000000E+00	5.4345024683E+03	5.4345024683E+03	9.3827000000E-01	0.000E+00	0.0
	2212	1	0	0	0	0	0.0000000000E+00	0.0000000000E+00	-6.2446102358E+03	6.2446102358E+03	9.3827000000E-01	0.000E+00	0.0
	51	2	1	2	0	0	-5.0989936382E+01	-7.9543897784E+01	7.0140967511E+02	1.2607027370E+03	1.0432970111E+03	0.000E+00	0.0
	1000022	2	5	5	0	0	5.0989936382E+01	7.9543897784E+01	7.8442664365E+02	1.1619654509E+03	8.5200431011E+02	0.000E+00	0.0
	14	1	6	6	0	0	-1.4458761167E+02	-1.4863693597E+02	5.1660654565E+02	6.4459742413E+02	3.2500000000E+02	0.000E+00	0.0
	-14	1	6	6	0	0	1.9557754805E+02	2.2818083376E+02	2.6782009800E+02	5.1736802673E+02	3.2500000000E+02	0.000E+00	0.0
	25	2	5	5	0	0	-5.0989936382E+01	-7.9543897784E+01	2.5681123931E+01	1.5892184503E+02	1.2517758352E+02	0.000E+00	0.0
	-5	1	9	9	0	501	1.3561921307E+01	1.7271393547E+01	-2.3581022988E+01	3.2492518982E+01	4.1800000000E+00	0.000E+00	0.0
	5	1	9	9	501	0	-6.4551857689E+01	-9.6815291331E+01	4.9262146919E+01	1.2642932605E+02	4.1800000000E+00	0.000E+00	0.0
</event>
<event>
    11  -1  1.0000000E+00  1.0000000E+00  -1.0000000E+00  -1.0000000E+00
	2212	-1	0	0	0	0	0.0000000000E+00	0.0000000000E+00	6.5000000000E+03	6.5000000000E+03	9.3827000000E-01	0.000E+00	0.0
	2212	-1	0	0	0	0	0.0000000000E+00	0.0000000000E+00	-6.5000000000E+03	6.5000000000E+03	9.3827000000E-01	0.000E+00	0.0
	2212	1	0	0	0	0	0.0000000000E+00	0.0000000000E+00	6.2668530778E+03	6.2668530778E+03	9.3827000000E-01	0.000E+00	0.0
	2212	1	0	0	0	0	0.0000000000E+00	0.0000000000E+00	-5.3146266775E+03	5.3146266775E+03	9.3827000000E-01	0.000E+00	0.0
	51	2	1	2	0	0	2.7743318362E+01	1.2841227066E+02	-1.0652402114E+03	1.5024848345E+03	1.0514107509E+03	0.000E+00	0.0
	1000022	2	5	5	0	0	-2.7743318362E+01	-1.2841227066E+02	-6.7081387594E+02	1.0836941118E+03	8.4091751607E+02	0.000E+00	0.0
	14	1	6	6	0	0	-2.4497936105E+02	-1.1299997129E+02	-5.0612983423E+02	6.5922400590E+02	3.2500000000E+02	0.000E+00	0.0
	-14	1	6	6	0	0	2.1723604269E+02	-1.5412299373E+01	-1.6468404171E+02	4.2447010591E+02	3.2500000000E+02	0.000E+00	0.0
	25	2	5	5	0	0	2.7743318362E+01	1.2841227066E+02	-2.8141252443E+02	3.3482613291E+02	1.2512444764E+02	0.000E+00	0.0
	-5	1	9	9	0	501	-4.0183409877E+00	5.7336172396E+01	-1.8388790789E+01	6.0491352738E+01	4.1800000000E+00	0.000E+00	0.0
	5	1	9	9	501	0	3.1761659349E+01	7.1076098266E+01	-2.6302373365E+02	2.7433478017E+02	4.1800000000E+00	0.000E+00	0.0
</event>
<event>
    11  -1  1.0000000E+00  1.0000000E+00  -1.0000000E+00  -1.0000000E+00
	2212	-1	0	0	0	0	0.0000000000E+00	0.0000000000E+00	6.5000000000E+03	6.5000000000E+03	9.3827000000E-01	0.000E+00	0.0
	2212	-1	0	0	0	0	0.0000000000E+00	0.0000000000E+00	-6.5000000000E+03	6.5000000000E+03	9.3827000000E-01	0.000E+00	0.0
	2212	1	0	0	0	0	0.0000000000E+00	0.0000000000E+00	5.4427501881E+03	5.4427501881E+03	9.3827000000E-01	0.000E+00	0.0
	2212	1	0	0	0	0	0.0000000000E+00	0.0000000000E+00	-6.2440864169E+03	6.2440864169E+03	9.3827000000E-01	0.000E+00	0.0
	51	2	1	2	0	0	9.5377798709E+01	7.7576693677E+01	7.2606470599E+02	1.2745757630E+03	1.0403164665E+03	0.000E+00	0.0
	1000022	2	5	5	0	0	-9.5377798709E+01	-7.7576693677E+01	7.3956445228E+02	1.1271758265E+03	8.4169750914E+02	0.000E+00	0.0
	14	1	6	6	0	0	-1.8656115013E+02	1.8966744830E+02	3.7346288596E+02	5.6203054265E+02	3.2500000000E+02	0.000E+00	0.0
	-14	1	6	6	0	0	9.1183351424E+01	-2.6724414198E+02	3.6610156632E+02	5.6514528385E+02	3.2500000000E+02	0.000E+00	0.0
	25	2	5	5	0	0	9.5377798709E+01	7.7576693677E+01	6.1771776568E+01	1.8598756854E+02	1.2514214072E+02	0.000E+00	0.0
	-5	1	9	9	0	501	7.5552005520E+00	8.4663429087E+01	4.4757413845E+01	9.6154437101E+01	4.1800000000E+00	0.000E+00	0.0
	5	1	9	9	501	0	8.7822598156E+01	-7.0867354092E+00	1.7014362723E+01	8.9833131442E+01	4.1800000000E+00	0.000E+00	0.0
</event>
<event>
    11  -1  1.0000000E+00  1.0000000E+00  -1.0000000E+00  -1.0000000E+00
	2212	-1	0	0	0	0	0.0000000000E+00	0.0000000000E+00	6.5000000000E+03	6.5000000000E+03	9.3827000000E-01	0.000E+00	0.0
	2212	-1	0	0	0	0	0.0000000000E+00	0.0000000000E+00	-6.5000000000E+03	6.5000000000E+03	9.3827000000E-01	0.000E+00	0.0
	2212	1	0	0	0	0	0.0000000000E+00	0.0000000000E+00	5.5601905132E+03	5.5601905132E+03	9.3827000000E-01	0.000E+00	0.0
	2212	1	0	0	0	0	0.0000000000E+00	0.0000000000E+00	-6.2067840244E+03	6.2067840244E+03	9.3827000000E-01	0.000E+00	0.0
	51	2	1	2	0	0	-3.7684548619E+01	7.6639266449E+01	7.7500643643E+02	1.3077451209E+03	1.0498898144E+03	0.000E+00	0.0
	1000022	2	5	5	0	0	3.7684548619E+01	-7.6639266449E+01	4.1004862654E+02	9.5210290093E+02	8.5502418414E+02	0.000E+00	0.0
	14	1	6	6	0	0	-8.1834557840E+01	1.3399728058E+02	4.1073448843E+02	5.4679062359E+02	3.2500000000E+02	0.000E+00	0.0
	-14	1	6	6	0	0	1.1951910646E+02	-2.1063654703E+02	-6.8586188642E-01	4.0531227734E+02	3.2500000000E+02	0.000E+00	0.0
	25	2	5	5	0	0	-3.7684548619E+01	7.6639266449E+01	2.3654488456E+02	2.8092256147E+02	1.2518107191E+02	0.000E+00	0.0
	-5	1	9	9	0	501	-3.8308458094E+01	4.2383995215E+01	1.8550055116E+01	6.0212274137E+01	4.1800000000E+00	0.000E+00	0.0
	5	1	9	9	501	0	6.2390947532E-01	3.4255271234E+01	2.1799482945E+02	2.2071028734E+02	4.1800000000E+00	0.000E+00	0.0
</event>
<event>
    11  -1  1.0000000E+00  1.0000000E+00  -1.0000000E+00  -1.0000000E+00
	2212	-1	0	0	0	0	0.0000000000E+00	0.0000000000E+00	6.5000000000E+03	6.5000000000E+03	9.3827000000E-01	0.000E+00	0.0
	2212	-1	0	0	0	0	0.0000000000E+00	0.0000000000E+00	-6.5000000000E+03	6.5000000000E+03	9.3827000000E-01	0.000E+00	0.0
	2212	1	0	0	0	0	0.0000000000E+00	0.0000000000E+00	6.2939666972E+03	6.2939666972E+03	9.3827000000E-01	0.000E+00	0.0
	2212	1	0	0	0	0	0.0000000000E+00	0.0000000000E+00	-5.1649006472E+03	5.1649006472E+03	9.3827000000E-01	0.000E+00	0.0
	51	2	1	2	0	0	8.2177041567E+01	-9.3198246443E+01	-1.2189141762E+03	1.6129136570E+03	1.0489517229E+03	0.000E+00	0.0
	1000022	2	5	5	0	0	-8.2177041567E+01	9.3198246443E+01	-8.4985376644E+02	1.2108767077E+03	8.5354085877E+02	0.000E+00	0.0
	14	1	6	6	0	0	1.1920465842E+02	-1.6360384823E+02	-2.6137572260E+02	4.6359275028E+02	3.2500000000E+02	0.000E+00	0.0
	-14	1	6	6	0	0	-2.0138169999E+02	2.5680209468E+02	-5.8847804384E+02	7.4728395741E+02	3.2500000000E+02	0.000E+00	0.0
	25	2	5	5	0	0	8.2177041567E+01	-9.3198246443E+01	-2.7921228361E+02	3.3025594795E+02	1.2518191776E+02	0.000E+00	0.0
	-5	1	9	9	0	501	-2.2182208999E+01	7.7431875585E+00	-1.3455079577E+01	2.7395600305E+01	4.1800000000E+00	0.000E+00	0.0
	5	1	9	9	501	0	1.0435925057E+02	-1.0094143400E+02	-2.6575720404E+02	3.0286034764E+02	4.1800000000E+00	0.000E+00	0.0
</event>
<event>
    11  -1  1.0000000E+00  1.0000000E+00  -1.0000000E+00  -1.0000000E+00
	2212	-1	0	0	0	0	0.0000000000E+00	0.0000000000E+00	6.5000000000E+03	6.5000000000E+03	9.3827000000E-01	0.000E+00	0.0
	2212	-1	0	0	0	0	0.0000000000E+00	0.0000000000E+00	-6.5000000000E+03	6.5000000000E+03	9.3827000000E-01	0.000E+00	0.0
	2212	1	0	0	0	0	0.0000000000E+00	0.0000000000E+00	5.1868136549E+03	5.1868136549E+03	9.3827000000E-01	0.000E+00	0.0
	2212	1	0	0	0	0	0.0000000000E+00	0.0000000000E+00	-6.2906767750E+03	6.2906767750E+03	9.3827000000E-01	0.000E+00	0.0
	51	2	1	2	0	0	1.3174772862E+02	-1.0935963256E+01	1.0626235132E+03	1.4987219199E+03	1.0485807566E+03	0.000E+00	0.0
	1000022	2	5	5	0	0	-1.3174772862E+02	1.0935963256E+01	9.5930221291E+02	1.2900307905E+03	8.5231546121E+02	0.000E+00	0.0
	14	1	6	6	0	0	-2.8223468818E+02	-1.5173444988E+01	2.5782761960E+02	5.0198280257E+02	3.2500000000E+02	0.000E+00	0.0
	-14	1	6	6	0	0	1.5048695957E+02	2.6109408245E+01	7.0147459331E+02	7.8804798792E+02	3.2500000000E+02	0.000E+00	0.0
	25	2	5	5	0	0	1.3174772862E+02	-1.0935963256E+01	1.4456090717E+02	2.3247877960E+02	1.2518573320E+02	0.000E+00	0.0
	-5	1	9	9	0	501	4.7847304318E+01	4.9053835122E+01	9.6966766539E+01	1.1880938298E+02	4.1800000000E+00	0.000E+00	0.0
	5	1	9	9	501	0	8.3900424297E+01	-5.9989798378E+01	4.7594140627E+01	1.1366939662E+02	4.1800000000E+00	0.000E+00	0.0
</event>
<event>
    11  -1  1.0000000E+00  1.0000000E+00  -1.0000000E+00  -1.0000000E+00
	2212	-1	0	0	0	0	0.0000000000E+00	0.0000000000E+00	6.5000000000E+03	6.5000000000E+03	9.3827000000E-01	0.000E+00	0.0
	2212	-1	0	0	0	0	0.0000000000E+00	0.0000000000E+00	-6.5000000000E+03	6.5000000000E+03	9.3827000000E-01	0.000E+00	0.0
	2212	1	0	0	0	0	0.0000000000E+00	0.0000000000E+00	5.6882294003E+03	5.6882294003E+03	9.3827000000E-01	0.000E+00	0.0
	2212	1	0	0	0	0	0.0000000000E+00	0.0000000000E+00	-6.1581804935E+03	6.1581804935E+03	9.3827000000E-01	0.000E+00	0.0
	51	2	1	2	0	0	-1.6495407241E+01	-8.3964020415E+01	3.4938279593E+02	1.1132414368E+03	1.0535255589E+03	0.000E+00	0.0
	1000022	2	5	5	0	0	1.6495407241E+01	8.3964020415E+01	5.1017359588E+02	9.9671375584E+02	8.5196194631E+02	0.000E+00	0.0
	14	1	6	6	0	0	-4.0546238299E-03	7.1972249993E+01	5.7526613719E+02	6.6463232948E+02	3.2500000000E+02	0.000E+00	0.0
	-14	1	6	6	0	0	1.6499461865E+01	1.1991770422E+01	-6.5092541316E+01	3.3208142636E+02	3.2500000000E+02	0.000E+00	0.0
	25	2	5	5	0	0	-1.6495407241E+01	-8.3964020415E+01	-4.0222502681E+01	1.5687635043E+02	1.2518100661E+02	0.000E+00	0.0
	-5	1	9	9	0	501	4.9174651327E+01	-4.8829042801E+01	-4.3984587257E+01	8.2185996801E+01	4.1800000000E+00	0.000E+00	0.0
	5	1	9	9	501	0	-6.5670058568E+01	-3.5134977613E+01	3.7620845753E+00	7.4690353624E+01	4.1800000000E+00	0.000E+00	0.0
</event>
<event>
    11  -1  1.0000000E+00  1.0000000E+00  -1.0000000E+00  -1.0000000E+00
	2212	-1	0	0	0	0	0.0000000000E+00	0.0000000000E+00	6.5000000000E+03	6.5000000000E+03	9.3827000000E-01	0.000E+00	0.0
	2212	-1	0	0	0	0	0.0000000000E+00	0.0000000000E+00	-6.5000000000E+03	6.5000000000E+03	9.3827000000E-01	0.000E+00	0.0
	2212	1	0	0	0	0	0.0000000000E+00	0.0000000000E+00	5.8604611061E+03	5.8604611061E+03	9.3827000000E-01	0.000E+00	0.0
	2212	1	0	0	0	0	0.0000000000E+00	0.0000000000E+00	-6.0640271805E+03	6.0640271805E+03	9.3827000000E-01	0.000E+00	0.0
	51	2	1	2	0	0	8.8202220727E+01	-9.1658504998E+01	1.4087213654E+02	1.0729921581E+03	1.0560711620E+03	0.000E+00	0.0
	1000022	2	5	5	0	0	-8.8202220727E+01	9.1658504998E+01	2.3159010917E+02	8.9485788429E+02	8.5495949678E+02	0.000E+00	0.0
	14	1	6	6	0	0	2.2327576187E+01	-1.9993515802E+02	2.2674575980E+02	4.4442235279E+02	3.2500000000E+02	0.000E+00	0.0
	-14	1	6	6	0	0	-1.1052979691E+02	2.9159366302E+02	4.8443493706E+00	4.5043553150E+02	3.2500000000E+02	0.000E+00	0.0
	25	2	5	5	0	0	8.8202220727E+01	-9.1658504998E+01	-2.8024034799E+01	1.8065382915E+02	1.2517805791E+02	0.000E+00	0.0
	-5	1	9	9	0	501	5.2283519604E+01	-2.0547257738E+01	4.5309409873E+01	7.2292262697E+01	4.1800000000E+00	0.000E+00	0.0
	5	1	9	9	501	0	3.5918701124E+01	-7.1111247259E+01	-7.3333444672E+01	1.0836156646E+02	4.1800000000E+00	0.000E+00	0.0
</event>
<event>
    11  -1  1.0000000E+00  1.0000000E+00  -1.0000000E+00  -1.0000000E+00
	2212	-1	0	0	0	0	0.0000000000E+00	0.0000000000E+00	6.5000000000E+03	6.5000000000E+03	9.3827000000E-01	0.000E+00	0.0
	2212	-1	0	0	0	0	0.0000000000E+00	0.0000000000E+00	-6.5000000000E+03	6.5000000000E+03	9.3827000000E-01	0.000E+00	0.0
	2212	1	0	0	0	0	0.0000000000E+00	0.0000000000E+00	6.0310830237E+03	6.0310830237E+03	9.3827000000E-01	0.000E+00	0.0
	2212	1	0	0	0	0	0.0000000000E+00	0.0000000000E+00	-5.9144514562E+03	5.9144514562E+03	9.3827000000E-01	0.000E+00	0.0
	51	2	1	2	0	0	-1.2724384484E+02	-2.9662856384E+01	-8.3974414222E+01	1.0594419258E+03	1.0479955204E+03	0.000E+00	0.0
	1000022	2	5	5	0	0	1.2724384484E+02	2.9662856384E+01	-1.2977239473E+02	8.7304209173E+02	8.5339951863E+02	0.000E+00	0.0
	14	1	6	6	0	0	2.4214424779E+02	-1.7400642227E+02	-1.6544187373E+02	4.7107121045E+02	3.2500000000E+02	0.000E+00	0.0
	-14	1	6	6	0	0	-1.1490040295E+02	2.0366927866E+02	3.5669479006E+01	4.0197088128E+02	3.2500000000E+02	0.000E+00	0.0
	25	2	5	5	0	0	-1.2724384484E+02	-2.9662856384E+01	1.3140827250E+01	1.8142342844E+02	1.2518345716E+02	0.000E+00	0.0
	-5	1	9	9	0	501	-5.0737219137E+01	-7.4315191324E+01	-7.4304533586E+00	9.0386376763E+01	4.1800000000E+00	0.000E+00	0.0
	5	1	9	9	501	0	-7.6506625704E+01	4.4652334939E+01	2.0571280609E+01	9.1037051677E+01	4.1800000000E+00	0.000E+00	0.0
</event>
<event>
    11  -1  1.0000000E+00  1.0000000E+00  -1.0000000E+00  -1.0000000E+00
	2212	-1	0	0	0	0	0.0000000000E+00	0.0000000000E+00	6.5000000000E+03	6.5000000000E+03	9.3827000000E-01	0.000E+00	0.0
	2212	-1	0	0	0	0	0.0000000000E+00	0.0000000000E+00	-6.5000000000E+03	6.5000000000E+03	9.3827000000E-01	0.000E+00	0.0
	2212	1	0	0	0	0	0.0000000000E+00	0.0000000000E+00	6.2982259866E+03	6.2982259866E+03	9.3827000000E-01	0.000E+00	0.0
	2212	1	0	0	0	0	0.0000000000E+00	0.0000000000E+00	-5.1381307122E+03	5.1381307122E+03	9.3827000000E-01	0.000E+00	0.0
	51	2	1	2	0	0	-6.6041050475E+01	-4.9549001032E+01	-1.0104409482E+03	1.4584124112E+03	1.0484079967E+03	0.000E+00	0.0
	1000022	2	5	5	0	0	6.6041050475E+01	4.9549001032E+01	-1.1156357492E+03	1.4072363496E+03	8.5372975523E+02	0.000E+00	0.0
	14	1	6	6	0	0	2.8523628529E+02	-2.0962322821E+01	-4.0627481701E+02	5.9370311130E+02	3.2500000000E+02	0.000E+00	0.0
	-14	1	6	6	0	0	-2.1919523482E+02	7.0511323853E+01	-7.0936093215E+02	8.1353323830E+02	3.2500000000E+02	0.000E+00	0.0
	25	2	5	5	0	0	-6.6041050475E+01	-4.9549001032E+01	-4.4459525283E+01	1.5640695158E+02	1.2517971587E+02	0.000E+00	0.0
	-5	1	9	9	0	501	7.8700569220E+00	-1.3633004973E+01	3.7121562669E+01	4.0537383185E+01	4.1800000000E+00	0.000E+00	0.0
	5	1	9	9	501	0	-7.3911107397E+01	-3.5915996059E+01	-8.1581087952E+01	1.1586956840E+02	4.1800000000E+00	0.000E+00	0.0
</event>
<event>
    11  -1  1.0000000E+00  1.0000000E+00  -1.0000000E+00  -1.0000000E+00
	2212	-1	0	0	0	0	0.0000000000E+00	0.0000000000E+00	6.5000000000E+03	6.5000000000E+03	9.3827000000E-01	0.000E+00	0.0
	2212	-1	0	0	0	0	0.0000000000E+00	0.0000000000E+00	-6.5000000000E+03	6.5000000000E+03	9.3827000000E-01	0.000E+00	0.0
	2212	1	0	0	0	0	0.0000000000E+00	0.0000000000E+00	5.9659592483E+03	5.9659592483E+03	9.3827000000E-01	0.000E+00	0.0
	2212	1	0	0	0	0	0.0000000000E+00	0.0000000000E+00	-5.9745707485E+03	5.9745707485E+03	9.3827000000E-01	0.000E+00	0.0
	51	2	1	2	0	0	8.2286271172E+01	8.7634260017E+01	7.5734676972E-01	1.0662335097E+03	1.0594350049E+03	0.000E+00	0.0
	1000022	2	5	5	0	0	-8.2286271172E+01	-8.7634260017E+01	1.5108932898E+01	8.8578958225E+02	8.7746459200E+02	0.000E+00	0.0
	14	1	6	6	0	0	-2.1902892153E+02	1.6391096927E+02	-1.0245259881E+02	4.3699200144E+02	3.2500000000E+02	0.000E+00	0.0
	-14	1	6	6	0	0	1.3674265036E+02	-2.5154522929E+02	1.1756153170E+02	4.4879758081E+02	3.2500000000E+02	0.000E+00	0.0
	25	2	5	5	0	0	8.2286271172E+01	8.7634260017E+01	-6.4974326350E+00	1.7368042092E+02	1.2518737169E+02	0.000E+00	0.0
	-5	1	9	9	0	501	-1.2296097834E+01	6.6085458478E+01	2.4637725362E+01	7.1714515652E+01	4.1800000000E+00	0.000E+00	0.0
	5	1	9	9	501	0	9.4582369006E+01	2.1548801539E+01	-3.1135157997E+01	1.0196590527E+02	4.1800000000E+00	0.000E+00	0.0
</event>
<event>
    11  -1  1.0000000E+00  1.0000000E+00  -1.0000000E+00  -1.0000000E+00
	2212	-1	0	0	0	0	0.0000000000E+00	0.0000000000E+00	6.5000000000E+03	6.5000000000E+03	9.3827000000E-01	0.000E+00	0.0
	2212	-1	0	0	0	0	0.0000000000E+00	0.0000000000E+00	-6.5000000000E+03	6.5000000000E+03	9.3827000000E-01	0.000E+00	0.0
	2212	1	0	0	0	0	0.0000000000E+00	0.0000000000E+00	5.7780372023E+03	5.7780372023E+03	9.3827000000E-01	0.000E+00	0.0
	2212	1	0	0	0	0	0.0000000000E+00	0.0000000000E+00	-6.1161752462E+03	6.1161752462E+03	9.3827000000E-01	0.000E+00	0.0
	51	2	1	2	0	0	-1.2230336159E+02	2.7858216950E+01	3.6981591703E+02	1.1229099595E+03	1.0528194395E+03	0.000E+00	0.0
	1000022	2	5	5	0	0	1.2230336159E+02	-2.7858216950E+01	2.5135804314E+02	9.0846877726E+02	8.6394470939E+02	0.000E+00	0.0
	14	1	6	6	0	0	3.2542865191E+01	1.1663865651E+02	3.8488375929E+02	5.1809663426E+02	3.2500000000E+02	0.000E+00	0.0
	-14	1	6	6	0	0	8.9760496394E+01	-1.4449687346E+02	-1.3352571615E+02	3.9037214299E+02	3.2500000000E+02	0.000E+00	0.0
	25	2	5	5	0	0	-1.2230336159E+02	2.7858216950E+01	8.6780000736E+01	1.9731877417E+02	1.2517882251E+02	0.000E+00	0.0
	-5	1	9	9	0	501	-9.9899049972E+01	4.9555555630E+01	7.2948295361E+00	1.1183139191E+02	4.1800000000E+00	0.000E+00	0.0
	5	1	9	9	501	0	-2.2404311614E+01	-2.1697338680E+01	7.9485171200E+01	8.5487382258E+01	4.1800000000E+00	0.000E+00	0.0
</event>
<event>
    11  -1  1.0000000E+00  1.0000000E+00  -1.0000000E+00  -1.0000000E+00
	2212	-1	0	0	0	0	0.0000000000E+00	0.0000000000E+00	6.5000000000E+03	6.5000000000E+03	9.3827000000E-01	0.000E+00	0.0
	2212	-1	0	0	0	0	0.0000000000E+00	0.0000000000E+00	-6.5000000000E+03	6.5000000000E+03	9.3827000000E-01	0.000E+00	0.0
	2212	1	0	0	0	0	0.0000000000E+00	0.0000000000E+00	5.7429018102E+03	5.7429018102E+03	9.3827000000E-01	0.000E+00	0.0
	2212	1	0	0	0	0	0.0000000000E+00	0.0000000000E+00	-6.1316728077E+03	6.1316728077E+03	9.3827000000E-01	0.000E+00	0.0
	51	2	1	2	0	0	-6.5253186673E+01	-1.0732342789E+02	3.1914644959E+02	1.1104369208E+03	1.0561436466E+03	0.000E+00	0.0
	1000022	2	5	5	0	0	6.5253186673E+01	1.0732342789E+02	3.9195097344E+02	9.4806819953E+02	8.5406759031E+02	0.000E+00	0.0
	14	1	6	6	0	0	-1.3131459248E+02	-1.0497050739E+02	5.2519514086E+00	3.6594386539E+02	3.2500000000E+02	0.000E+00	0.0
	-14	1	6	6	0	0	1.9656777915E+02	2.1229393528E+02	3.8669902203E+02	5.8212433414E+02	3.2500000000E+02	0.000E+00	0.0
	25	2	5	5	0	0	-6.5253186673E+01	-1.0732342789E+02	-3.1799759178E+00	1.7735718258E+02	1.2517652104E+02	0.000E+00	0.0
	-5	1	9	9	0	501	-1.9809249050E+01	-3.3041814026E+01	-6.1341757201E+01	7.2556539323E+01	4.1800000000E+00	0.000E+00	0.0
	5	1	9	9	501	0	-4.5443937623E+01	-7.4281613861E+01	5.8161781283E+01	1.0480064325E+02	4.1800000000E+00	0.000E+00	0.0
</event>
<event>
    11  -1  1.0000000E+00  1.0000000E+00  -1.0000000E+00  -1.0000000E+00
	2212	-1	0	0	0	0	0.0000000000E+00	0.0000000000E+00	6.5000000000E+03	6.5000000000E+03	9.3827000000E-01	0.000E+00	0.0
	2212	-1	0	0	0	0	0.0000000000E+00	0.0000000000E+00	-6.5000000000E+03	6.5000000000E+03	9.3827000000E-01	0.000E+00	0.0
	2212	1	0	0	0	0	0.0000000000E+00	0.0000000000E+00	6.3318395374E+03	6.3318395374E+03	9.3827000000E-01	0.000E+00	0.0
	2212	1	0	0	0	0	0.0000000000E+00	0.0000000000E+00	-4.8849074004E+03	4.8849074004E+03	9.3827000000E-01	0.000E+00	0.0
	51	2	1	2	0	0	-9.2967165794E+01	2.6076186334E+01	-1.6271554563E+03	1.9347704296E+03	1.0422950037E+03	0.000E+00	0.0
	1000022	2	5	5	0	0	9.2967165794E+01	-2.6076186334E+01	-1.0210325378E+03	1.3289550963E+03	8.4515758488E+02	0.000E+00	0.0
	14	1	6	6	0	0	1.1331138948E+02	-2.1682488917E+02	-7.8413608876E+02	8.8337246349E+02	3.2500000000E+02	0.000E+00	0.0
	-14	1	6	6	0	0	-2.0344223686E+01	1.9074870284E+02	-2.3689644899E+02	4.4558263276E+02	3.2500000000E+02	0.000E+00	0.0
	25	2	5	5	0	0	-9.2967165794E+01	2.6076186334E+01	-4.2589959926E+02	4.5429796594E+02	1.2519309807E+02	0.000E+00	0.0
	-5	1	9	9	0	501	-4.3016371974E+00	4.7900588990E+00	7.8903614960E+00	1.1008131148E+01	4.1800000000E+00	0.000E+00	0.0
	5	1	9	9	501	0	-8.8665528597E+01	2.1286127434E+01	-4.3378996075E+02	4.4328983480E+02	4.1800000000E+00	0.000E+00	0.0
</event>
<event>
    11  -1  1.0000000E+00  1.0000000E+00  -1.0000000E+00  -1.0000000E+00
	2212	-1	0	0	0	0	0.0000000000E+00	0.0000000000E+00	6.5000000000E+03	6.5000000000E+03	9.3827000000E-01	0.000E+00	0.0
	2212	-1	0	0	0	0	0.0000000000E+00	0.0000000000E+00	-6.5000000000E+03	6.5000000000E+03	9.3827000000E-01	0.000E+00	0.0
	2212	1	0	0	0	0	0.0000000000E+00	0.0000000000E+00	6.2098477424E+03	6.2098477424E+03	9.3827000000E-01	0.000E+00	0.0
	2212	1	0	0	0	0	0.0000000000E+00	0.0000000000E+00	-5.5488756240E+03	5.5488756240E+03	9.3827000000E-01	0.000E+00	0.0
	51	2	1	2	0	0	2.8449685322E+01	-5.2368345739E+01	-5.8080225318E+02	1.2019844530E+03	1.0506586219E+03	0.000E+00	0.0
	1000022	2	5	5	0	0	-2.8449685322E+01	5.2368345739E+01	-6.4595990782E+02	1.1018210526E+03	8.9061417081E+02	0.000E+00	0.0
	14	1	6	6	0	0	-1.5053574439E+02	-1.3796354134E+02	-5.1044871505E+01	3.8720217973E+02	3.2500000000E+02	0.000E+00	0.0
	-14	1	6	6	0	0	1.2208605907E+02	1.9033188708E+02	-5.9491503631E+02	7.1461887289E+02	3.2500000000E+02	0.000E+00	0.0
	25	2	5	5	0	0	2.8449685322E+01	-5.2368345739E+01	-1.5012210559E+01	1.3945558095E+02	1.2518252419E+02	0.000E+00	0.0
	-5	1	9	9	0	501	5.9140788632E+01	-5.8315374405E+01	-4.6172079334E+01	9.5119131000E+01	4.1800000000E+00	0.000E+00	0.0
	5	1	9	9	501	0	-3.0691103311E+01	5.9470286665E+00	3.1159868775E+01	4.4336449953E+01	4.1800000000E+00	0.000E+00	0.0
</event>
<event>
    11  -1  1.0000000E+00  1.0000000E+00  -1.0000000E+00  -1.0000000E+00
	2212	-1	0	0	0	0	0.0000000000E+00	0.0000000000E+00	6.5000000000E+03	6.5000000000E+03	9.3827000000E-01	0.000E+00	0.0
	2212	-1	0	0	0	0	0.0000000000E+00	0.0000000000E+00	-6.5000000000E+03	6.5000000000E+03	9.3827000000E-01	0.000E+00	0.0
	2212	1	0	0	0	0	0.0000000000E+00	0.0000000000E+00	6.3045046094E+03	6.3045046094E+03	9.3827000000E-01	0.000E+00	0.0
	2212	1	0	0	0	0	0.0000000000E+00	0.0000000000E+00	-5.0872130158E+03	5.0872130158E+03	9.3827000000E-01	0.000E+00	0.0
	51	2	1	2	0	0	-1.0086543923E+02	5.5510914887E+01	-1.1106916510E+03	1.5335138132E+03	1.0510820013E+03	0.000E+00	0.0
	1000022	2	5	5	0	0	1.0086543923E+02	-5.5510914887E+01	-1.1183885427E+03	1.4115409349E+03	8.5346328567E+02	0.000E+00	0.0
	14	1	6	6	0	0	-7.0988384015E+01	-2.5934948280E+02	-7.0759522998E+02	8.2378244360E+02	3.2500000000E+02	0.000E+00	0.0
	-14	1	6	6	0	0	1.7185382324E+02	2.0383856791E+02	-4.1079331269E+02	5.8775849129E+02	3.2500000000E+02	0.000E+00	0.0
	25	2	5	5	0	0	-1.0086543923E+02	5.5510914887E+01	-9.8903050882E+01	1.9674143992E+02	1.2518019894E+02	0.000E+00	0.0
	-5	1	9	9	0	501	-2.6092712568E+01	6.4817353088E+01	2.8533127712E+00	7.0055211828E+01	4.1800000000E+00	0.000E+00	0.0
	5	1	9	9	501	0	-7.4772726661E+01	-9.3064382017E+00	-1.0175636365E+02	1.2668622809E+02	4.1800000000E+00	0.000E+00	0.0
</event>
<event>
    11  -1  1.0000000E+00  1.0000000E+00  -1.0000000E+00  -1.0000000E+00
	2212	-1	0	0	0	0	0.0000000000E+00	0.0000000000E+00	6.5000000000E+03	6.5000000000E+03	9.3827000000E-01	0.000E+00	0.0
	2212	-1	0	0	0	0	0.0000000000E+00	0.0000000000E+00	-6.5000000000E+03	6.5000000000E+03	9.3827000000E-01	0.000E+00	0.0
	2212	1	0	0	0	0	0.0000000000E+00	0.0000000000E+00	6.2246271132E+03	6.2246271132E+03	9.3827000000E-01	0.000E+00	0.0
	2212	1	0	0	0	0	0.0000000000E+00	0.0000000000E+00	-5.4971074222E+03	5.4971074222E+03	9.3827000000E-01	0.000E+00	0.0
	51	2	1	2	0	0	1.0559385403E+02	4.8370804633E+01	-6.2083514198E+02	1.2262152208E+03	1.0510364872E+03	0.000E+00	0.0
	1000022	2	5	5	0	0	-1.0559385403E+02	-4.8370804633E+01	-7.0665063610E+02	1.1062016828E+03	8.4311164433E+02	0.000E+00	0.0
	14	1	6	6	0	0	5.1808322020E+01	-3.3836059862E+01	-2.1449951943E+01	3.3153292690E+02	3.2500000000E+02	0.000E+00	0.0
	-14	1	6	6	0	0	-1.5740217605E+02	-1.4534744772E+01	-6.8520068415E+02	7.7466875592E+02	3.2500000000E+02	0.000E+00	0.0
	25	2	5	5	0	0	1.0559385403E+02	4.8370804633E+01	-2.0869054894E+01	1.7206378186E+02	1.2522232559E+02	0.000E+00	0.0
	-5	1	9	9	0	501	1.0675680366E+02	-5.7621228307E+00	1.3428945022E+01	1.0783332580E+02	4.1800000000E+00	0.000E+00	0.0
	5	1	9	9	501	0	-1.1629496354E+00	5.4132927464E+01	-3.4297999916E+01	6.4230456062E+01	4.1800000000E+00	0.000E+00	0.0
</event>
<event>
    11  -1  1.0000000E+00  1.0000000E+00  -1.0000000E+00  -1.0000000E+00
	2212	-1	0	0	0	0	0.0000000000E+00	0.0000000000E+00	6.5000000000E+03	6.5000000000E+03	9.3827000000E-01	0.000E+00	0.0
	2212	-1	0	0	0	0	0.0000000000E+00	0.0000000000E+00	-6.5000000000E+03	6.5000000000E+03	9.3827000000E-01	0.000E+00	0.0
	2212	1	0	0	0	0	0.0000000000E+00	0.0000000000E+00	5.4373521088E+03	5.4373521088E+03	9.3827000000E-01	0.000E+00	0.0
	2212	1	0	0	0	0	0.0000000000E+00	0.0000000000E+00	-6.2090492127E+03	6.2090492127E+03	9.3827000000E-01	0.000E+00	0.0
	51	2	1	2	0	0	-1.4191515150E+02	-7.0485972714E+01	5.8041339348E+02	1.2643974265E+03	1.1120759696E+03	0.000E+00	0.0
	1000022	2	5	5	0	0	1.4191515150E+02	7.0485972714E+01	7.9615995838E+02	1.1501870787E+03	8.1483216313E+02	0.000E+00	0.0
	14	1	6	6	0	0	-4.5708822545E+00	3.0397061721E+01	7.0969956556E+02	7.8118073945E+02	3.2500000000E+02	0.000E+00	0.0
	-14	1	6	6	0	0	1.4648603376E+02	4.0088910993E+01	8.6460392818E+01	3.6900633924E+02	3.2500000000E+02	0.000E+00	0.0
	25	2	5	5	0	0	-1.4191515150E+02	-7.0485972714E+01	-2.4462854400E+01	2.0341159982E+02	1.2517853298E+02	0.000E+00	0.0
	-5	1	9	9	0	501	-9.8806355779E+01	-1.0669046806E+02	-1.6712449759E+01	1.4643199887E+02	4.1800000000E+00	0.000E+00	0.0
	5	1	9	9	501	0	-4.3108795723E+01	3.6204495344E+01	-7.7504046411E+00	5.6979600946E+01	4.1800000000E+00	0.000E+00	0.0
</event>
<event>
    11  -1  1.0000000E+00  1.0000000E+00  -1.0000000E+00  -1.0000000E+00
	2212	-1	0	0	0	0	0.0000000000E+00	0.0000000000E+00	6.5000000000E+03	6.5000000000E+03	9.3827000000E-01	0.000E+00	0.0
	2212	-1	0	0	0	0	0.0000000000E+00	0.0000000000E+00	-6.5000000000E+03	6.5000000000E+03	9.3827000000E-01	0.000E+00	0.0
	2212	1	0	0	0	0	0.0000000000E+00	0.0000000000E+00	5.9756216580E+03	5.9756216580E+03	9.3827000000E-01	0.000E+00	0.0
	2212	1	0	0	0	0	0.0000000000E+00	0.0000000000E+00	-5.8687245423E+03	5.8687245423E+03	9.3827000000E-01	0.000E+00	0.0
	51	2	1	2	0	0	1.1511767842E+02	-2.0885088362E+02	-9.9611205722E+01	1.1793650305E+03	1.1506992272E+03	0.000E+00	0.0
	1000022	2	5	5	0	0	-1.1511767842E+02	2.0885088362E+02	-9.1422282772E+01	8.8587850192E+02	8.4826405965E+02	0.000E+00	0.0
	14	1	6	6	0	0	-1.9061727945E+01	1.0228487545E+01	2.1276802430E+02	3.8905424248E+02	3.2500000000E+02	0.000E+00	0.0
	-14	1	6	6	0	0	-9.6055950477E+01	1.9862239608E+02	-3.0419030707E+02	4.9682425944E+02	3.2500000000E+02	0.000E+00	0.0
	25	2	5	5	0	0	1.1511767842E+02	-2.0885088362E+02	-1.5474832935E+01	2.6977529781E+02	1.2517375674E+02	0.000E+00	0.0
	-5	1	9	9	0	501	1.2127360491E+02	-2.2269484521E+02	-1.4198743777E+01	2.5400661026E+02	4.1800000000E+00	0.000E+00	0.0
	5	1	9	9	501	0	-6.1559264904E+00	1.3843961586E+01	-1.2760891580E+00	1.5768687545E+01	4.1800000000E+00	0.000E+00	0.0
</event>
<event>
    11  -1  1.0000000E+00  1.0000000E+00  -1.0000000E+00  -1.0000000E+00
	2212	-1	0	0	0	0	0.0000000000E+00	0.0000000000E+00	6.5000000000E+03	6.5000000000E+03	9.3827000000E-01	0.000E+00	0.0
	2212	-1	0	0	0	0	0.0000000000E+00	0.0000000000E+00	-6.5000000000E+03	6.5000000000E+03	9.3827000000E-01	0.000E+00	0.0
	2212	1	0	0	0	0	0.0000000000E+00	0.0000000000E+00	4.8588517968E+03	4.8588517968E+03	9.3827000000E-01	0.000E+00	0.0
	2212	1	0	0	0	0	0.0000000000E+00	0.0000000000E+00	-6.3313741748E+03	6.3313741748E+03	9.3827000000E-01	0.000E+00	0.0
	51	2	1	2	0	0	-8.7734788663E+01	4.4680959259E+01	1.6518403063E+03	1.9609258168E+03	1.0521216091E+03	0.000E+00	0.0
	1000022	2	5	5	0	0	8.7734788663E+01	-4.4680959259E+01	1.0449442769E+03	1.3535030652E+03	8.5461583432E+02	0.000E+00	0.0
	14	1	6	6	0	0	7.7031022712E+00	-1.5820242732E+02	9.0289360001E+02	9.7258891559E+02	3.2500000000E+02	0.000E+00	0.0
	-14	1	6	6	0	0	8.0031686392E+01	1.1352146806E+02	1.4205067692E+02	3.8091414958E+02	3.2500000000E+02	0.000E+00	0.0
	25	2	5	5	0	0	-8.7734788663E+01	4.4680959259E+01	4.2757810104E+02	4.5627096323E+02	1.2516540314E+02	0.000E+00	0.0
	-5	1	9	9	0	501	-1.5575795881E+01	3.0080133910E+01	3.4032166816E+02	3.4202884395E+02	4.1800000000E+00	0.000E+00	0.0
	5	1	9	9	501	0	-7.2158992782E+01	1.4600825348E+01	8.7256432871E+01	1.1424211928E+02	4.1800000000E+00	0.000E+00	0.0
</event>
<event>
    11  -1  1.0000000E+00  1.0000000E+00  -1.0000000E+00  -1.0000000E+00
	2212	-1	0	0	0	0	0.0000000000E+00	0.0000000000E+00	6.5000000000E+03	6.5000000000E+03	9.3827000000E-01	0.000E+00	0.0
	2212	-1	0	0	0	0	0.0000000000E+00	0.0000000000E+00	-6.5000000000E+03	6.5000000000E+03	9.3827000000E-01	0.000E+00	0.0
	2212	1	0	0	0	0	0.0000000000E+00	0.0000000000E+00	6.2153778473E+03	6.2153778473E+03	9.3827000000E-01	0.000E+00	0.0
	2212	1	0	0	0	0	0.0000000000E+00	0.0000000000E+00	-5.5214937727E+03	5.5214937727E+03	9.3827000000E-01	0.000E+00	0.0
	51	2	1	2	0	0	1.3623401932E+02	-5.8633313331E+01	-7.7566269922E+02	1.3182065057E+03	1.0554706037E+03	0.000E+00	0.0
	1000022	2	5	5	0	0	-1.3623401932E+02	5.8633313331E+01	-4.8680527801E+02	9.7995710557E+02	8.3745983582E+02	0.000E+00	0.0
	14	1	6	6	0	0	-6.9267935034E+01	2.8895440906E+02	-3.1277263417E+02	5.4013370384E+02	3.2500000000E+02	0.000E+00	0.0
	-14	1	6	6	0	0	-6.6966084285E+01	-2.3032109573E+02	-1.7403264384E+02	4.3982340173E+02	3.2500000000E+02	0.000E+00	0.0
	25	2	5	5	0	0	1.3623401932E+02	-5.8633313331E+01	-2.0707879667E+02	2.8317127443E+02	1.2372052852E+02	0.000E+00	0.0
	-5	1	9	9	0	501	-2.2211971037E+01	-1.8026118097E+01	-2.3474913381E+01	3.7240522946E+01	4.1800000000E+00	0.000E+00	0.0
	5	1	9	9	501	0	1.5844599036E+02	-4.0607195233E+01	-1.8360388329E+02	2.4593075148E+02	4.1800000000E+00	0.000E+00	0.0
</event>
<event>
    11  -1  1.0000000E+00  1.0000000E+00  -1.0000000E+00  -1.0000000E+00
	2212	-1	0	0	0	0	0.0000000000E+00	0.0000000000E+00	6.5000000000E+03	6.5000000000E+03	9.3827000000E-01	0.000E+00	0.0
	2212	-1	0	0	0	0	0.0000000000E+00	0.0000000000E+00	-6.5000000000E+03	6.5000000000E+03	9.3827000000E-01	0.000E+00	0.0
	2212	1	0	0	0	0	0.0000000000E+00	0.0000000000E+00	5.0838785055E+03	5.0838785055E+03	9.3827000000E-01	0.000E+00	0.0
	2212	1	0	0	0	0	0.0000000000E+00	0.0000000000E+00	-6.3059798363E+03	6.3059798363E+03	9.3827000000E-01	0.000E+00	0.0
	51	2	1	2	0	0	-8.4735654209E+01	-7.0978441282E+01	1.3826555184E+03	1.7386715762E+03	1.0483436922E+03	0.000E+00	0.0
	1000022	2	5	5	0	0	8.4735654209E+01	7.0978441282E+01	8.4847728388E+02	1.2008881638E+03	8.4261533956E+02	0.000E+00	0.0
	14	1	6	6	0	0	2.5931107883E+02	1.8942620329E+02	5.2649369120E+02	6.9709764665E+02	3.2500000000E+02	0.000E+00	0.0
	-14	1	6	6	0	0	-1.7457542462E+02	-1.1844776200E+02	3.2198359268E+02	5.0379051714E+02	3.2500000000E+02	0.000E+00	0.0
	25	2	5	5	0	0	-8.4735654209E+01	-7.0978441282E+01	3.7362404688E+02	4.0925349444E+02	1.2520153388E+02	0.000E+00	0.0
	-5	1	9	9	0	501	1.4640876488E+01	-4.3474055876E+01	4.3429659598E+01	6.3308423858E+01	4.1800000000E+00	0.000E+00	0.0
	5	1	9	9	501	0	-9.9376530697E+01	-2.7504385406E+01	3.3019438728E+02	3.4594507059E+02	4.1800000000E+00	0.000E+00	0.0
</event>
<event>
    11  -1  1.0000000E+00  1.0000000E+00  -1.0000000E+00  -1.0000000E+00
	2212	-1	0	0	0	0	0.0000000000E+00	0.0000000000E+00	6.5000000000E+03	6.5000000000E+03	9.3827000000E-01	0.000E+00	0.0
	2212	-1	0	0	0	0	0.0000000000E+00	0.0000000000E+00	-6.5000000000E+03	6.5000000000E+03	9.3827000000E-01	0.000E+00	0.0
	2212	1	0	0	0	0	0.0000000000E+00	0.0000000000E+00	4.9349941583E+03	4.9349941583E+03	9.3827000000E-01	0.000E+00	0.0
	2212	1	0	0	0	0	0.0000000000E+00	0.0000000000E+00	-6.3249930115E+03	6.3249930115E+03	9.3827000000E-01	0.000E+00	0.0
	51	2	1	2	0	0	-6.1786958374E+01	-1.0793790783E+02	1.4329575502E+03	1.7788713834E+03	1.0466842110E+03	0.000E+00	0.0
	1000022	2	5	5	0	0	6.1786958374E+01	1.0793790783E+02	1.1212647312E+03	1.4185266079E+03	8.5995053324E+02	0.000E+00	0.0
	14	1	6	6	0	0	-2.5129658970E+02	5.1191102724E+01	5.4344172399E+02	6.8317231528E+02	3.2500000000E+02	0.000E+00	0.0
	-14	1	6	6	0	0	3.1308354807E+02	5.6746805105E+01	5.7782300719E+02	7.3535429257E+02	3.2500000000E+02	0.000E+00	0.0
	25	2	5	5	0	0	-6.1786958374E+01	-1.0793790783E+02	2.6873412202E+02	3.2148622241E+02	1.2516845724E+02	0.000E+00	0.0
	-5	1	9	9	0	501	3.5561794602E+01	-3.2772025978E+01	1.1310805597E+02	1.2308351492E+02	4.1800000000E+00	0.000E+00	0.0
	5	1	9	9	501	0	-9.7348752977E+01	-7.5165881851E+01	1.5562606605E+02	1.9840270748E+02	4.1800000000E+00	0.000E+00	0.0
</event>
<event>
    11  -1  1.0000000E+00  1.0000000E+00  -1.0000000E+00  -1.0000000E+00
	2212	-1	0	0	0	0	0.0000000000E+00	0.0000000000E+00	6.5000000000E+03	6.5000000000E+03	9.3827000000E-01	0.000E+00	0.0
	2212	-1	0	0	0	0	0.0000000000E+00	0.0000000000E+00	-6.5000000000E+03	6.5000000000E+03	9.3827000000E-01	0.000E+00	0.0
	2212	1	0	0	0	0	0.0000000000E+00	0.0000000000E+00	6.2064843192E+03	6.2064843192E+03	9.3827000000E-01	0.000E+00	0.0
	2212	1	0	0	0	0	0.0000000000E+00	0.0000000000E+00	-5.5568987145E+03	5.5568987145E+03	9.3827000000E-01	0.000E+00	0.0
	51	2	1	2	0	0	2.2861689382E+01	-4.6958088094E+01	-4.5128220350E+02	1.1461428400E+03	1.0522642556E+03	0.000E+00	0.0
	1000022	2	5	5	0	0	-2.2861689382E+01	4.6958088094E+01	-7.2006877113E+02	1.0837595445E+03	8.0827470342E+02	0.000E+00	0.0
	14	1	6	6	0	0	-5.5323502892E+01	2.1534222807E+02	-5.5602675863E+02	6.8133965207E+02	3.2500000000E+02	0.000E+00	0.0
	-14	1	6	6	0	0	3.2461813510E+01	-1.6838413998E+02	-1.6404201249E+02	4.0241989239E+02	3.2500000000E+02	0.000E+00	0.0
	25	2	5	5	0	0	2.2861689382E+01	-4.6958088094E+01	7.0483166458E+01	1.5285742190E+02	1.2517905494E+02	0.000E+00	0.0
	-5	1	9	9	0	501	3.2725977478E+01	-5.9334014835E+01	9.8961561997E+01	1.2000990822E+02	4.1800000000E+00	0.000E+00	0.0
	5	1	9	9	501	0	-9.8642880959E+00	1.2375926741E+01	-2.8478395539E+01	3.2847513678E+01	4.1800000000E+00	0.000E+00	0.0
</event>
<event>
    11  -1  1.0000000E+00  1.0000000E+00  -1.0000000E+00  -1.0000000E+00
	2212	-1	0	0	0	0	0.0000000000E+00	0.0000000000E+00	6.5000000000E+03	6.5000000000E+03	9.3827000000E-01	0.000E+00	0.0
	2212	-1	0	0	0	0	0.0000000000E+00	0.0000000000E+00	-6.5000000000E+03	6.5000000000E+03	9.3827000000E-01	0.000E+00	0.0
	2212	1	0	0	0	0	0.0000000000E+00	0.0000000000E+00	4.9675352479E+03	4.9675352479E+03	9.3827000000E-01	0.000E+00	0.0
	2212	1	0	0	0	0	0.0000000000E+00	0.0000000000E+00	-6.3196741844E+03	6.3196741844E+03	9.3827000000E-01	0.000E+00	0.0
	51	2	1	2	0	0	-1.1527709055E+02	-1.5658308168E+01	1.2290592082E+03	1.6215709521E+03	1.0513666464E+03	0.000E+00	0.0
	1000022	2	5	5	0	0	1.1527709055E+02	1.5658308168E+01	1.2432392106E+03	1.5101556020E+03	8.4934811310E+02	0.000E+00	0.0
	14	1	6	6	0	0	3.2984730092E+01	2.5206848610E+02	4.1142596948E+02	5.8268588662E+02	3.2500000000E+02	0.000E+00	0.0
	-14	1	6	6	0	0	8.2292360455E+01	-2.3641017793E+02	8.3181324114E+02	9.2746971538E+02	3.2500000000E+02	0.000E+00	0.0
	25	2	5	5	0	0	-1.1527709055E+02	-1.5658308168E+01	1.0889972590E+02	2.0263496568E+02	1.2517103817E+02	0.000E+00	0.0
	-5	1	9	9	0	501	-1.9450688232E+01	-3.2635853737E+01	9.7300344077E+01	1.0453830676E+02	4.1800000000E+00	0.000E+00	0.0
	5	1	9	9	501	0	-9.5826402315E+01	1.6977545569E+01	1.1599381823E+01	9.8096658928E+01	4.1800000000E+00	0.000E+00	0.0
</event>
<event>
    11  -1  1.0000000E+00  1.0000000E+00  -1.0000000E+00  -1.0000000E+00
	2212	-1	0	0	0	0	0.0000000000E+00	0.0000000000E+00	6.5000000000E+03	6.5000000000E+03	9.3827000000E-01	0.000E+00	0.0
	2212	-1	0	0	0	0	0.0000000000E+00	0.0000000000E+00	-6.5000000000E+03	6.5000000000E+03	9.3827000000E-01	0.000E+00	0.0
	2212	1	0	0	0	0	0.0000000000E+00	0.0000000000E+00	6.2716763202E+03	6.2716763202E+03	9.3827000000E-01	0.000E+00	0.0
	2212	1	0	0	0	0	0.0000000000E+00	0.0000000000E+00	-5.2737888877E+03	5.2737888877E+03	9.3827000000E-01	0.000E+00	0.0
	51	2	1	2	0	0	1.4121587185E+02	6.4985914944E+01	-9.9620143121E+02	1.4616684017E+03	1.0582495610E+03	0.000E+00	0.0
	1000022	2	5	5	0	0	-1.4121587185E+02	-6.4985914944E+01	-8.2193422185E+02	1.1884717622E+03	8.4422992898E+02	0.000E+00	0.0
	14	1	6	6	0	0	1.2864821204E+02	-1.8366246555E+01	-6.3308862208E+02	7.2340437162E+02	3.2500000000E+02	0.000E+00	0.0
	-14	1	6	6	0	0	-2.6986408390E+02	-4.6619668389E+01	-1.8884559977E+02	4.6506739061E+02	3.2500000000E+02	0.000E+00	0.0
	25	2	5	5	0	0	1.4121587185E+02	6.4985914944E+01	-1.7595321072E+02	2.6606302987E+02	1.2515954576E+02	0.000E+00	0.0
	-5	1	9	9	0	501	1.5365688507E+02	8.4966554819E+01	-1.5322710028E+02	2.3307889314E+02	4.1800000000E+00	0.000E+00	0.0
	5	1	9	9	501	0	-1.2441013218E+01	-1.9980639875E+01	-2.2726110442E+01	3.2984136726E+01	4.1800000000E+00	0.000E+00	0.0
</event>
<event>
    11  -1  1.0000000E+00  1.0000000E+00  -1.0000000E+00  -1.0000000E+00
	2212	-1	0	0	0	0	0.0000000000E+00	0.0000000000E+00	6.5000000000E+03	6.5000000000E+03	9.3827000000E-01	0.000E+00	0.0
	2212	-1	0	0	0	0	0.0000000000E+00	0.0000000000E+00	-6.5000000000E+03	6.5000000000E+03	9.3827000000E-01	0.000E+00	0.0
	2212	1	0	0	0	0	0.0000000000E+00	0.0000000000E+00	6.1799912491E+03	6.1799912491E+03	9.3827000000E-01	0.000E+00	0.0
	2212	1	0	0	0	0	0.0000000000E+00	0.0000000000E+00	-5.4731977024E+03	5.4731977024E+03	9.3827000000E-01	0.000E+00	0.0
	51	2	1	2	0	0	-1.8092039987E+01	5.6997077193E+01	-4.5284202549E+02	1.2340926916E+03	1.1464479416E+03	0.000E+00	0.0
	1000022	2	5	5	0	0	1.8092039987E+01	-5.6997077193E+01	-8.1065344662E+02	1.1735264350E+03	8.4642146386E+02	0.000E+00	0.0
	14	1	6	6	0	0	-2.1023093607E+02	3.9004478795E+01	-1.9645455550E+02	4.3581852671E+02	3.2500000000E+02	0.000E+00	0.0
	-14	1	6	6	0	0	2.2832297605E+02	-9.6001555989E+01	-6.1419889112E+02	7.3770790832E+02	3.2500000000E+02	0.000E+00	0.0
	25	2	5	5	0	0	-1.8092039987E+01	5.6997077193E+01	1.0385989995E+02	1.7328461347E+02	1.2515865823E+02	0.000E+00	0.0
	-5	1	9	9	0	501	8.6545196193E+00	-2.5309232312E+01	-1.1159402775E+01	2.9282462676E+01	4.1800000000E+00	0.000E+00	0.0
	5	1	9	9	501	0	-2.6746559607E+01	8.2306309505E+01	1.1501930272E+02	1.4400215080E+02	4.1800000000E+00	0.000E+00	0.0
</event>
<event>
    11  -1  1.0000000E+00  1.0000000E+00  -1.0000000E+00  -1.0000000E+00
	2212	-1	0	0	0	0	0.0000000000E+00	0.0000000000E+00	6.5000000000E+03	6.5000000000E+03	9.3827000000E-01	0.000E+00	0.0
	2212	-1	0	0	0	0	0.0000000000E+00	0.0000000000E+00	-6.5000000000E+03	6.5000000000E+03	9.3827000000E-01	0.000E+00	0.0
	2212	1	0	0	0	0	0.0000000000E+00	0.0000000000E+00	6.0382988874E+03	6.0382988874E+03	9.3827000000E-01	0.000E+00	0.0
	2212	1	0	0	0	0	0.0000000000E+00	0.0000000000E+00	-5.8942762439E+03	5.8942762439E+03	9.3827000000E-01	0.000E+00	0.0
	51	2	1	2	0	0	1.5533824945E+01	1.1175522822E+02	-4.8659382843E+01	1.0647777208E+03	1.0576640906E+03	0.000E+00	0.0
	1000022	2	5	5	0	0	-1.5533824945E+01	-1.1175522822E+02	-2.1438825763E+02	8.8480177688E+02	8.5098844211E+02	0.000E+00	0.0
	14	1	6	6	0	0	1.7672149968E+02	4.0341170124E+01	8.2233458591E+01	3.8111053537E+02	3.2500000000E+02	0.000E+00	0.0
	-14	1	6	6	0	0	-1.9225532463E+02	-1.5209639835E+02	-2.9662171622E+02	5.0369124151E+02	3.2500000000E+02	0.000E+00	0.0
	25	2	5	5	0	0	1.5533824945E+01	1.1175522822E+02	7.0365614067E+01	1.8262309185E+02	1.2517724746E+02	0.000E+00	0.0
	-5	1	9	9	0	501	-8.3598390247E+00	2.3208481169E+01	-3.4902496562E+01	4.2943883999E+01	4.1800000000E+00	0.000E+00	0.0
	5	1	9	9	501	0	2.3893663970E+01	8.8546747054E+01	1.0526811063E+02	1.3967920786E+02	4.1800000000E+00	0.000E+00	0.0
</event>
<event>
    11  -1  1.0000000E+00  1.0000000E+00  -1.0000000E+00  -1.0000000E+00
	2212	-1	0	0	0	0	0.0000000000E+00	0.0000000000E+00	6.5000000000E+03	6.5000000000E+03	9.3827000000E-01	0.000E+00	0.0
	2212	-1	0	0	0	0	0.0000000000E+00	0.0000000000E+00	-6.5000000000E+03	6.5000000000E+03	9.3827000000E-01	0.000E+00	0.0
	2212	1	0	0	0	0	0.0000000000E+00	0.0000000000E+00	5.4078413371E+03	5.4078413371E+03	9.3827000000E-01	0.000E+00	0.0
	2212	1	0	0	0	0	0.0000000000E+00	0.0000000000E+00	-6.2570419435E+03	6.2570419435E+03	9.3827000000E-01	0.000E+00	0.0
	51	2	1	2	0	0	9.9676463212E+01	1.0470105518E+01	7.6466175542E+02	1.2869139851E+03	1.0302402557E+03	0.000E+00	0.0
	1000022	2	5	5	0	0	-9.9676463212E+01	-1.0470105518E+01	7.9552457717E+02	1.1660174452E+03	8.4657681826E+02	0.000E+00	0.0
	14	1	6	6	0	0	6.8455357687E+01	-2.1926907622E+02	5.4839092366E+02	6.7758591258E+02	3.2500000000E+02	0.000E+00	0.0
	-14	1	6	6	0	0	-1.6813182090E+02	2.0879897070E+02	2.4713365352E+02	4.8843153263E+02	3.2500000000E+02	0.000E+00	0.0
	25	2	5	5	0	0	9.9676463212E+01	1.0470105518E+01	5.3676029173E+01	1.6909927417E+02	1.2517359142E+02	0.000E+00	0.0
	-5	1	9	9	0	501	3.6139446542E+00	-3.9308038590E+01	4.5699008302E+01	6.0531431947E+01	4.1800000000E+00	0.000E+00	0.0
	5	1	9	9	501	0	9.6062518558E+01	4.9778144108E+01	7.9770208709E+00	1.0856784222E+02	4.1800000000E+00	0.000E+00	0.0
</event>
<event>
    11  -1  1.0000000E+00  1.0000000E+00  -1.0000000E+00  -1.0000000E+00
	2212	-1	0	0	0	0	0.0000000000E+00	0.0000000000E+00	6.5000000000E+03	6.5000000000E+03	9.3827000000E-01	0.000E+00	0.0
	2212	-1	0	0	0	0	0.0000000000E+00	0.0000000000E+00	-6.5000000000E+03	6.5000000000E+03	9.3827000000E-01	0.000E+00	0.0
	2212	1	0	0	0	0	0.0000000000E+00	0.0000000000E+00	6.2252113655E+03	6.2252113655E+03	9.3827000000E-01	0.000E+00	0.0
	2212	1	0	0	0	0	0.0000000000E+00	0.0000000000E+00	-5.4831185177E+03	5.4831185177E+03	9.3827000000E-01	0.000E+00	0.0
	51	2	1	2	0	0	5.1650372061E+01	-6.1724741262E+01	-5.9067121964E+02	1.2137051084E+03	1.0572179982E+03	0.000E+00	0.0
	1000022	2	5	5	0	0	-5.1650372061E+01	6.1724741262E+01	-7.6242614699E+02	1.1414657286E+03	8.4567882524E+02	0.000E+00	0.0
	14	1	6	6	0	0	-7.8345564518E+01	-2.3459038289E+02	-3.4759303806E+02	5.3629897942E+02	3.2500000000E+02	0.000E+00	0.0
	-14	1	6	6	0	0	2.6695192457E+01	2.9631512415E+02	-4.1483310893E+02	6.0516674922E+02	3.2500000000E+02	0.000E+00	0.0
	25	2	5	5	0	0	5.1650372061E+01	-6.1724741262E+01	2.0333299162E+01	1.5020438814E+02	1.2518071155E+02	0.000E+00	0.0
	-5	1	9	9	0	501	7.3313578679E+01	-3.5732747624E+01	-3.2028774735E+01	8.7721290931E+01	4.1800000000E+00	0.000E+00	0.0
	5	1	9	9	501	0	-2.1663206618E+01	-2.5991993638E+01	5.2362073897E+01	6.2483097211E+01	4.1800000000E+00	0.000E+00	0.0
</event>
<event>
    11  -1  1.0000000E+00  1.0000000E+00  -1.0000000E+00  -1.0000000E+00
	2212	-1	0	0	0	0	0.0000000000E+00	0.0000000000E+00	6.5000000000E+03	6.5000000000E+03	9.3827000000E-01	0.000E+00	0.0
	2212	-1	0	0	0	0	0.0000000000E+00	0.0000000000E+00	-6.5000000000E+03	6.5000000000E+03	9.3827000000E-01	0.000E+00	0.0
	2212	1	0	0	0	0	0.0000000000E+00	0.0000000000E+00	5.9710720978E+03	5.9710720978E+03	9.3827000000E-01	0.000E+00	0.0
	2212	1	0	0	0	0	0.0000000000E+00	0.0000000000E+00	-5.9948484502E+03	5.9948484502E+03	9.3827000000E-01	0.000E+00	0.0
	51	2	1	2	0	0	1.1106865487E+02	2.7960672171E+01	5.7576524810E+01	1.0417236196E+03	1.0338060738E+03	0.000E+00	0.0
	1000022	2	5	5	0	0	-1.1106865487E+02	-2.7960672171E+01	-1.3843956288E+01	8.6029018478E+02	8.5251950220E+02	0.000E+00	0.0
	14	1	6	6	0	0	1.6349104078E+02	2.2158617714E+01	1.5989226690E+02	3.9800862022E+02	3.2500000000E+02	0.000E+00	0.0
	-14	1	6	6	0	0	-2.7455969565E+02	-5.0119289884E+01	-1.7373622318E+02	4.6228156457E+02	3.2500000000E+02	0.000E+00	0.0
	25	2	5	5	0	0	1.1106865487E+02	2.7960672171E+01	3.7620308694E+01	1.7378926727E+02	1.2517738019E+02	0.000E+00	0.0
	-5	1	9	9	0	501	-2.2635592716E+01	-1.6436155066E+01	1.6768803599E+00	2.8333753346E+01	4.1800000000E+00	0.000E+00	0.0
	5	1	9	9	501	0	1.3370424759E+02	4.4396827237E+01	3.5943428334E+01	1.4545551393E+02	4.1800000000E+00	0.000E+00	0.0
</event>
<event>
    11  -1  1.0000000E+00  1.0000000E+00  -1.0000000E+00  -1.0000000E+00
	2212	-1	0	0	0	0	0.0000000000E+00	0.0000000000E+00	6.5000000000E+03	6.5000000000E+03	9.3827000000E-01	0.000E+00	0.0
	2212	-1	0	0	0	0	0.0000000000E+00	0.0000000000E+00	-6.5000000000E+03	6.5000000000E+03	9.3827000000E-01	0.000E+00	0.0
	2212	1	0	0	0	0	0.0000000000E+00	0.0000000000E+00	5.7993522093E+03	5.7993522093E+03	9.3827000000E-01	0.000E+00	0.0
	2212	1	0	0	0	0	0.0000000000E+00	0.0000000000E+00	-6.1100449964E+03	6.1100449964E+03	9.3827000000E-01	0.000E+00	0.0
	51	2	1	2	0	0	-3.0474713257E+01	1.6284012421E+02	3.1175846761E+02	1.1034144295E+03	1.0454111377E+03	0.000E+00	0.0
	1000022	2	5	5	0	0	3.0474713257E+01	-1.6284012421E+02	2.5178835204E+02	8.7476389197E+02	8.2119965799E+02	0.000E+00	0.0
	14	1	6	6	0	0	2.6236522606E+01	6.2768896971E+01	-9.8481185450E+01	3.4634063209E+02	3.2500000000E+02	0.000E+00	0.0
	-14	1	6	6	0	0	4.2381906505E+00	-2.2560902118E+02	3.5026953749E+02	5.2842325989E+02	3.2500000000E+02	0.000E+00	0.0
	25	2	5	5	0	0	-3.0474713257E+01	1.6284012421E+02	5.8904435132E+01	2.1583890230E+02	1.2518420455E+02	0.000E+00	0.0
	-5	1	9	9	0	501	2.3441041644E+01	3.3622054570E+01	-2.9073500339E+01	5.0424853087E+01	4.1800000000E+00	0.000E+00	0.0
	5	1	9	9	501	0	-5.3915754901E+01	1.2921806964E+02	8.7977935471E+01	1.6541404922E+02	4.1800000000E+00	0.000E+00	0.0
</event>
<event>
    11  -1  1.0000000E+00  1.0000000E+00  -1.0000000E+00  -1.0000000E+00
	2212	-1	0	0	0	0	0.0000000000E+00	0.0000000000E+00	6.5000000000E+03	6.5000000000E+03	9.3827000000E-01	0.000E+00	0.0
	2212	-1	0	0	0	0	0.0000000000E+00	0.0000000000E+00	-6.5000000000E+03	6.5000000000E+03	9.3827000000E-01	0.000E+00	0.0
	2212	1	0	0	0	0	0.0000000000E+00	0.0000000000E+00	6.0488165922E+03	6.0488165922E+03	9.3827000000E-01	0.000E+00	0.0
	2212	1	0	0	0	0	0.0000000000E+00	0.0000000000E+00	-5.8906393952E+03	5.8906393952E+03	9.3827000000E-01	0.000E+00	0.0
	51	2	1	2	0	0	3.2122895791E+00	1.1859713796E+02	-2.2698437647E+02	1.0795050181E+03	1.0486818283E+03	0.000E+00	0.0
	1000022	2	5	5	0	0	-3.2122895791E+00	-1.1859713796E+02	-6.2803746948E+01	8.6346188911E+02	8.5296337752E+02	0.000E+00	0.0
	14	1	6	6	0	0	7.1269301026E+01	-2.8909504676E+02	-1.7236400007E+02	4.7327540381E+02	3.2500000000E+02	0.000E+00	0.0
	-14	1	6	6	0	0	-7.4481590605E+01	1.7049790881E+02	1.0956025312E+02	3.9018648530E+02	3.2500000000E+02	0.000E+00	0.0
	25	2	5	5	0	0	3.2122895791E+00	1.1859713796E+02	-9.5373450032E+01	1.9708212346E+02	1.2517854640E+02	0.000E+00	0.0
	-5	1	9	9	0	501	2.3793313219E+01	1.9435757244E+01	-9.0433361797E+01	9.5600919135E+01	4.1800000000E+00	0.000E+00	0.0
	5	1	9	9	501	0	-2.0581023640E+01	9.9161380711E+01	-4.9400882347E+00	1.0148120432E+02	4.1800000000E+00	0.000E+00	0.0
</event>
<event>
    11  -1  1.0000000E+00  1.0000000E+00  -1.0000000E+00  -1.0000000E+00
	2212	-1	0	0	0	0	0.0000000000E+00	0.0000000000E+00	6.5000000000E+03	6.5000000000E+03	9.3827000000E-01	0.000E+00	0.0
	2212	-1	0	0	0	0	0.0000000000E+00	0.0000000000E+00	-6.5000000000E+03	6.5000000000E+03	9.3827000000E-01	0.000E+00	0.0
	2212	1	0	0	0	0	0.0000000000E+00	0.0000000000E+00	6.3335179866E+03	6.3335179866E+03	9.3827000000E-01	0.000E+00	0.0
	2212	1	0	0	0	0	0.0000000000E+00	0.0000000000E+00	-4.8876192153E+03	4.8876192153E+03	9.3827000000E-01	0.000E+00	0.0
	51	2	1	2	0	0	7.8489246773E+01	-1.1851613880E+02	-1.6536501056E+03	1.9566540079E+03	1.0362092442E+03	0.000E+00	0.0
	1000022	2	5	5	0	0	-7.8489246773E+01	1.1851613880E+02	-9.5488943912E+02	1.2525844573E+03	7.9808980996E+02	0.000E+00	0.0
	14	1	6	6	0	0	3.8095565047E+01	-9.2661732030E+01	-1.9604508949E+02	3.9255081935E+02	3.2500000000E+02	0.000E+00	0.0
	-14	1	6	6	0	0	-1.1658481182E+02	2.1117787083E+02	-7.5884434963E+02	8.6003363797E+02	3.2500000000E+02	0.000E+00	0.0
	25	2	5	5	0	0	7.8489246773E+01	-1.1851613880E+02	-4.9100933217E+02	5.2627834083E+02	1.2518822123E+02	0.000E+00	0.0
	-5	1	9	9	0	501	-2.1188252023E+01	-7.7255617731E+01	-2.3950142888E+02	2.5257826377E+02	4.1800000000E+00	0.000E+00	0.0
	5	1	9	9	501	0	9.9677498796E+01	-4.1260521071E+01	-2.5150790329E+02	2.7370007706E+02	4.1800000000E+00	0.000E+00	0.0
</event>
<event>
    11  -1  1.0000000E+00  1.0000000E+00  -1.0000000E+00  -1.0000000E+00
	2212	-1	0	0	0	0	0.0000000000E+00	0.0000000000E+00	6.5000000000E+03	6.5000000000E+03	9.3827000000E-01	0.000E+00	0.0
	2212	-1	0	0	0	0	0.0000000000E+00	0.0000000000E+00	-6.5000000000E+03	6.5000000000E+03	9.3827000000E-01	0.000E+00	0.0
	2212	1	0	0	0	0	0.0000000000E+00	0.0000000000E+00	5.6404687773E+03	5.6404687773E+03	9.3827000000E-01	0.000E+00	0.0
	2212	1	0	0	0	0	0.0000000000E+00	0.0000000000E+00	-6.1842474948E+03	6.1842474948E+03	9.3827000000E-01	0.000E+00	0.0
	51	2	1	2	0	0	8.1857174253E+01	-5.0439841804E+01	6.4160872909E+02	1.2273968728E+03	1.0419196454E+03	0.000E+00	0.0
	1000022	2	5	5	0	0	-8.1857174253E+01	5.0439841804E+01	3.5687058977E+02	9.3064362846E+02	8.5410547987E+02	0.000E+00	0.0
	14	1	6	6	0	0	1.3805946442E+02	2.2860525505E+02	2.3919659477E+02	4.8390163184E+02	3.2500000000E+02	0.000E+00	0.0
	-14	1	6	6	0	0	-2.1991663867E+02	-1.7816541325E+02	1.1767399500E+02	4.4674199662E+02	3.2500000000E+02	0.000E+00	0.0
	25	2	5	5	0	0	8.1857174253E+01	-5.0439841804E+01	1.8690812775E+02	2.4464009947E+02	1.2517729599E+02	0.000E+00	0.0
	-5	1	9	9	0	501	-4.8342183491E-01	-2.9070901572E+01	-9.2447449885E+00	3.0794296952E+01	4.1800000000E+00	0.000E+00	0.0
	5	1	9	9	501	0	8.2340596088E+01	-2.1368940232E+01	1.9615287274E+02	2.1384580252E+02	4.1800000000E+00	0.000E+00	0.0
</event>
<event>
    11  -1  1.0000000E+00  1.0000000E+00  -1.0000000E+00  -1.0000000E+00
	2212	-1	0	0	0	0	0.0000000000E+00	0.0000000000E+00	6.5000000000E+03	6.5000000000E+03	9.3827000000E-01	0.000E+00	0.0
	2212	-1	0	0	0	0	0.0000000000E+00	0.0000000000E+00	-6.5000000000E+03	6.5000000000E+03	9.3827000000E-01	0.000E+00	0.0
	2212	1	0	0	0	0	0.0000000000E+00	0.0000000000E+00	4.9331026162E+03	4.9331026162E+03	9.3827000000E-01	0.000E+00	0.0
	2212	1	0	0	0	0	0.0000000000E+00	0.0000000000E+00	-6.3226177777E+03	6.3226177777E+03	9.3827000000E-01	0.000E+00	0.0
	51	2	1	2	0	0	-8.9173028464E+01	1.0489692583E+02	1.4827268660E+03	1.8246076601E+03	1.0543998103E+03	0.000E+00	0.0
	1000022	2	5	5	0	0	8.9173028464E+01	-1.0489692583E+02	1.0561871662E+03	1.3625299045E+03	8.4970654740E+02	0.000E+00	0.0
	14	1	6	6	0	0	-1.7617373068E+02	1.8416266202E+01	2.5406517695E+02	4.4894371182E+02	3.2500000000E+02	0.000E+00	0.0
	-14	1	6	6	0	0	2.6534675914E+02	-1.2331319203E+02	8.0212198924E+02	9.1358619272E+02	3.2500000000E+02	0.000E+00	0.0
	25	2	5	5	0	0	-8.9173028464E+01	1.0489692583E+02	3.3332799533E+02	3.8174970152E+02	1.2518022244E+02	0.000E+00	0.0
	-5	1	9	9	0	501	-1.5413927803E+01	9.2936494989E+01	2.6164255122E+02	2.7811702263E+02	4.1800000000E+00	0.000E+00	0.0
	5	1	9	9	501	0	-7.3759100661E+01	1.1960430837E+01	7.1685444111E+01	1.0363267889E+02	4.1800000000E+00	0.000E+00	0.0
</event>
<event>
    11  -1  1.0000000E+00  1.0000000E+00  -1.0000000E+00  -1.0000000E+00
	2212	-1	0	0	0	0	0.0000000000E+00	0.0000000000E+00	6.5000000000E+03	6.5000000000E+03	9.3827000000E-01	0.000E+00	0.0
	2212	-1	0	0	0	0	0.0000000000E+00	0.0000000000E+00	-6.5000000000E+03	6.5000000000E+03	9.3827000000E-01	0.000E+00	0.0
	2212	1	0	0	0	0	0.0000000000E+00	0.0000000000E+00	6.2714310377E+03	6.2714310377E+03	9.3827000000E-01	0.000E+00	0.0
	2212	1	0	0	0	0	0.0000000000E+00	0.0000000000E+00	-5.2785307258E+03	5.2785307258E+03	9.3827000000E-01	0.000E+00	0.0
	51	2	1	2	0	0	-1.0578989962E+02	9.8060917674E+01	-1.0629495291E+03	1.5057984612E+03	1.0567685924E+03	0.000E+00	0.0
	1000022	2	5	5	0	0	1.0578989962E+02	-9.8060917674E+01	-7.4881030675E+02	1.1401076844E+03	8.4753832370E+02	0.000E+00	0.0
	14	1	6	6	0	0	7.1287067950E+01	3.6179416544E+01	-7.0966135491E+02	7.8462413606E+02	3.2500000000E+02	0.000E+00	0.0
	-14	1	6	6	0	0	3.4502831668E+01	-1.3424033422E+02	-3.9148951840E+01	3.5548354836E+02	3.2500000000E+02	0.000E+00	0.0
	25	2	5	5	0	0	-1.0578989962E+02	9.8060917674E+01	-2.4409000519E+02	3.0993055205E+02	1.2517815314E+02	0.000E+00	0.0
	-5	1	9	9	0	501	-6.8500735588E+01	1.1656711467E+02	-1.2682176177E+02	1.8542242221E+02	4.1800000000E+00	0.000E+00	0.0
	5	1	9	9	501	0	-3.7289164031E+01	-1.8506196999E+01	-1.1726824343E+02	1.2450812985E+02	4.1800000000E+00	0.000E+00	0.0
</event>
<event>
    11  -1  1.0000000E+00  1.0000000E+00  -1.0000000E+00  -1.0000000E+00
	2212	-1	0	0	0	0	0.0000000000E+00	0.0000000000E+00	6.5000000000E+03	6.5000000000E+03	9.3827000000E-01	0.000E+00	0.0
	2212	-1	0	0	0	0	0.0000000000E+00	0.0000000000E+00	-6.5000000000E+03	6.5000000000E+03	9.3827000000E-01	0.000E+00	0.0
	2212	1	0	0	0	0	0.0000000000E+00	0.0000000000E+00	6.2909057537E+03	6.2909057537E+03	9.3827000000E-01	0.000E+00	0.0
	2212	1	0	0	0	0	0.0000000000E+00	0.0000000000E+00	-5.2006975809E+03	5.2006975809E+03	9.3827000000E-01	0.000E+00	0.0
	51	2	1	2	0	0	8.6111931489E+01	8.9246641458E+01	-1.2103841965E+03	1.6022224473E+03	1.0424522243E+03	0.000E+00	0.0
	1000022	2	5	5	0	0	-8.6111931489E+01	-8.9246641458E+01	-7.7997425386E+02	1.1516094576E+03	8.3813142072E+02	0.000E+00	0.0
	14	1	6	6	0	0	-1.0799565224E+02	8.6872913570E+01	-6.8275791516E+02	7.6876090869E+02	3.2500000000E+02	0.000E+00	0.0
	-14	1	6	6	0	0	2.1883720748E+01	-1.7611955503E+02	-9.7216338700E+01	3.8284854892E+02	3.2500000000E+02	0.000E+00	0.0
	25	2	5	5	0	0	8.6111931489E+01	8.9246641458E+01	-3.1023391893E+02	3.5678720772E+02	1.2518705756E+02	0.000E+00	0.0
	-5	1	9	9	0	501	8.4434605740E+01	2.7396401331E+00	-1.9560085317E+02	2.1310531302E+02	4.1800000000E+00	0.000E+00	0.0
	5	1	9	9	501	0	1.6773257496E+00	8.6507001325E+01	-1.1463306576E+02	1.4368189470E+02	4.1800000000E+00	0.000E+00	0.0
</event>
<event>
    11  -1  1.0000000E+00  1.0000000E+00  -1.0000000E+00  -1.0000000E+00
	2212	-1	0	0	0	0	0.0000000000E+00	0.0000000000E+00	6.5000000000E+03	6.5000000000E+03	9.3827000000E-01	0.000E+00	0.0
	2212	-1	0	0	0	0	0.0000000000E+00	0.0000000000E+00	-6.5000000000E+03	6.5000000000E+03	9.3827000000E-01	0.000E+00	0.0
	2212	1	0	0	0	0	0.0000000000E+00	0.0000000000E+00	5.2735602045E+03	5.2735602045E+03	9.3827000000E-01	0.000E+00	0.0
	2212	1	0	0	0	0	0.0000000000E+00	0.0000000000E+00	-6.2724157357E+03	6.2724157357E+03	9.3827000000E-01	0.000E+00	0.0
	51	2	1	2	0	0	-1.2760675013E+02	-7.6956975107E+01	9.9692512440E+02	1.4603215936E+03	1.0566331408E+03	0.000E+00	0.0
	1000022	2	5	5	0	0	1.2760675013E+02	7.6956975107E+01	8.2654517959E+02	1.1940859874E+03	8.4879829922E+02	0.000E+00	0.0
	14	1	6	6	0	0	2.1216574260E+02	4.3320722686E+01	7.5361714493E+02	8.4879608180E+02	3.2500000000E+02	0.000E+00	0.0
	-14	1	6	6	0	0	-8.4558992471E+01	3.3636252421E+01	7.2928034661E+01	3.4528990562E+02	3.2500000000E+02	0.000E+00	0.0
	25	2	5	5	0	0	-1.2760675013E+02	-7.6956975107E+01	1.7231035162E+02	2.5993807240E+02	1.2518420632E+02	0.000E+00	0.0
	-5	1	9	9	0	501	-4.4895798256E+01	-8.1024492551E+01	3.4165647179E+01	9.8819861067E+01	4.1800000000E+00	0.000E+00	0.0
	5	1	9	9	501	0	-8.2710951874E+01	4.0675174442E+00	1.3814470445E+02	1.6111821134E+02	4.1800000000E+00	0.000E+00	0.0
</event>
<event>
    11  -1  1.0000000E+00  1.0000000E+00  -1.0000000E+00  -1.0000000E+00
	2212	-1	0	0	0	0	0.0000000000E+00	0.0000000000E+00	6.5000000000E+03	6.5000000000E+03	9.3827000000E-01	0.000E+00	0.0
	2212	-1	0	0	0	0	0.0000000000E+00	0.0000000000E+00	-6.5000000000E+03	6.5000000000E+03	9.3827000000E-01	0.000E+00	0.0
	2212	1	0	0	0	0	0.0000000000E+00	0.0000000000E+00	6.1538878157E+03	6.1538878157E+03	9.3827000000E-01	0.000E+00	0.0
	2212	1	0	0	0	0	0.0000000000E+00	0.0000000000E+00	-5.6819105818E+03	5.6819105818E+03	9.3827000000E-01	0.000E+00	0.0
	51	2	1	2	0	0	-3.2793425157E+00	-9.1272414950E+01	-6.1873833321E+02	1.2344154060E+03	1.0642381603E+03	0.000E+00	0.0
	1000022	2	5	5	0	0	3.2793425157E+00	9.1272414950E+01	-2.4088121940E+02	8.8596326650E+02	8.4768257025E+02	0.000E+00	0.0
	14	1	6	6	0	0	1.1284823940E+02	1.1952682620E+02	-3.6927051361E+02	5.1865894337E+02	3.2500000000E+02	0.000E+00	0.0
	-14	1	6	6	0	0	-1.0956889688E+02	-2.8254411247E+01	1.2838929421E+02	3.6730432313E+02	3.2500000000E+02	0.000E+00	0.0
	25	2	5	5	0	0	-3.2793425157E+00	-9.1272414950E+01	-2.3109601449E+02	2.7823833597E+02	1.2517905524E+02	0.000E+00	0.0
	-5	1	9	9	0	501	1.2586485102E+01	-8.5778712274E+01	-2.4246640487E+02	2.5753414720E+02	4.1800000000E+00	0.000E+00	0.0
	5	1	9	9	501	0	-1.5865827617E+01	-5.4937026761E+00	1.1370390378E+01	2.0704188765E+01	4.1800000000E+00	0.000E+00	0.0
</event>
<event>
    11  -1  1.0000000E+00  1.0000000E+00  -1.0000000E+00  -1.0000000E+00
	2212	-1	0	0	0	0	0.0000000000E+00	0.0000000000E+00	6.5000000000E+03	6.5000000000E+03	9.3827000000E-01	0.000E+00	0.0
	2212	-1	0	0	0	0	0.0000000000E+00	0.0000000000E+00	-6.5000000000E+03	6.5000000000E+03	9.3827000000E-01	0.000E+00	0.0
	2212	1	0	0	0	0	0.0000000000E+00	0.0000000000E+00	5.1785184428E+03	5.1785184428E+03	9.3827000000E-01	0.000E+00	0.0
	2212	1	0	0	0	0	0.0000000000E+00	0.0000000000E+00	-6.2805238649E+03	6.2805238649E+03	9.3827000000E-01	0.000E+00	0.0
	51	2	1	2	0	0	4.7044202323E+01	-1.4119709638E+02	1.1611617883E+03	1.5907800397E+03	1.0770954736E+03	0.000E+00	0.0
	1000022	2	5	5	0	0	-4.7044202323E+01	1.4119709638E+02	8.5186028448E+02	1.2240716712E+03	8.6633465531E+02	0.000E+00	0.0
	14	1	6	6	0	0	9.6468831884E+01	-1.2357649025E+02	1.4303048712E+02	3.8814959064E+02	3.2500000000E+02	0.000E+00	0.0
	-14	1	6	6	0	0	-1.4351303421E+02	2.6477358663E+02	7.0882979735E+02	8.3592208057E+02	3.2500000000E+02	0.000E+00	0.0
	25	2	5	5	0	0	4.7044202323E+01	-1.4119709638E+02	2.5014513764E+02	3.1688602116E+02	1.2527722666E+02	0.000E+00	0.0
	-5	1	9	9	0	501	1.5862207618E+01	-4.8862507442E+01	3.5110842757E+00	5.1661923859E+01	4.1800000000E+00	0.000E+00	0.0
	5	1	9	9	501	0	3.1181994705E+01	-9.2334588943E+01	2.4663405336E+02	2.6522409730E+02	4.1800000000E+00	0.000E+00	0.0
</event>
<event>
    11  -1  1.0000000E+00  1.0000000E+00  -1.0000000E+00  -1.0000000E+00
	2212	-1	0	0	0	0	0.0000000000E+00	0.0000000000E+00	6.5000000000E+03	6.5000000000E+03	9.3827000000E-01	0.000E+00	0.0
	2212	-1	0	0	0	0	0.0000000000E+00	0.0000000000E+00	-6.5000000000E+03	6.5000000000E+03	9.3827000000E-01	0.000E+00	0.0
	2212	1	0	0	0	0	0.0000000000E+00	0.0000000000E+00	4.9737595369E+03	4.9737595369E+03	9.3827000000E-01	0.000E+00	0.0
	2212	1	0	0	0	0	0.0000000000E+00	0.0000000000E+00	-6.3142417719E+03	6.3142417719E+03	9.3827000000E-01	0.000E+00	0.0
	51	2	1	2	0	0	4.8758141708E+00	-1.6735161107E+02	1.3283451582E+03	1.7107244346E+03	1.0649163800E+03	0.000E+00	0.0
	1000022	2	5	5	0	0	-4.8758141708E+00	1.6735161107E+02	1.1051693674E+03	1.3972419183E+03	8.3836466548E+02	0.000E+00	0.0
	14	1	6	6	0	0	-1.6719222320E+02	2.5018313203E+02	8.0488072320E+02	9.1869625972E+02	3.2500000000E+02	0.000E+00	0.0
	-14	1	6	6	0	0	1.6231640903E+02	-8.2831520963E+01	3.0028864419E+02	4.7854565857E+02	3.2500000000E+02	0.000E+00	0.0
	25	2	5	5	0	0	4.8758141708E+00	-1.6735161107E+02	2.3531286757E+02	3.1475677291E+02	1.2517725496E+02	0.000E+00	0.0
	-5	1	9	9	0	501	3.9942946372E+01	-3.8189282838E+00	3.2232363358E+01	5.1637397550E+01	4.1800000000E+00	0.000E+00	0.0
	5	1	9	9	501	0	-3.5067132202E+01	-1.6353268279E+02	2.0308050421E+02	2.6311937536E+02	4.1800000000E+00	0.000E+00	0.0
</event>
<event>
    11  -1  1.0000000E+00  1.0000000E+00  -1.0000000E+00  -1.0000000E+00
	2212	-1	0	0	0	0	0.0000000000E+00	0.0000000000E+00	6.5000000000E+03	6.5000000000E+03	9.3827000000E-01	0.000E+00	0.0
	2212	-1	0	0	0	0	0.0000000000E+00	0.0000000000E+00	-6.5000000000E+03	6.5000000000E+03	9.3827000000E-01	0.000E+00	0.0
	2212	1	0	0	0	0	0.0000000000E+00	0.0000000000E+00	4.8640579073E+03	4.8640579073E+03	9.3827000000E-01	0.000E+00	0.0
	2212	1	0	0	0	0	0.0000000000E+00	0.0000000000E+00	-6.3282075016E+03	6.3282075016E+03	9.3827000000E-01	0.000E+00	0.0
	51	2	1	2	0	0	-1.2724058245E+02	7.0078909213E+01	1.4371732759E+03	1.7918533874E+03	1.0602689836E+03	0.000E+00	0.0
	1000022	2	5	5	0	0	1.2724058245E+02	-7.0078909213E+01	1.2382984633E+03	1.5114585347E+03	8.5441359929E+02	0.000E+00	0.0
	14	1	6	6	0	0	2.8526250215E+02	-1.5359914725E+02	8.9627883335E+02	1.0069300573E+03	3.2500000000E+02	0.000E+00	0.0
	-14	1	6	6	0	0	-1.5802191970E+02	8.3520238039E+01	3.4201962993E+02	5.0452847742E+02	3.2500000000E+02	0.000E+00	0.0
	25	2	5	5	0	0	-1.2724058245E+02	7.0078909213E+01	2.2585113102E+02	2.9627605644E+02	1.2517806877E+02	0.000E+00	0.0
	-5	1	9	9	0	501	2.0072608358E+01	-9.0930861112E+00	4.2624534324E+01	4.8165518243E+01	4.1800000000E+00	0.000E+00	0.0
	5	1	9	9	501	0	-1.4731319080E+02	7.9171995325E+01	1.8322659670E+02	2.4811053820E+02	4.1800000000E+00	0.000E+00	0.0
</event>
<event>
    11  -1  1.0000000E+00  1.0000000E+00  -1.0000000E+00  -1.0000000E+00
	2212	-1	0	0	0	0	0.0000000000E+00	0.0000000000E+00	6.5000000000E+03	6.5000000000E+03	9.3827000000E-01	0.000E+00	0.0
	2212	-1	0	0	0	0	0.0000000000E+00	0.0000000000E+00	-6.5000000000E+03	6.5000000000E+03	9.3827000000E-01	0.000E+00	0.0
	2212	1	0	0	0	0	0.0000000000E+00	0.0000000000E+00	6.1741767851E+03	6.1741767851E+03	9.3827000000E-01	0.000E+00	0.0
	2212	1	0	0	0	0	0.0000000000E+00	0.0000000000E+00	-5.6501182047E+03	5.6501182047E+03	9.3827000000E-01	0.000E+00	0.0
	51	2	1	2	0	0	1.2261189249E+01	-8.7480368066E+01	-4.1174563526E+02	1.1335706837E+03	1.0524470890E+03	0.000E+00	0.0
	1000022	2	5	5	0	0	-1.2261189249E+01	8.7480368066E+01	-5.4844118317E+02	1.0205710389E+03	8.5613921907E+02	0.000E+00	0.0
	14	1	6	6	0	0	-2.3839382447E+02	-1.0662684351E+02	-2.2541948470E+02	4.7396185857E+02	3.2500000000E+02	0.000E+00	0.0
	-14	1	6	6	0	0	2.2613263522E+02	1.9410721157E+02	-3.2302169848E+02	5.4660918030E+02	3.2500000000E+02	0.000E+00	0.0
	25	2	5	5	0	0	1.2261189249E+01	-8.7480368066E+01	2.4382602775E+01	1.5513397127E+02	1.2517542156E+02	0.000E+00	0.0
	-5	1	9	9	0	501	3.3594511027E+01	-3.1823499688E+01	6.7147553216E+01	8.1655328096E+01	4.1800000000E+00	0.000E+00	0.0
	5	1	9	9	501	0	-2.1333321778E+01	-5.5656868378E+01	-4.2764950442E+01	7.3478643169E+01	4.1800000000E+00	0.000E+00	0.0
</event>
<event>
    11  -1  1.0000000E+00  1.0000000E+00  -1.0000000E+00  -1.0000000E+00
	2212	-1	0	0	0	0	0.0000000000E+00	0.0000000000E+00	6.5000000000E+03	6.5000000000E+03	9.3827000000E-01	0.000E+00	0.0
	2212	-1	0	0	0	0	0.0000000000E+00	0.0000000000E+00	-6.5000000000E+03	6.5000000000E+03	9.3827000000E-01	0.000E+00	0.0
	2212	1	0	0	0	0	0.0000000000E+00	0.0000000000E+00	6.0728171980E+03	6.0728171980E+03	9.3827000000E-01	0.000E+00	0.0
	2212	1	0	0	0	0	0.0000000000E+00	0.0000000000E+00	-5.8529384648E+03	5.8529384648E+03	9.3827000000E-01	0.000E+00	0.0
	51	2	1	2	0	0	-2.4517984906E+01	-4.7760628283E+01	-8.7123448835E+01	1.0564690925E+03	1.0515009457E+03	0.000E+00	0.0
	1000022	2	5	5	0	0	2.4517984906E+01	4.7760628283E+01	-3.1499225014E+02	9.0811614202E+02	8.5004270514E+02	0.000E+00	0.0
	14	1	6	6	0	0	1.8289003304E+02	1.9701772782E+02	-2.9835750342E+02	5.1663037958E+02	3.2500000000E+02	0.000E+00	0.0
	-14	1	6	6	0	0	-1.5837204814E+02	-1.4925709954E+02	-1.6634746723E+01	3.9148576244E+02	3.2500000000E+02	0.000E+00	0.0
	25	2	5	5	0	0	-2.4517984906E+01	-4.7760628283E+01	9.5113516982E+01	1.6612819522E+02	1.2517901955E+02	0.000E+00	0.0
	-5	1	9	9	0	501	-5.7604397637E-01	-5.5743765282E+01	-1.0999535938E+01	5.6975094430E+01	4.1800000000E+00	0.000E+00	0.0
	5	1	9	9	501	0	-2.3941940930E+01	7.9831369992E+00	1.0611305292E+02	1.0915310079E+02	4.1800000000E+00	0.000E+00	0.0
</event>
<event>
    11  -1  1.0000000E+00  1.0000000E+00  -1.0000000E+00  -1.0000000E+00
	2212	-1	0	0	0	0	0.0000000000E+00	0.0000000000E+00	6.5000000000E+03	6.5000000000E+03	9.3827000000E-01	0.000E+00	0.0
	2212	-1	0	0	0	0	0.0000000000E+00	0.0000000000E+00	-6.5000000000E+03	6.5000000000E+03	9.3827000000E-01	0.000E+00	0.0
	2212	1	0	0	0	0	0.0000000000E+00	0.0000000000E+00	6.2064970932E+03	6.2064970932E+03	9.3827000000E-01	0.000E+00	0.0
	2212	1	0	0	0	0	0.0000000000E+00	0.0000000000E+00	-5.6084338627E+03	5.6084338627E+03	9.3827000000E-01	0.000E+00	0.0
	51	2	1	2	0	0	-3.4724460320E+01	2.9138719873E+01	-7.2899444100E+02	1.2570587733E+03	1.0230879784E+03	0.000E+00	0.0
	1000022	2	5	5	0	0	3.4724460320E+01	-2.9138719873E+01	-3.7034292606E+02	9.2129063222E+02	8.4235841124E+02	0.000E+00	0.0
	14	1	6	6	0	0	-2.1706039151E+02	-1.0914152074E+02	-2.7949956247E+02	4.9271907872E+02	3.2500000000E+02	0.000E+00	0.0
	-14	1	6	6	0	0	2.5178485183E+02	8.0002800866E+01	-9.0843363596E+01	4.2857155350E+02	3.2500000000E+02	0.000E+00	0.0
	25	2	5	5	0	0	-3.4724460320E+01	2.9138719873E+01	-2.2772030445E+02	2.6377841183E+02	1.2517052508E+02	0.000E+00	0.0
	-5	1	9	9	0	501	-2.3802751150E+01	5.2934517453E+01	-2.2992367943E+02	2.3717294294E+02	4.1800000000E+00	0.000E+00	0.0
	5	1	9	9	501	0	-1.0921709170E+01	-2.3795797580E+01	2.2033749796E+00	2.6605468892E+01	4.1800000000E+00	0.000E+00	0.0
</event>
<event>
    11  -1  1.0000000E+00  1.0000000E+00  -1.0000000E+00  -1.0000000E+00
	2212	-1	0	0	0	0	0.0000000000E+00	0.0000000000E+00	6.5000000000E+03	6.5000000000E+03	9.3827000000E-01	0.000E+00	0.0
	2212	-1	0	0	0	0	0.0000000000E+00	0.0000000000E+00	-6.5000000000E+03	6.5000000000E+03	9.3827000000E-01	0.000E+00	0.0
	2212	1	0	0	0	0	0.0000000000E+00	0.0000000000E+00	5.3437304901E+03	5.3437304901E+03	9.3827000000E-01	0.000E+00	0.0
	2212	1	0	0	0	0	0.0000000000E+00	0.0000000000E+00	-6.2576488660E+03	6.2576488660E+03	9.3827000000E-01	0.000E+00	0.0
	51	2	1	2	0	0	-2.9932049571E+01	-8.5462583323E+01	9.1304672933E+02	1.4009807345E+03	1.0587222996E+03	0.000E+00	0.0
	1000022	2	5	5	0	0	2.9932049571E+01	8.5462583323E+01	7.8491315626E+02	1.1975026870E+03	8.9984678796E+02	0.000E+00	0.0
	14	1	6	6	0	0	2.9941073147E+02	-7.6547569721E+01	3.3668142750E+02	5.6079024614E+02	3.2500000000E+02	0.000E+00	0.0
	-14	1	6	6	0	0	-2.6947868190E+02	1.6201015304E+02	4.4823172877E+02	6.3671244087E+02	3.2500000000E+02	0.000E+00	0.0
	25	2	5	5	0	0	-2.9932049571E+01	-8.5462583323E+01	1.2900521970E+02	2.0111795691E+02	1.2492519818E+02	0.000E+00	0.0
	-5	1	9	9	0	501	-1.5445649491E+01	-1.1714457288E+02	1.0854175656E+02	1.6049985782E+02	4.1800000000E+00	0.000E+00	0.0
	5	1	9	9	501	0	-1.4486400080E+01	3.1681989558E+01	2.0463463145E+01	4.0618099088E+01	4.1800000000E+00	0.000E+00	0.0
</event>
<event>
    11  -1  1.0000000E+00  1.0000000E+00  -1.0000000E+00  -1.0000000E+00
	2212	-1	0	0	0	0	0.0000000000E+00	0.0000000000E+00	6.5000000000E+03	6.5000000000E+03	9.3827000000E-01	0.000E+00	0.0
	2212	-1	0	0	0	0	0.0000000000E+00	0.0000000000E+00	-6.5000000000E+03	6.5000000000E+03	9.3827000000E-01	0.000E+00	0.0
	2212	1	0	0	0	0	0.0000000000E+00	0.0000000000E+00	6.1570676009E+03	6.1570676009E+03	9.3827000000E-01	0.000E+00	0.0
	2212	1	0	0	0	0	0.0000000000E+00	0.0000000000E+00	-5.6548037569E+03	5.6548037569E+03	9.3827000000E-01	0.000E+00	0.0
	51	2	1	2	0	0	-4.0193229022E+01	1.3949588541E+02	-3.9193828688E+02	1.1550198786E+03	1.0767454209E+03	0.000E+00	0.0
	1000022	2	5	5	0	0	4.0193229022E+01	-1.3949588541E+02	-5.1730198967E+02	9.9583057207E+02	8.3845249243E+02	0.000E+00	0.0
	14	1	6	6	0	0	-2.2933398822E+02	-6.6060185159E+01	-1.4612165170E+02	4.2887592997E+02	3.2500000000E+02	0.000E+00	0.0
	-14	1	6	6	0	0	2.6952721724E+02	-7.3435700253E+01	-3.7118033797E+02	5.6695464210E+02	3.2500000000E+02	0.000E+00	0.0
	25	2	5	5	0	0	-4.0193229022E+01	1.3949588541E+02	1.5038145653E+01	1.9229807018E+02	1.2521103891E+02	0.000E+00	0.0
	-5	1	9	9	0	501	1.0707841661E+01	4.8277062926E+01	6.0540879717E+01	7.8281563568E+01	4.1800000000E+00	0.000E+00	0.0
	5	1	9	9	501	0	-5.0901070683E+01	9.1218822486E+01	-4.5502734064E+01	1.1401650661E+02	4.1800000000E+00	0.000E+00	0.0
</event>
<event>
    11  -1  1.0000000E+00  1.0000000E+00  -1.0000000E+00  -1.0000000E+00
	2212	-1	0	0	0	0	0.0000000000E+00	0.0000000000E+00	6.5000000000E+03	6.5000000000E+03	9.3827000000E-01	0.000E+00	0.0
	2212	-1	0	0	0	0	0.0000000000E+00	0.0000000000E+00	-6.5000000000E+03	6.5000000000E+03	9.3827000000E-01	0.000E+00	0.0
	2212	1	0	0	0	0	0.0000000000E+00	0.0000000000E+00	5.6847648275E+03	5.6847648275E+03	9.3827000000E-01	0.000E+00	0.0
	2212	1	0	0	0	0	0.0000000000E+00	0.0000000000E+00	-6.1708385002E+03	6.1708385002E+03	9.3827000000E-01	0.000E+00	0.0
	51	2	1	2	0	0	3.0879956119E+01	3.0852632458E+00	3.5448669054E+02	1.0954451299E+03	1.0360386712E+03	0.000E+00	0.0
	1000022	2	5	5	0	0	-3.0879956119E+01	-3.0852632458E+00	5.3784376567E+02	1.0054298237E+03	8.4891113992E+02	0.000E+00	0.0
	14	1	6	6	0	0	7.6911417376E+01	-5.8616659000E+01	-2.9586448994E+01	3.4036985295E+02	3.2500000000E+02	0.000E+00	0.0
	-14	1	6	6	0	0	-1.0779137349E+02	5.5531395754E+01	5.6743021466E+02	6.6505997070E+02	3.2500000000E+02	0.000E+00	0.0
	25	2	5	5	0	0	3.0879956119E+01	3.0852632458E+00	-5.1770092895E+01	1.3896684867E+02	1.2517408666E+02	0.000E+00	0.0
	-5	1	9	9	0	501	-1.2630890803E+01	3.3604084601E+01	2.6110860781E+01	4.4587255523E+01	4.1800000000E+00	0.000E+00	0.0
	5	1	9	9	501	0	4.3510846921E+01	-3.0518821355E+01	-7.7880953676E+01	9.4379593145E+01	4.1800000000E+00	0.000E+00	0.0
</event>
<event>
    11  -1  1.0000000E+00  1.0000000E+00  -1.0000000E+00  -1.0000000E+00
	2212	-1	0	0	0	0	0.0000000000E+00	0.0000000000E+00	6.5000000000E+03	6.5000000000E+03	9.3827000000E-01	0.000E+00	0.0
	2212	-1	0	0	0	0	0.0000000000E+00	0.0000000000E+00	-6.5000000000E+03	6.5000000000E+03	9.3827000000E-01	0.000E+00	0.0
	2212	1	0	0	0	0	0.0000000000E+00	0.0000000000E+00	5.3868617167E+03	5.3868617167E+03	9.3827000000E-01	0.000E+00	0.0
	2212	1	0	0	0	0	0.0000000000E+00	0.0000000000E+00	-6.2607702960E+03	6.2607702960E+03	9.3827000000E-01	0.000E+00	0.0
	51	2	1	2	0	0	-5.5336574025E+01	-5.6056250834E+01	7.6840477639E+02	1.2891211379E+03	1.0320770165E+03	0.000E+00	0.0
	1000022	2	5	5	0	0	5.5336574025E+01	5.6056250834E+01	8.4055931477E+02	1.2007405948E+03	8.5383462964E+02	0.000E+00	0.0
	14	1	6	6	0	0	-1.8812078281E+02	1.0586395715E+02	1.9427763735E+02	4.3585021134E+02	3.2500000000E+02	0.000E+00	0.0
	-14	1	6	6	0	0	2.4345735683E+02	-4.9807706315E+01	6.4628167743E+02	7.6489038351E+02	3.2500000000E+02	0.000E+00	0.0
	25	2	5	5	0	0	-5.5336574025E+01	-5.6056250834E+01	3.3349264576E+01	1.5162739245E+02	1.2519685704E+02	0.000E+00	0.0
	-5	1	9	9	0	501	-5.6823936307E+01	1.0789709032E+01	-2.4654110850E+01	6.3013293361E+01	4.1800000000E+00	0.000E+00	0.0
	5	1	9	9	501	0	1.4873622813E+00	-6.6845959866E+01	5.8003375426E+01	8.8614099091E+01	4.1800000000E+00	0.000E+00	0.0
</event>
<event>
    11  -1  1.0000000E+00  1.0000000E+00  -1.0000000E+00  -1.0000000E+00
	2212	-1	0	0	0	0	0.0000000000E+00	0.0000000000E+00	6.5000000000E+03	6.5000000000E+03	9.3827000000E-01	0.000E+00	0.0
	2212	-1	0	0	0	0	0.0000000000E+00	0.0000000000E+00	-6.5000000000E+03	6.5000000000E+03	9.3827000000E-01	0.000E+00	0.0
	2212	1	0	0	0	0	0.0000000000E+00	0.0000000000E+00	6.3191454252E+03	6.3191454252E+03	9.3827000000E-01	0.000E+00	0.0
	2212	1	0	0	0	0	0.0000000000E+00	0.0000000000E+00	-4.9745519003E+03	4.9745519003E+03	9.3827000000E-01	0.000E+00	0.0
	51	2	1	2	0	0	6.9517673208E+01	4.5063952994E+00	-1.1697755257E+03	1.5737740831E+03	1.0504937267E+03	0.000E+00	0.0
	1000022	2	5	5	0	0	-6.9517673208E+01	-4.5063952994E+00	-1.2956898227E+03	1.5549261820E+03	8.5681404064E+02	0.000E+00	0.0
	14	1	6	6	0	0	-9.8520105803E+01	-2.2482513681E+02	-9.3959444258E+02	1.0240680006E+03	3.2500000000E+02	0.000E+00	0.0
	-14	1	6	6	0	0	2.9002432595E+01	2.2031874151E+02	-3.5609538016E+02	5.3085818137E+02	3.2500000000E+02	0.000E+00	0.0
	25	2	5	5	0	0	6.9517673208E+01	4.5063952994E+00	-4.8903702188E+01	1.5137649250E+02	1.2518089274E+02	0.000E+00	0.0
	-5	1	9	9	0	501	7.5346316835E+01	-1.7690716862E+01	-8.0731540646E+01	1.1191551715E+02	4.1800000000E+00	0.000E+00	0.0
	5	1	9	9	501	0	-5.8286436275E+00	2.2197112161E+01	3.1827838458E+01	3.9460975352E+01	4.1800000000E+00	0.000E+00	0.0
</event>
<event>
    11  -1  1.0000000E+00  1.0000000E+00  -1.0000000E+00  -1.0000000E+00
	2212	-1	0	0	0	0	0.0000000000E+00	0.0000000000E+00	6.5000000000E+03	6.5000000000E+03	9.3827000000E-01	0.000E+00	0.0
	2212	-1	0	0	0	0	0.0000000000E+00	0.0000000000E+00	-6.5000000000E+03	6.5000000000E+03	9.3827000000E-01	0.000E+00	0.0
	2212	1	0	0	0	0	0.0000000000E+00	0.0000000000E+00	6.1932830188E+03	6.1932830188E+03	9.3827000000E-01	0.000E+00	0.0
	2212	1	0	0	0	0	0.0000000000E+00	0.0000000000E+00	-5.3369291398E+03	5.3369291398E+03	9.3827000000E-01	0.000E+00	0.0
	51	2	1	2	0	0	-5.0698078268E+01	-9.3650035126E+00	-5.3889383638E+02	1.3114872847E+03	1.1945435667E+03	0.000E+00	0.0
	1000022	2	5	5	0	0	5.0698078268E+01	9.3650035126E+00	-9.7622700994E+02	1.2889635953E+03	8.4008926701E+02	0.000E+00	0.0
	14	1	6	6	0	0	-2.3408659223E+02	-4.1102962200E+01	-5.3197519428E+02	6.6716459251E+02	3.2500000000E+02	0.000E+00	0.0
	-14	1	6	6	0	0	2.8478467049E+02	5.0467965712E+01	-4.4425181565E+02	6.2179900275E+02	3.2500000000E+02	0.000E+00	0.0
	25	2	5	5	0	0	-5.0698078268E+01	-9.3650035126E+00	1.1987313096E+02	1.8082424613E+02	1.2517923961E+02	0.000E+00	0.0
	-5	1	9	9	0	501	-4.4255969453E+01	-4.2407776166E+01	1.3135330875E+02	1.4501094590E+02	4.1800000000E+00	0.000E+00	0.0
	5	1	9	9	501	0	-6.4421088153E+00	3.3042772653E+01	-1.1480177793E+01	3.5813300222E+01	4.1800000000E+00	0.000E+00	0.0
</event>
<event>
    11  -1  1.0000000E+00  1.0000000E+00  -1.0000000E+00  -1.0000000E+00
	2212	-1	0	0	0	0	0.0000000000E+00	0.0000000000E+00	6.5000000000E+03	6.5000000000E+03	9.3827000000E-01	0.000E+00	0.0
	2212	-1	0	0	0	0	0.0000000000E+00	0.0000000000E+00	-6.5000000000E+03	6.5000000000E+03	9.3827000000E-01	0.000E+00	0.0
	2212	1	0	0	0	0	0.0000000000E+00	0.0000000000E+00	6.2100664383E+03	6.2100664383E+03	9.3827000000E-01	0.000E+00	0.0
	2212	1	0	0	0	0	0.0000000000E+00	0.0000000000E+00	-5.5453002459E+03	5.5453002459E+03	9.3827000000E-01	0.000E+00	0.0
	51	2	1	2	0	0	6.1456462844E+01	-3.7883796089E+01	-5.7605715999E+02	1.2017703318E+03	1.0522347647E+03	0.000E+00	0.0
	1000022	2	5	5	0	0	-6.1456462844E+01	3.7883796089E+01	-6.5315040744E+02	1.0996594156E+03	8.8172177973E+02	0.000E+00	0.0
	14	1	6	6	0	0	9.8141415609E+01	1.1092212866E+02	-9.1743169640E+00	3.5727387839E+02	3.2500000000E+02	0.000E+00	0.0
	-14	1	6	6	0	0	-1.5959787845E+02	-7.3038332575E+01	-6.4397609047E+02	7.4238553726E+02	3.2500000000E+02	0.000E+00	0.0
	25	2	5	5	0	0	6.1456462844E+01	-3.7883796089E+01	-1.1615784998E+01	1.4497390010E+02	1.2518157379E+02	0.000E+00	0.0
	-5	1	9	9	0	501	6.6762463574E+01	2.8931129085E+01	1.1846193905E+01	7.3837940672E+01	4.1800000000E+00	0.000E+00	0.0
	5	1	9	9	501	0	-5.3060007298E+00	-6.6814925173E+01	-2.3461978903E+01	7.1135959428E+01	4.1800000000E+00	0.000E+00	0.0
</event>
<event>
    11  -1  1.0000000E+00  1.0000000E+00  -1.0000000E+00  -1.0000000E+00
	2212	-1	0	0	0	0	0.0000000000E+00	0.0000000000E+00	6.5000000000E+03	6.5000000000E+03	9.3827000000E-01	0.000E+00	0.0
	2212	-1	0	0	0	0	0.0000000000E+00	0.0000000000E+00	-6.5000000000E+03	6.5000000000E+03	9.3827000000E-01	0.000E+00	0.0
	2212	1	0	0	0	0	0.0000000000E+00	0.0000000000E+00	5.8587467965E+03	5.8587467965E+03	9.3827000000E-01	0.000E+00	0.0
	2212	1	0	0	0	0	0.0000000000E+00	0.0000000000E+00	-6.0711146291E+03	6.0711146291E+03	9.3827000000E-01	0.000E+00	0.0
	51	2	1	2	0	0	6.6944848356E+01	-1.9329335924E+01	1.0425971016E+02	1.0563246637E+03	1.0488548384E+03	0.000E+00	0.0
	1000022	2	5	5	0	0	-6.6944848356E+01	1.9329335924E+01	2.8578839012E+02	9.0915905738E+02	8.6025574787E+02	0.000E+00	0.0
	14	1	6	6	0	0	-1.7005887969E+02	-9.7587786428E+01	3.7948289965E+02	5.3672681109E+02	3.2500000000E+02	0.000E+00	0.0
	-14	1	6	6	0	0	1.0311403133E+02	1.1691712235E+02	-9.3694509528E+01	3.7243224628E+02	3.2500000000E+02	0.000E+00	0.0
	25	2	5	5	0	0	6.6944848356E+01	-1.9329335924E+01	-7.3420557462E+01	1.6097951701E+02	1.2517424132E+02	0.000E+00	0.0
	-5	1	9	9	0	501	-2.5544906592E+01	1.6208971427E+01	9.2061551143E+00	3.1898255431E+01	4.1800000000E+00	0.000E+00	0.0
	5	1	9	9	501	0	9.2489754949E+01	-3.5538307351E+01	-8.2626712576E+01	1.2908126158E+02	4.1800000000E+00	0.000E+00	0.0
</event>
<event>
    11  -1  1.0000000E+00  1.0000000E+00  -1.0000000E+00  -1.0000000E+00
	2212	-1	0	0	0	0	0.0000000000E+00	0.0000000000E+00	6.5000000000E+03	6.5000000000E+03	9.3827000000E-01	0.000E+00	0.0
	2212	-1	0	0	0	0	0.0000000000E+00	0.0000000000E+00	-6.5000000000E+03	6.5000000000E+03	9.3827000000E-01	0.000E+00	0.0
	2212	1	0	0	0	0	0.0000000000E+00	0.0000000000E+00	6.1739954993E+03	6.1739954993E+03	9.3827000000E-01	0.000E+00	0.0
	2212	1	0	0	0	0	0.0000000000E+00	0.0000000000E+00	-5.3734617874E+03	5.3734617874E+03	9.3827000000E-01	0.000E+00	0.0
	51	2	1	2	0	0	-1.3512288398E+02	2.4737544397E+02	-8.6267270564E+02	1.5141608605E+03	1.2120338734E+03	0.000E+00	0.0
	1000022	2	5	5	0	0	1.3512288398E+02	-2.4737544397E+02	-5.5513588174E+02	1.0584072924E+03	8.5591900631E+02	0.000E+00	0.0
	14	1	6	6	0	0	3.3586943387E+02	-1.8037203118E+02	-3.9852593279E+02	6.4014862754E+02	3.2500000000E+02	0.000E+00	0.0
	-14	1	6	6	0	0	-2.0074654989E+02	-6.7003412793E+01	-1.5660994895E+02	4.1825866486E+02	3.2500000000E+02	0.000E+00	0.0
	25	2	5	5	0	0	-1.3512288398E+02	2.4737544397E+02	-2.4539783017E+02	3.9413542098E+02	1.2517919540E+02	0.000E+00	0.0
	-5	1	9	9	0	501	-1.5869978844E+02	2.0987442940E+02	-2.1929529003E+02	3.4255042781E+02	4.1800000000E+00	0.000E+00	0.0
	5	1	9	9	501	0	2.3576904461E+01	3.7501014573E+01	-2.6102540146E+01	5.1584993167E+01	4.1800000000E+00	0.000E+00	0.0
</event>
<event>
    11  -1  1.0000000E+00  1.0000000E+00  -1.0000000E+00  -1.0000000E+00
	2212	-1	0	0	0	0	0.0000000000E+00	0.0000000000E+00	6.5000000000E+03	6.5000000000E+03	9.3827000000E-01	0.000E+00	0.0
	2212	-1	0	0	0	0	0.0000000000E+00	0.0000000000E+00	-6.5000000000E+03	6.5000000000E+03	9.3827000000E-01	0.000E+00	0.0
	2212	1	0	0	0	0	0.0000000000E+00	0.0000000000E+00	5.5707035110E+03	5.5707035110E+03	9.3827000000E-01	0.000E+00	0.0
	2212	1	0	0	0	0	0.0000000000E+00	0.0000000000E+00	-6.2016366765E+03	6.2016366765E+03	9.3827000000E-01	0.000E+00	0.0
	51	2	1	2	0	0	7.9672818864E+01	2.8830250320E+01	4.9382051037E+02	1.1662373660E+03	1.0531248530E+03	0.000E+00	0.0
	1000022	2	5	5	0	0	-7.9672818864E+01	-2.8830250320E+01	6.5759594855E+02	1.0741706381E+03	8.4512199518E+02	0.000E+00	0.0
	14	1	6	6	0	0	-1.9087249550E+00	2.4960406989E+02	2.6333131868E+02	4.8710801506E+02	3.2500000000E+02	0.000E+00	0.0
	-14	1	6	6	0	0	-7.7764093909E+01	-2.7843432021E+02	3.9426462987E+02	5.8706262301E+02	3.2500000000E+02	0.000E+00	0.0
	25	2	5	5	0	0	7.9672818864E+01	2.8830250320E+01	-2.6662783000E+01	1.5348917447E+02	1.2517620095E+02	0.000E+00	0.0
	-5	1	9	9	0	501	2.2847940674E+01	6.4339943050E+01	-4.7399806593E+01	8.3221816430E+01	4.1800000000E+00	0.000E+00	0.0
	5	1	9	9	501	0	5.6824878190E+01	-3.5509692730E+01	2.0737023594E+01	7.0267358045E+01	4.1800000000E+00	0.000E+00	0.0
</event>
<event>
    11  -1  1.0000000E+00  1.0000000E+00  -1.0000000E+00  -1.0000000E+00
	2212	-1	0	0	0	0	0.0000000000E+00	0.0000000000E+00	6.5000000000E+03	6.5000000000E+03	9.3827000000E-01	0.000E+00	0.0
	2212	-1	0	0	0	0	0.0000000000E+00	0.0000000000E+00	-6.5000000000E+03	6.5000000000E+03	9.3827000000E-01	0.000E+00	0.0
	2212	1	0	0	0	0	0.0000000000E+00	0.0000000000E+00	5.5036800276E+03	5.5036800276E+03	9.3827000000E-01	0.000E+00	0.0
	2212	1	0	0	0	0	0.0000000000E+00	0.0000000000E+00	-6.2384007345E+03	6.2384007345E+03	9.3827000000E-01	0.000E+00	0.0
	51	2	1	2	0	0	-1.7702931746E+01	4.3887795449E+01	8.5019199764E+02	1.3295157980E+03	1.0210515618E+03	0.000E+00	0.0
	1000022	2	5	5	0	0	1.7702931746E+01	-4.3887795449E+01	5.0657834652E+02	9.9341793890E+02	8.5323973641E+02	0.000E+00	0.0
	14	1	6	6	0	0	2.1251778768E+02	-1.1862379878E+02	4.4486810478E+02	6.0230228820E+02	3.2500000000E+02	0.000E+00	0.0
	-14	1	6	6	0	0	-1.9481485594E+02	7.4736003332E+01	6.1710241740E+01	3.9111565070E+02	3.2500000000E+02	0.000E+00	0.0
	25	2	5	5	0	0	-1.7702931746E+01	4.3887795449E+01	2.2814236042E+02	2.6450129902E+02	1.2518972874E+02	0.000E+00	0.0
	-5	1	9	9	0	501	2.7719331444E+01	4.7761824595E+01	2.0662517443E+02	2.1391818140E+02	4.1800000000E+00	0.000E+00	0.0
	5	1	9	9	501	0	-4.5422263190E+01	-3.8740291452E+00	2.1517185987E+01	5.0583117618E+01	4.1800000000E+00	0.000E+00	0.0
</event>
<event>
    11  -1  1.0000000E+00  1.0000000E+00  -1.0000000E+00  -1.0000000E+00
	2212	-1	0	0	0	0	0.0000000000E+00	0.0000000000E+00	6.5000000000E+03	6.5000000000E+03	9.3827000000E-01	0.000E+00	0.0
	2212	-1	0	0	0	0	0.0000000000E+00	0.0000000000E+00	-6.5000000000E+03	6.5000000000E+03	9.3827000000E-01	0.000E+00	0.0
	2212	1	0	0	0	0	0.0000000000E+00	0.0000000000E+00	6.2931060517E+03	6.2931060517E+03	9.3827000000E-01	0.000E+00	0.0
	2212	1	0	0	0	0	0.0000000000E+00	0.0000000000E+00	-5.1880219900E+03	5.1880219900E+03	9.3827000000E-01	0.000E+00	0.0
	51	2	1	2	0	0	2.3489777615E+01	1.2471473958E+02	-1.1596903701E+03	1.5642085964E+03	1.0419986768E+03	0.000E+00	0.0
	1000022	2	5	5	0	0	-2.3489777615E+01	-1.2471473958E+02	-8.6716676812E+02	1.2215853334E+03	8.5099176678E+02	0.000E+00	0.0
	14	1	6	6	0	0	7.2511665787E+01	1.2381430346E+02	-6.6785823196E+02	7.5647044979E+02	3.2500000000E+02	0.000E+00	0.0
	-14	1	6	6	0	0	-9.6001443402E+01	-2.4852904304E+02	-1.9930853617E+02	4.6511488361E+02	3.2500000000E+02	0.000E+00	0.0
	25	2	5	5	0	0	2.3489777615E+01	1.2471473958E+02	-2.3791729350E+02	2.9728662491E+02	1.2517652690E+02	0.000E+00	0.0
	-5	1	9	9	0	501	-3.5640898451E+01	8.7014722445E+01	-1.9063695337E+02	2.1260704587E+02	4.1800000000E+00	0.000E+00	0.0
	5	1	9	9	501	0	5.9130676066E+01	3.7700017138E+01	-4.7280340132E+01	8.4679579045E+01	4.1800000000E+00	0.000E+00	0.0
</event>
<event>
    11  -1  1.0000000E+00  1.0000000E+00  -1.0000000E+00  -1.0000000E+00
	2212	-1	0	0	0	0	0.0000000000E+00	0.0000000000E+00	6.5000000000E+03	6.5000000000E+03	9.3827000000E-01	0.000E+00	0.0
	2212	-1	0	0	0	0	0.0000000000E+00	0.0000000000E+00	-6.5000000000E+03	6.5000000000E+03	9.3827000000E-01	0.000E+00	0.0
	2212	1	0	0	0	0	0.0000000000E+00	0.0000000000E+00	6.1464456452E+03	6.1464456452E+03	9.3827000000E-01	0.000E+00	0.0
	2212	1	0	0	0	0	0.0000000000E+00	0.0000000000E+00	-5.6964621676E+03	5.6964621676E+03	9.3827000000E-01	0.000E+00	0.0
	51	2	1	2	0	0	-3.2406373407E+01	-5.8213871134E+00	-2.9276888554E+02	1.1059723692E+03	1.0660099434E+03	0.000E+00	0.0
	1000022	2	5	5	0	0	3.2406373407E+01	5.8213871134E+00	-5.2844601843E+02	1.0057081629E+03	8.5504950316E+02	0.000E+00	0.0
	14	1	6	6	0	0	-1.6765681495E+02	1.5708563792E+02	-4.2517088097E+02	5.8239160645E+02	3.2500000000E+02	0.000E+00	0.0
	-14	1	6	6	0	0	2.0006318836E+02	-1.5126425080E+02	-1.0327513746E+02	4.2331655640E+02	3.2500000000E+02	0.000E+00	0.0
	25	2	5	5	0	0	-3.2406373407E+01	-5.8213871134E+00	7.8462540839E+01	1.5138402433E+02	1.2520659296E+02	0.000E+00	0.0
	-5	1	9	9	0	501	2.5158818926E+01	4.5424499524E+01	3.5607425410E+01	6.3100811969E+01	4.1800000000E+00	0.000E+00	0.0
	5	1	9	9	501	0	-5.7565192333E+01	-5.1245886638E+01	4.2855115429E+01	8.8283212357E+01	4.1800000000E+00	0.000E+00	0.0
</event>
<event>
    11  -1  1.0000000E+00  1.0000000E+00  -1.0000000E+00  -1.0000000E+00
	2212	-1	0	0	0	0	0.0000000000E+00	0.0000000000E+00	6.5000000000E+03	6.5000000000E+03	9.3827000000E-01	0.000E+00	0.0
	2212	-1	0	0	0	0	0.0000000000E+00	0.0000000000E+00	-6.5000000000E+03	6.5000000000E+03	9.3827000000E-01	0.000E+00	0.0
	2212	1	0	0	0	0	0.0000000000E+00	0.0000000000E+00	5.4935941584E+03	5.4935941584E+03	9.3827000000E-01	0.000E+00	0.0
	2212	1	0	0	0	0	0.0000000000E+00	0.0000000000E+00	-6.2250881679E+03	6.2250881679E+03	9.3827000000E-01	0.000E+00	0.0
	51	2	1	2	0	0	-1.5944071059E+01	8.4768053593E+01	8.8968219526E+02	1.3804585253E+03	1.0519940566E+03	0.000E+00	0.0
	1000022	2	5	5	0	0	1.5944071059E+01	-8.4768053593E+01	4.4449662082E+02	9.5654885248E+02	8.4259635944E+02	0.000E+00	0.0
	14	1	6	6	0	0	2.7533351626E+02	-6.1174167237E+01	2.3595981825E+02	4.9076762296E+02	3.2500000000E+02	0.000E+00	0.0
	-14	1	6	6	0	0	-2.5938944520E+02	-2.3593886356E+01	2.0853680257E+02	4.6578122952E+02	3.2500000000E+02	0.000E+00	0.0
	25	2	5	5	0	0	-1.5944071059E+01	8.4768053593E+01	2.8699738867E+02	3.2476882125E+02	1.2516968419E+02	0.000E+00	0.0
	-5	1	9	9	0	501	-4.0366400358E+01	1.0946845805E+02	2.1229832807E+02	2.4228256662E+02	4.1800000000E+00	0.000E+00	0.0
	5	1	9	9	501	0	2.4422329298E+01	-2.4700404455E+01	7.4699060602E+01	8.2486254633E+01	4.1800000000E+00	0.000E+00	0.0
</event>
<event>
    11  -1  1.0000000E+00  1.0000000E+00  -1.0000000E+00  -1.0000000E+00
	2212	-1	0	0	0	0	0.0000000000E+00	0.0000000000E+00	6.5000000000E+03	6.5000000000E+03	9.3827000000E-01	0.000E+00	0.0
	2212	-1	0	0	0	0	0.0000000000E+00	0.0000000000E+00	-6.5000000000E+03	6.5000000000E+03	9.3827000000E-01	0.000E+00	0.0
	2212	1	0	0	0	0	0.0000000000E+00	0.0000000000E+00	6.2302807629E+03	6.2302807629E+03	9.3827000000E-01	0.000E+00	0.0
	2212	1	0	0	0	0	0.0000000000E+00	0.0000000000E+00	-5.4838867247E+03	5.4838867247E+03	9.3827000000E-01	0.000E+00	0.0
	51	2	1	2	0	0	-1.7688561912E+01	1.4589221713E+01	-5.9464504042E+02	1.2043212380E+03	1.0470249231E+03	0.000E+00	0.0
	1000022	2	5	5	0	0	1.7688561912E+01	-1.4589221713E+01	-7.7510319729E+02	1.1553798417E+03	8.5649978485E+02	0.000E+00	0.0
	14	1	6	6	0	0	8.4661202785E+01	7.5352300102E+01	-7.3200216771E+02	8.0888668051E+02	3.2500000000E+02	0.000E+00	0.0
	-14	1	6	6	0	0	-6.6972640873E+01	-8.9941521815E+01	-4.3101029589E+01	3.4649316115E+02	3.2500000000E+02	0.000E+00	0.0
	25	2	5	5	0	0	-1.7688561912E+01	1.4589221713E+01	2.8709159094E+01	1.3045267068E+02	1.2517169352E+02	0.000E+00	0.0
	-5	1	9	9	0	501	4.2444349161E+01	5.2602542163E+00	4.9925230851E+01	6.5872559732E+01	4.1800000000E+00	0.000E+00	0.0
	5	1	9	9	501	0	-6.0132911073E+01	9.3289674969E+00	-2.1216071758E+01	6.4580110944E+01	4.1800000000E+00	0.000E+00	0.0
</event>
<event>
    11  -1  1.0000000E+00  1.0000000E+00  -1.0000000E+00  -1.0000000E+00
	2212	-1	0	0	0	0	0.0000000000E+00	0.0000000000E+00	6.5000000000E+03	6.5000000000E+03	9.3827000000E-01	0.000E+00	0.0
	2212	-1	0	0	0	0	0.0000000000E+00	0.0000000000E+00	-6.5000000000E+03	6.5000000000E+03	9.3827000000E-01	0.000E+00	0.0
	2212	1	0	0	0	0	0.0000000000E+00	0.0000000000E+00	4.9802894926E+03	4.9802894926E+03	9.3827000000E-01	0.000E+00	0.0
	2212	1	0	0	0	0	0.0000000000E+00	0.0000000000E+00	-6.3144066668E+03	6.3144066668E+03	9.3827000000E-01	0.000E+00	0.0
	51	2	1	2	0	0	-1.2447820654E+02	-5.4953873645E+01	1.3902161144E+03	1.7548242508E+03	1.0621640901E+03	0.000E+00	0.0
	1000022	2	5	5	0	0	1.2447820654E+02	5.4953873645E+01	1.0545355946E+03	1.3701220129E+03	8.6410315223E+02	0.000E+00	0.0
	14	1	6	6	0	0	1.2584765624E+02	-9.1475896412E+01	9.2184149433E+02	9.8975866396E+02	3.2500000000E+02	0.000E+00	0.0
	-14	1	6	6	0	0	-1.3694496933E+00	1.4642977006E+02	1.3269410031E+02	3.8036334893E+02	3.2500000000E+02	0.000E+00	0.0
	25	2	5	5	0	0	-1.2447820654E+02	-5.4953873645E+01	2.7958157951E+02	3.3518182770E+02	1.2516487480E+02	0.000E+00	0.0
	-5	1	9	9	0	501	-3.1757317140E+01	2.5308090118E+01	1.5512876188E+02	1.6041019849E+02	4.1800000000E+00	0.000E+00	0.0
	5	1	9	9	501	0	-9.2720889403E+01	-8.0261963763E+01	1.2445281763E+02	1.7477162920E+02	4.1800000000E+00	0.000E+00	0.0
</event>
<event>
    11  -1  1.0000000E+00  1.0000000E+00  -1.0000000E+00  -1.0000000E+00
	2212	-1	0	0	0	0	0.0000000000E+00	0.0000000000E+00	6.5000000000E+03	6.5000000000E+03	9.3827000000E-01	0.000E+00	0.0
	2212	-1	0	0	0	0	0.0000000000E+00	0.0000000000E+00	-6.5000000000E+03	6.5000000000E+03	9.3827000000E-01	0.000E+00	0.0
	2212	1	0	0	0	0	0.0000000000E+00	0.0000000000E+00	6.2599885674E+03	6.2599885674E+03	9.3827000000E-01	0.000E+00	0.0
	2212	1	0	0	0	0	0.0000000000E+00	0.0000000000E+00	-5.3506860944E+03	5.3506860944E+03	9.3827000000E-01	0.000E+00	0.0
	51	2	1	2	0	0	-6.1382065981E+01	5.5933547339E+00	-1.0648159677E+03	1.4970056769E+03	1.0504255842E+03	0.000E+00	0.0
	1000022	2	5	5	0	0	6.1382065981E+01	-5.5933547339E+00	-6.0614577111E+02	1.0560606038E+03	8.6258463902E+02	0.000E+00	0.0
	14	1	6	6	0	0	2.5333088277E+02	-5.1499773210E+00	-9.8925809330E+01	4.2380936066E+02	3.2500000000E+02	0.000E+00	0.0
	-14	1	6	6	0	0	-1.9194881679E+02	-4.4337741285E-01	-5.0721996178E+02	6.3225124316E+02	3.2500000000E+02	0.000E+00	0.0
	25	2	5	5	0	0	-6.1382065981E+01	5.5933547339E+00	-3.0315670195E+02	3.3326473438E+02	1.2394496198E+02	0.000E+00	0.0
	-5	1	9	9	0	501	-9.8058030737E+01	1.7753974886E+00	-2.4863907082E+02	2.6731514990E+02	4.1800000000E+00	0.000E+00	0.0
	5	1	9	9	501	0	3.6675964756E+01	3.8179572452E+00	-5.4517631129E+01	6.5949584473E+01	4.1800000000E+00	0.000E+00	0.0
</event>
<event>
    11  -1  1.0000000E+00  1.0000000E+00  -1.0000000E+00  -1.0000000E+00
	2212	-1	0	0	0	0	0.0000000000E+00	0.0000000000E+00	6.5000000000E+03	6.5000000000E+03	9.3827000000E-01	0.000E+00	0.0
	2212	-1	0	0	0	0	0.0000000000E+00	0.0000000000E+00	-6.5000000000E+03	6.5000000000E+03	9.3827000000E-01	0.000E+00	0.0
	2212	1	0	0	0	0	0.0000000000E+00	0.0000000000E+00	6.1195709266E+03	6.1195709266E+03	9.3827000000E-01	0.000E+00	0.0
	2212	1	0	0	0	0	0.0000000000E+00	0.0000000000E+00	-5.7765984692E+03	5.7765984692E+03	9.3827000000E-01	0.000E+00	0.0
	51	2	1	2	0	0	3.5605163296E+01	1.6808994232E+00	-4.9087179626E+02	1.1588949779E+03	1.0491958332E+03	0.000E+00	0.0
	1000022	2	5	5	0	0	-3.5605163296E+01	-1.6808994232E+00	-1.3628453391E+02	8.5955967044E+02	8.4793796931E+02	0.000E+00	0.0
	14	1	6	6	0	0	2.0190629199E+02	-2.8310019090E+01	9.4050861599E+01	3.9501667369E+02	3.2500000000E+02	0.000E+00	0.0
	-14	1	6	6	0	0	-2.3751145529E+02	2.6629119667E+01	-2.3033539551E+02	4.6454299675E+02	3.2500000000E+02	0.000E+00	0.0
	25	2	5	5	0	0	3.5605163296E+01	1.6808994232E+00	-2.0668792350E+02	2.4427093384E+02	1.2521117491E+02	0.000E+00	0.0
	-5	1	9	9	0	501	7.4520315409E+01	-2.7270398721E+01	-1.4831922586E+02	1.6826472362E+02	4.1800000000E+00	0.000E+00	0.0
	5	1	9	9	501	0	-3.8915152113E+01	2.8951298144E+01	-5.8368697632E+01	7.6006210216E+01	4.1800000000E+00	0.000E+00	0.0
</event>
<event>
    11  -1  1.0000000E+00  1.0000000E+00  -1.0000000E+00  -1.0000000E+00
	2212	-1	0	0	0	0	0.0000000000E+00	0.0000000000E+00	6.5000000000E+03	6.5000000000E+03	9.3827000000E-01	0.000E+00	0.0
	2212	-1	0	0	0	0	0.0000000000E+00	0.0000000000E+00	-6.5000000000E+03	6.5000000000E+03	9.3827000000E-01	0.000E+00	0.0
	2212	1	0	0	0	0	0.0000000000E+00	0.0000000000E+00	5.5532024985E+03	5.5532024985E+03	9.3827000000E-01	0.000E+00	0.0
	2212	1	0	0	0	0	0.0000000000E+00	0.0000000000E+00	-6.2119045740E+03	6.2119045740E+03	9.3827000000E-01	0.000E+00	0.0
	51	2	1	2	0	0	4.7211753317E+01	7.1568815000E+01	5.5176265967E+02	1.1844261040E+03	1.0445439762E+03	0.000E+00	0.0
	1000022	2	5	5	0	0	-4.7211753317E+01	-7.1568815000E+01	6.5778436303E+02	1.0831560389E+03	8.5626846929E+02	0.000E+00	0.0
	14	1	6	6	0	0	-1.5337381692E+02	-2.8393648682E+02	3.5642969071E+02	5.8035384093E+02	3.2500000000E+02	0.000E+00	0.0
	-14	1	6	6	0	0	1.0616206361E+02	2.1236767182E+02	3.0135467232E+02	5.0280219800E+02	3.2500000000E+02	0.000E+00	0.0
	25	2	5	5	0	0	4.7211753317E+01	7.1568815000E+01	9.1771245348E-01	1.5173688862E+02	1.2518864261E+02	0.000E+00	0.0
	-5	1	9	9	0	501	1.2875001248E+01	7.1582544182E+01	-5.1300450693E+01	8.9101262224E+01	4.1800000000E+00	0.000E+00	0.0
	5	1	9	9	501	0	3.4336752069E+01	-1.3729181673E-02	5.2218163146E+01	6.2635626392E+01	4.1800000000E+00	0.000E+00	0.0
</event>
<event>
    11  -1  1.0000000E+00  1.0000000E+00  -1.0000000E+00  -1.0000000E+00
	2212	-1	0	0	0	0	0.0000000000E+00	0.0000000000E+00	6.5000000000E+03	6.5000000000E+03	9.3827000000E-01	0.000E+00	0.0
	2212	-1	0	0	0	0	0.0000000000E+00	0.0000000000E+00	-6.5000000000E+03	6.5000000000E+03	9.3827000000E-01	0.000E+00	0.0
	2212	1	0	0	0	0	0.0000000000E+00	0.0000000000E+00	6.2750405689E+03	6.2750405689E+03	9.3827000000E-01	0.000E+00	0.0
	2212	1	0	0	0	0	0.0000000000E+00	0.0000000000E+00	-5.2932168861E+03	5.2932168861E+03	9.3827000000E-01	0.000E+00	0.0
	51	2	1	2	0	0	9.9243014465E+01	8.0117293089E+01	-8.9669418988E+02	1.3806655634E+03	1.0420695616E+03	0.000E+00	0.0
	1000022	2	5	5	0	0	-9.9243014465E+01	-8.0117293089E+01	-8.9596030623E+02	1.2334694953E+03	8.3811345830E+02	0.000E+00	0.0
	14	1	6	6	0	0	-1.6046930826E+02	-2.2531239686E+02	-2.5335869157E+02	4.9631814561E+02	3.2500000000E+02	0.000E+00	0.0
	-14	1	6	6	0	0	6.1226293797E+01	1.4519510377E+02	-6.4260161466E+02	7.3715134971E+02	3.2500000000E+02	0.000E+00	0.0
	25	2	5	5	0	0	9.9243014465E+01	8.0117293089E+01	-8.5863376554E+01	1.9827304973E+02	1.2518676545E+02	0.000E+00	0.0
	-5	1	9	9	0	501	4.2329973375E+01	7.9140303443E+01	6.0829286366E+00	9.0052699547E+01	4.1800000000E+00	0.000E+00	0.0
	5	1	9	9	501	0	5.6913041091E+01	9.7698964616E-01	-9.1946305190E+01	1.0822035018E+02	4.1800000000E+00	0.000E+00	0.0
</event>
<event>
    11  -1  1.0000000E+00  1.0000000E+00  -1.0000000E+00  -1.0000000E+00
	2212	-1	0	0	0	0	0.0000000000E+00	0.0000000000E+00	6.5000000000E+03	6.5000000000E+03	9.3827000000E-01	0.000E+00	0.0
	2212	-1	0	0	0	0	0.0000000000E+00	0.0000000000E+00	-6.5000000000E+03	6.5000000000E+03	9.3827000000E-01	0.000E+00	0.0
	2212	1	0	0	0	0	0.0000000000E+00	0.0000000000E+00	5.3815981181E+03	5.3815981181E+03	9.3827000000E-01	0.000E+00	0.0
	2212	1	0	0	0	0	0.0000000000E+00	0.0000000000E+00	-6.2490511568E+03	6.2490511568E+03	9.3827000000E-01	0.000E+00	0.0
	51	2	1	2	0	0	-1.4471482751E+01	4.6628127707E+01	8.7680174668E+02	1.3761582551E+03	1.0595502036E+03	0.000E+00	0.0
	1000022	2	5	5	0	0	1.4471482751E+01	-4.6628127707E+01	7.4890834909E+02	1.1901677581E+03	9.2371639104E+02	0.000E+00	0.0
	14	1	6	6	0	0	9.1641965468E+01	-3.3267477250E+02	2.9585272454E+02	5.5877060473E+02	3.2500000000E+02	0.000E+00	0.0
	-14	1	6	6	0	0	-7.7170482717E+01	2.8604664479E+02	4.5305562455E+02	6.3139715341E+02	3.2500000000E+02	0.000E+00	0.0
	25	2	5	5	0	0	-1.4471482751E+01	4.6628127707E+01	1.1854468960E+02	1.7918296697E+02	1.2518021455E+02	0.000E+00	0.0
	-5	1	9	9	0	501	-6.7382141483E+00	-4.3025803101E+01	4.6374264590E+01	6.3754749460E+01	4.1800000000E+00	0.000E+00	0.0
	5	1	9	9	501	0	-7.7332686029E+00	8.9653930808E+01	7.2170425008E+01	1.1542821751E+02	4.1800000000E+00	0.000E+00	0.0
</event>
<event>
    11  -1  1.0000000E+00  1.0000000E+00  -1.0000000E+00  -1.0000000E+00
	2212	-1	0	0	0	0	0.0000000000E+00	0.0000000000E+00	6.5000000000E+03	6.5000000000E+03	9.3827000000E-01	0.000E+00	0.0
	2212	-1	0	0	0	0	0.0000000000E+00	0.0000000000E+00	-6.5000000000E+03	6.5000000000E+03	9.3827000000E-01	0.000E+00	0.0
	2212	1	0	0	0	0	0.0000000000E+00	0.0000000000E+00	5.6667787861E+03	5.6667787861E+03	9.3827000000E-01	0.000E+00	0.0
	2212	1	0	0	0	0	0.0000000000E+00	0.0000000000E+00	-6.1684968900E+03	6.1684968900E+03	9.3827000000E-01	0.000E+00	0.0
	51	2	1	2	0	0	-1.5653351618E+01	7.3931202003E+01	6.3995902045E+02	1.2329315037E+03	1.0511240150E+03	0.000E+00	0.0
	1000022	2	5	5	0	0	1.5653351618E+01	-7.3931202003E+01	2.7757892339E+02	8.9710676482E+02	8.4972915610E+02	0.000E+00	0.0
	14	1	6	6	0	0	-2.6091344918E+02	-7.7515921455E+01	1.7193596484E+02	4.5746204438E+02	3.2500000000E+02	0.000E+00	0.0
	-14	1	6	6	0	0	2.7656680080E+02	3.5847194521E+00	1.0564295855E+02	4.3964472044E+02	3.2500000000E+02	0.000E+00	0.0
	25	2	5	5	0	0	-1.5653351618E+01	7.3931202003E+01	2.2413918050E+02	2.6761755907E+02	1.2517961353E+02	0.000E+00	0.0
	-5	1	9	9	0	501	-4.1061975752E+01	-9.0495752299E+00	2.2091998171E+01	4.7681332277E+01	4.1800000000E+00	0.000E+00	0.0
	5	1	9	9	501	0	2.5408624134E+01	8.2980777233E+01	2.0204718233E+02	2.1993622679E+02	4.1800000000E+00	0.000E+00	0.0
</event>
<event>
    11  -1  1.0000000E+00  1.0000000E+00  -1.0000000E+00  -1.0000000E+00
	2212	-1	0	0	0	0	0.0000000000E+00	0.0000000000E+00	6.5000000000E+03	6.5000000000E+03	9.3827000000E-01	0.000E+00	0.0
	2212	-1	0	0	0	0	0.0000000000E+00	0.0000000000E+00	-6.5000000000E+03	6.5000000000E+03	9.3827000000E-01	0.000E+00	0.0
	2212	1	0	0	0	0	0.0000000000E+00	0.0000000000E+00	6.1996984074E+03	6.1996984074E+03	9.3827000000E-01	0.000E+00	0.0
	2212	1	0	0	0	0	0.0000000000E+00	0.0000000000E+00	-5.5925866553E+03	5.5925866553E+03	9.3827000000E-01	0.000E+00	0.0
	51	2	1	2	0	0	8.9130456835E+01	-3.8630113607E+00	-7.2889933751E+02	1.2764184642E+03	1.0440261923E+03	0.000E+00	0.0
	1000022	2	5	5	0	0	-8.9130456835E+01	3.8630113607E+00	-3.8341810879E+02	9.3629178298E+02	8.4951379949E+02	0.000E+00	0.0
	14	1	6	6	0	0	1.2423695098E+02	-5.2249264888E+01	4.5401051084E+01	3.5475493106E+02	3.2500000000E+02	0.000E+00	0.0
	-14	1	6	6	0	0	-2.1336740782E+02	5.6112276249E+01	-4.2881915988E+02	5.8153685192E+02	3.2500000000E+02	0.000E+00	0.0
	25	2	5	5	0	0	8.9130456835E+01	-3.8630113607E+00	-2.2369364324E+02	2.7142315430E+02	1.2518994157E+02	0.000E+00	0.0
	-5	1	9	9	0	501	-3.7062475335E+00	4.5256602886E+01	-9.4044686679E+01	1.0451684969E+02	4.1800000000E+00	0.000E+00	0.0
	5	1	9	9	501	0	9.2836704368E+01	-4.9119614246E+01	-1.2964895656E+02	1.6690630461E+02	4.1800000000E+00	0.000E+00	0.0
</event>
<event>
    11  -1  1.0000000E+00  1.0000000E+00  -1.0000000E+00  -1.0000000E+00
	2212	-1	0	0	0	0	0.0000000000E+00	0.0000000000E+00	6.5000000000E+03	6.5000000000E+03	9.3827000000E-01	0.000E+00	0.0
	2212	-1	0	0	0	0	0.0000000000E+00	0.0000000000E+00	-6.5000000000E+03	6.5000000000E+03	9.3827000000E-01	0.000E+00	0.0
	2212	1	0	0	0	0	0.0000000000E+00	0.0000000000E+00	6.2555341533E+03	6.2555341533E+03	9.3827000000E-01	0.000E+00	0.0
	2212	1	0	0	0	0	0.0000000000E+00	0.0000000000E+00	-5.4171995333E+03	5.4171995333E+03	9.3827000000E-01	0.000E+00	0.0
	51	2	1	2	0	0	5.8457659487E+01	-8.3771806969E+01	-8.0700591948E+02	1.3116876531E+03	1.0289951077E+03	0.000E+00	0.0
	1000022	2	5	5	0	0	-5.8457659487E+01	8.3771806969E+01	-7.4025942768E+02	1.1379704240E+03	8.5822937034E+02	0.000E+00	0.0
	14	1	6	6	0	0	-2.0457272115E+02	2.2454295025E+02	-5.5820274650E+02	7.1378206825E+02	3.2500000000E+02	0.000E+00	0.0
	-14	1	6	6	0	0	1.4611506166E+02	-1.4077114328E+02	-1.8205668117E+02	4.2418835579E+02	3.2500000000E+02	0.000E+00	0.0
	25	2	5	5	0	0	5.8457659487E+01	-8.3771806969E+01	-9.8075192322E+01	1.8929588942E+02	1.2561519338E+02	0.000E+00	0.0
	-5	1	9	9	0	501	8.6333962087E+01	-8.9053296550E+01	-5.1000867597E+01	1.3417378109E+02	4.1800000000E+00	0.000E+00	0.0
	5	1	9	9	501	0	-2.7876302600E+01	5.2814895802E+00	-4.7074324725E+01	5.5122108333E+01	4.1800000000E+00	0.000E+00	0.0
</event>
<event>
    11  -1  1.0000000E+00  1.0000000E+00  -1.0000000E+00  -1.0000000E+00
	2212	-1	0	0	0	0	0.0000000000E+00	0.0000000000E+00	6.5000000000E+03	6.5000000000E+03	9.3827000000E-01	0.000E+00	0.0
	2212	-1	0	0	0	0	0.0000000000E+00	0.0000000000E+00	-6.5000000000E+03	6.5000000000E+03	9.3827000000E-01	0.000E+00	0.0
	2212	1	0	0	0	0	0.0000000000E+00	0.0000000000E+00	6.2896133759E+03	6.2896133759E+03	9.3827000000E-01	0.000E+00	0.0
	2212	1	0	0	0	0	0.0000000000E+00	0.0000000000E+00	-5.1091190078E+03	5.1091190078E+03	9.3827000000E-01	0.000E+00	0.0
	51	2	1	2	0	0	2.2834199293E+02	6.8499038345E+01	-1.1036207731E+03	1.5637461497E+03	1.0818923356E+03	0.000E+00	0.0
	1000022	2	5	5	0	0	-2.2834199293E+02	-6.8499038345E+01	-9.8392267383E+02	1.2678774561E+03	7.6326747056E+02	0.000E+00	0.0
	14	1	6	6	0	0	-7.1240527144E+01	1.5071998336E+02	-5.6668607282E+02	6.7420310828E+02	3.2500000000E+02	0.000E+00	0.0
	-14	1	6	6	0	0	-1.5710146579E+02	-2.1921902170E+02	-4.1723660101E+02	5.9367434781E+02	3.2500000000E+02	0.000E+00	0.0
	25	2	5	5	0	0	2.2834199293E+02	6.8499038345E+01	-1.9657169425E+02	3.3339016017E+02	1.2520536702E+02	0.000E+00	0.0
	-5	1	9	9	0	501	1.3673822905E+01	5.0567601753E+01	-2.6241079614E+01	5.8737742885E+01	4.1800000000E+00	0.000E+00	0.0
	5	1	9	9	501	0	2.1466817003E+02	1.7931436591E+01	-1.7033061464E+02	2.7465241729E+02	4.1800000000E+00	0.000E+00	0.0
</event>
<event>
    11  -1  1.0000000E+00  1.0000000E+00  -1.0000000E+00  -1.0000000E+00
	2212	-1	0	0	0	0	0.0000000000E+00	0.0000000000E+00	6.5000000000E+03	6.5000000000E+03	9.3827000000E-01	0.000E+00	0.0
	2212	-1	0	0	0	0	0.0000000000E+00	0.0000000000E+00	-6.5000000000E+03	6.5000000000E+03	9.3827000000E-01	0.000E+00	0.0
	2212	1	0	0	0	0	0.0000000000E+00	0.0000000000E+00	4.8895621300E+03	4.8895621300E+03	9.3827000000E-01	0.000E+00	0.0
	2212	1	0	0	0	0	0.0000000000E+00	0.0000000000E+00	-6.3309605121E+03	6.3309605121E+03	9.3827000000E-01	0.000E+00	0.0
	51	2	1	2	0	0	-5.7211648343E+01	1.4910414065E+00	1.2774272800E+03	1.6504563680E+03	1.0435086828E+03	0.000E+00	0.0
	1000022	2	5	5	0	0	5.7211648343E+01	-1.4910414065E+00	1.3782029498E+03	1.6280500624E+03	8.6477062803E+02	0.000E+00	0.0
	14	1	6	6	0	0	1.7812112444E+02	-2.0843604042E+02	9.4258493399E+02	1.0340522597E+03	3.2500000000E+02	0.000E+00	0.0
	-14	1	6	6	0	0	-1.2090947609E+02	2.0694499901E+02	4.3561801578E+02	5.9399780277E+02	3.2500000000E+02	0.000E+00	0.0
	25	2	5	5	0	0	-5.7211648343E+01	1.4910414065E+00	6.3195432425E+01	1.5142729548E+02	1.2514458528E+02	0.000E+00	0.0
	-5	1	9	9	0	501	-6.4623963304E+01	-3.4725628391E+01	-5.0974342083E+00	7.3658551003E+01	4.1800000000E+00	0.000E+00	0.0
	5	1	9	9	501	0	7.4123149613E+00	3.6216669798E+01	6.8292866633E+01	7.7768744475E+01	4.1800000000E+00	0.000E+00	0.0
</event>
<event>
    11  -1  1.0000000E+00  1.0000000E+00  -1.0000000E+00  -1.0000000E+00
	2212	-1	0	0	0	0	0.0000000000E+00	0.0000000000E+00	6.5000000000E+03	6.5000000000E+03	9.3827000000E-01	0.000E+00	0.0
	2212	-1	0	0	0	0	0.0000000000E+00	0.0000000000E+00	-6.5000000000E+03	6.5000000000E+03	9.3827000000E-01	0.000E+00	0.0
	2212	1	0	0	0	0	0.0000000000E+00	0.0000000000E+00	5.4764080997E+03	5.4764080997E+03	9.3827000000E-01	0.000E+00	0.0
	2212	1	0	0	0	0	0.0000000000E+00	0.0000000000E+00	-6.1849248763E+03	6.1849248763E+03	9.3827000000E-01	0.000E+00	0.0
	51	2	1	2	0	0	-4.9130190732E+01	1.5674166836E+02	5.4523892499E+02	1.2705512938E+03	1.1357963632E+03	0.000E+00	0.0
	1000022	2	5	5	0	0	4.9130190732E+01	-1.5674166836E+02	7.2603269705E+02	1.1313811026E+03	8.5200821356E+02	0.000E+00	0.0
	14	1	6	6	0	0	1.8398932362E+02	-3.0831130350E+02	4.1975337084E+02	6.4087894598E+02	3.2500000000E+02	0.000E+00	0.0
	-14	1	6	6	0	0	-1.3485913289E+02	1.5156963513E+02	3.0627932622E+02	4.9050215666E+02	3.2500000000E+02	0.000E+00	0.0
	25	2	5	5	0	0	-4.9130190732E+01	1.5674166836E+02	-1.7515920490E+01	2.0728592142E+02	1.2521549227E+02	0.000E+00	0.0
	-5	1	9	9	0	501	-4.9311726436E+01	1.4632130578E+02	3.0951921107E+01	1.5753432867E+02	4.1800000000E+00	0.000E+00	0.0
	5	1	9	9	501	0	1.8153570393E-01	1.0420362585E+01	-4.8467841597E+01	4.9751592746E+01	4.1800000000E+00	0.000E+00	0.0
</event>
<event>
    11  -1  1.0000000E+00  1.0000000E+00  -1.0000000E+00  -1.0000000E+00
	2212	-1	0	0	0	0	0.0000000000E+00	0.0000000000E+00	6.5000000000E+03	6.5000000000E+03	9.3827000000E-01	0.000E+00	0.0
	2212	-1	0	0	0	0	0.0000000000E+00	0.0000000000E+00	-6.5000000000E+03	6.5000000000E+03	9.3827000000E-01	0.000E+00	0.0
	2212	1	0	0	0	0	0.0000000000E+00	0.0000000000E+00	6.2997140564E+03	6.2997140564E+03	9.3827000000E-01	0.000E+00	0.0
	2212	1	0	0	0	0	0.0000000000E+00	0.0000000000E+00	-5.1234938778E+03	5.1234938778E+03	9.3827000000E-01	0.000E+00	0.0
	51	2	1	2	0	0	9.5439836646E+00	-1.4951353037E+02	-1.1905188870E+03	1.5945406591E+03	1.0501329963E+03	0.000E+00	0.0
	1000022	2	5	5	0	0	-9.5439836646E+00	1.4951353037E+02	-9.5513928848E+02	1.2818398420E+03	8.4165131548E+02	0.000E+00	0.0
	14	1	6	6	0	0	-6.3064177617E+01	3.3869747614E+02	-5.6653797547E+02	7.3843303589E+02	3.2500000000E+02	0.000E+00	0.0
	-14	1	6	6	0	0	5.3520193952E+01	-1.8918394577E+02	-3.8860131301E+02	5.4340680615E+02	3.2500000000E+02	0.000E+00	0.0
	25	2	5	5	0	0	9.5439836646E+00	-1.4951353037E+02	-2.2108089013E+02	2.9495222369E+02	1.2519852592E+02	0.000E+00	0.0
	-5	1	9	9	0	501	7.1807795462E+00	-2.0645445347E+01	1.4375674350E+01	2.6493969530E+01	4.1800000000E+00	0.000E+00	0.0
	5	1	9	9	501	0	2.3632041185E+00	-1.2886808502E+02	-2.3545656448E+02	2.6845825416E+02	4.1800000000E+00	0.000E+00	0.0
</event>
<event>
    11  -1  1.0000000E+00  1.0000000E+00  -1.0000000E+00  -1.0000000E+00
	2212	-1	0	0	0	0	0.0000000000E+00	0.0000000000E+00	6.5000000000E+03	6.5000000000E+03	9.3827000000E-01	0.000E+00	0.0
	2212	-1	0	0	0	0	0.0000000000E+00	0.0000000000E+00	-6.5000000000E+03	6.5000000000E+03	9.3827000000E-01	0.000E+00	0.0
	2212	1	0	0	0	0	0.0000000000E+00	0.0000000000E+00	4.9667152643E+03	4.9667152643E+03	9.3827000000E-01	0.000E+00	0.0
	2212	1	0	0	0	0	0.0000000000E+00	0.0000000000E+00	-6.3172572136E+03	6.3172572136E+03	9.3827000000E-01	0.000E+00	0.0
	51	2	1	2	0	0	6.1845630703E+01	1.3912598370E+02	1.3631952929E+03	1.7327057534E+03	1.0586722345E+03	0.000E+00	0.0
	1000022	2	5	5	0	0	-6.1845630703E+01	-1.3912598370E+02	1.1003387414E+03	1.3975133462E+03	8.4800783355E+02	0.000E+00	0.0
	14	1	6	6	0	0	7.8353159470E+00	1.7509875020E+02	3.0029098265E+02	4.7594184388E+02	3.2500000000E+02	0.000E+00	0.0
	-14	1	6	6	0	0	-6.9680946650E+01	-3.1422473390E+02	8.0004775872E+02	9.2157150235E+02	3.2500000000E+02	0.000E+00	0.0
	25	2	5	5	0	0	6.1845630703E+01	1.3912598370E+02	2.5020320790E+02	3.1851417590E+02	1.2517473240E+02	0.000E+00	0.0
	-5	1	9	9	0	501	5.0223243691E+00	-1.3342234136E+00	-1.3099176534E+01	1.4699140113E+01	4.1800000000E+00	0.000E+00	0.0
	5	1	9	9	501	0	5.6823306334E+01	1.4046020711E+02	2.6330238444E+02	3.0381503579E+02	4.1800000000E+00	0.000E+00	0.0
</event>
<event>
    11  -1  1.0000000E+00  1.0000000E+00  -1.0000000E+00  -1.0000000E+00
	2212	-1	0	0	0	0	0.0000000000E+00	0.0000000000E+00	6.5000000000E+03	6.5000000000E+03	9.3827000000E-01	0.000E+00	0.0
	2212	-1	0	0	0	0	0.0000000000E+00	0.0000000000E+00	-6.5000000000E+03	6.5000000000E+03	9.3827000000E-01	0.000E+00	0.0
	2212	1	0	0	0	0	0.0000000000E+00	0.0000000000E+00	6.3275447183E+03	6.3275447183E+03	9.3827000000E-01	0.000E+00	0.0
	2212	1	0	0	0	0	0.0000000000E+00	0.0000000000E+00	-4.9139862352E+03	4.9139862352E+03	9.3827000000E-01	0.000E+00	0.0
	51	2	1	2	0	0	4.2708409916E+01	-1.1170474461E+02	-1.3271135436E+03	1.6939888188E+03	1.0459760047E+03	0.000E+00	0.0
	1000022	2	5	5	0	0	-4.2708409916E+01	1.1170474461E+02	-1.2645515275E+03	1.5300467346E+03	8.5302431754E+02	0.000E+00	0.0
	14	1	6	6	0	0	-1.9342793898E+02	-1.6108245293E+02	-6.0583820846E+02	7.3213855181E+02	3.2500000000E+02	0.000E+00	0.0
	-14	1	6	6	0	0	1.5071952906E+02	2.7278719754E+02	-6.5871331902E+02	7.9790818284E+02	3.2500000000E+02	0.000E+00	0.0
	25	2	5	5	0	0	4.2708409916E+01	-1.1170474461E+02	-1.4900695564E+02	2.2842231188E+02	1.2518674646E+02	0.000E+00	0.0
	-5	1	9	9	0	501	-7.1985056439E+00	2.0137495462E+01	-5.4384018236E+01	5.8586952869E+01	4.1800000000E+00	0.000E+00	0.0
	5	1	9	9	501	0	4.9906915560E+01	-1.3184224007E+02	-9.4622937408E+01	1.6983535901E+02	4.1800000000E+00	0.000E+00	0.0
</event>
<event>
    11  -1  1.0000000E+00  1.0000000E+00  -1.0000000E+00  -1.0000000E+00
	2212	-1	0	0	0	0	0.0000000000E+00	0.0000000000E+00	6.5000000000E+03	6.5000000000E+03	9.3827000000E-01	0.000E+00	0.0
	2212	-1	0	0	0	0	0.0000000000E+00	0.0000000000E+00	-6.5000000000E+03	6.5000000000E+03	9.3827000000E-01	0.000E+00	0.0
	2212	1	0	0	0	0	0.0000000000E+00	0.0000000000E+00	5.3930027615E+03	5.3930027615E+03	9.3827000000E-01	0.000E+00	0.0
	2212	1	0	0	0	0	0.0000000000E+00	0.0000000000E+00	-6.2518909704E+03	6.2518909704E+03	9.3827000000E-01	0.000E+00	0.0
	51	2	1	2	0	0	-1.1819475112E+02	6.0731212501E+01	8.8428627427E+02	1.3777679547E+03	1.0481526810E+03	0.000E+00	0.0
	1000022	2	5	5	0	0	1.1819475112E+02	-6.0731212501E+01	6.9038972978E+02	1.1066686709E+03	8.5464570957E+02	0.000E+00	0.0
	14	1	6	6	0	0	-7.0694319663E+01	-4.2093432530E+01	6.4584642729E+02	7.2767585609E+02	3.2500000000E+02	0.000E+00	0.0
	-14	1	6	6	0	0	1.8888907079E+02	-1.8637779971E+01	4.4543302483E+01	3.7899281484E+02	3.2500000000E+02	0.000E+00	0.0
	25	2	5	5	0	0	-1.1819475112E+02	6.0731212501E+01	1.6849847909E+02	2.4843759722E+02	1.2518475503E+02	0.000E+00	0.0
	-5	1	9	9	0	501	-1.2174745943E+02	2.9335015088E+01	6.7076645634E+01	1.4212577450E+02	4.1800000000E+00	0.000E+00	0.0
	5	1	9	9	501	0	3.5527083058E+00	3.1396197413E+01	1.0142183345E+02	1.0631182272E+02	4.1800000000E+00	0.000E+00	0.0
</event>
<event>
    11  -1  1.0000000E+00  1.0000000E+00  -1.0000000E+00  -1.0000000E+00
	2212	-1	0	0	0	0	0.0000000000E+00	0.0000000000E+00	6.5000000000E+03	6.5000000000E+03	9.3827000000E-01	0.000E+00	0.0
	2212	-1	0	0	0	0	0.0000000000E+00	0.0000000000E+00	-6.5000000000E+03	6.5000000000E+03	9.3827000000E-01	0.000E+00	0.0
	2212	1	0	0	0	0	0.0000000000E+00	0.0000000000E+00	6.0367271357E+03	6.0367271357E+03	9.3827000000E-01	0.000E+00	0.0
	2212	1	0	0	0	0	0.0000000000E+00	0.0000000000E+00	-5.9060874634E+03	5.9060874634E+03	9.3827000000E-01	0.000E+00	0.0
	51	2	1	2	0	0	-1.3749911938E+02	2.1752838370E+01	-1.0764843227E+02	1.0637394543E+03	1.0490825743E+03	0.000E+00	0.0
	1000022	2	5	5	0	0	1.3749911938E+02	-2.1752838370E+01	-1.3130277652E+02	8.6994366852E+02	8.4863559521E+02	0.000E+00	0.0
	14	1	6	6	0	0	-1.1244920689E+02	1.0888924130E+02	-2.3084428282E+02	4.2827067832E+02	3.2500000000E+02	0.000E+00	0.0
	-14	1	6	6	0	0	2.4994832628E+02	-1.3064207967E+02	9.9541506296E+01	4.4167299019E+02	3.2500000000E+02	0.000E+00	0.0
	25	2	5	5	0	0	-1.3749911938E+02	2.1752838370E+01	6.6310424129E-01	1.8724173233E+02	1.2521913916E+02	0.000E+00	0.0
	-5	1	9	9	0	501	-6.5936914099E+01	4.6278155722E+01	-5.1095784854E+01	9.5486103532E+01	4.1800000000E+00	0.000E+00	0.0
	5	1	9	9	501	0	-7.1562205284E+01	-2.4525317351E+01	5.1758889095E+01	9.1755628801E+01	4.1800000000E+00	0.000E+00	0.0
</event>
<event>
    11  -1  1.0000000E+00  1.0000000E+00  -1.0000000E+00  -1.0000000E+00
	2212	-1	0	0	0	0	0.0000000000E+00	0.0000000000E+00	6.5000000000E+03	6.5000000000E+03	9.3827000000E-01	0.000E+00	0.0
	2212	-1	0	0	0	0	0.0000000000E+00	0.0000000000E+00	-6.5000000000E+03	6.5000000000E+03	9.3827000000E-01	0.000E+00	0.0
	2212	1	0	0	0	0	0.0000000000E+00	0.0000000000E+00	6.3227719701E+03	6.3227719701E+03	9.3827000000E-01	0.000E+00	0.0
	2212	1	0	0	0	0	0.0000000000E+00	0.0000000000E+00	-4.9302207268E+03	4.9302207268E+03	9.3827000000E-01	0.000E+00	0.0
	51	2	1	2	0	0	5.9864507218E+01	2.9136733118E+01	-1.6415279972E+03	1.9524042680E+03	1.0549102103E+03	0.000E+00	0.0
	1000022	2	5	5	0	0	-5.9864507218E+01	-2.9136733118E+01	-8.9457782892E+02	1.2292347710E+03	8.4042603594E+02	0.000E+00	0.0
	14	1	6	6	0	0	-2.0777307904E+02	1.7677959580E+02	-3.7722728599E+02	5.6775531980E+02	3.2500000000E+02	0.000E+00	0.0
	-14	1	6	6	0	0	1.4790857183E+02	-2.0591632892E+02	-5.1735054292E+02	6.6147945123E+02	3.2500000000E+02	0.000E+00	0.0
	25	2	5	5	0	0	5.9864507218E+01	2.9136733118E+01	-4.9797341439E+02	5.1777253206E+02	1.2521247970E+02	0.000E+00	0.0
	-5	1	9	9	0	501	4.2597995864E+01	-2.1837156837E+01	-6.1854827754E+01	7.8325875589E+01	4.1800000000E+00	0.000E+00	0.0
	5	1	9	9	501	0	1.7266511354E+01	5.0973889955E+01	-4.3611858663E+02	4.3944665647E+02	4.1800000000E+00	0.000E+00	0.0
</event>
<event>
    11  -1  1.0000000E+00  1.0000000E+00  -1.0000000E+00  -1.0000000E+00
	2212	-1	0	0	0	0	0.0000000000E+00	0.0000000000E+00	6.5000000000E+03	6.5000000000E+03	9.3827000000E-01	0.000E+00	0.0
	2212	-1	0	0	0	0	0.0000000000E+00	0.0000000000E+00	-6.5000000000E+03	6.5000000000E+03	9.3827000000E-01	0.000E+00	0.0
	2212	1	0	0	0	0	0.0000000000E+00	0.0000000000E+00	6.3213180660E+03	6.3213180660E+03	9.3827000000E-01	0.000E+00	0.0
	2212	1	0	0	0	0	0.0000000000E+00	0.0000000000E+00	-4.9634461759E+03	4.9634461759E+03	9.3827000000E-01	0.000E+00	0.0
	51	2	1	2	0	0	-1.1143790541E+01	-1.5368720608E+01	-1.3862921554E+03	1.7379251877E+03	1.0479587950E+03	0.000E+00	0.0
	1000022	2	5	5	0	0	1.1143790541E+01	1.5368720608E+01	-1.1643237880E+03	1.4839602519E+03	9.1985203388E+02	0.000E+00	0.0
	14	1	6	6	0	0	-1.0977756997E+02	-2.9438850538E+02	-6.3424881640E+02	7.7885317491E+02	3.2500000000E+02	0.000E+00	0.0
	-14	1	6	6	0	0	1.2092136051E+02	3.0975722598E+02	-5.3007497157E+02	7.0510707695E+02	3.2500000000E+02	0.000E+00	0.0
	25	2	5	5	0	0	-1.1143790541E+01	-1.5368720608E+01	-1.9354810209E+02	2.3127550626E+02	1.2516832798E+02	0.000E+00	0.0
	-5	1	9	9	0	501	7.3222763568E+00	5.0367576064E+01	-4.6384405134E+01	6.8989085291E+01	4.1800000000E+00	0.000E+00	0.0
	5	1	9	9	501	0	-1.8466066898E+01	-6.5736296673E+01	-1.4716369696E+02	1.6228642097E+02	4.1800000000E+00	0.000E+00	0.0
</event>
<event>
    11  -1  1.0000000E+00  1.0000000E+00  -1.0000000E+00  -1.0000000E+00
	2212	-1	0	0	0	0	0.0000000000E+00	0.0000000000E+00	6.5000000000E+03	6.5000000000E+03	9.3827000000E-01	0.000E+00	0.0
	2212	-1	0	0	0	0	0.0000000000E+00	0.0000000000E+00	-6.5000000000E+03	6.5000000000E+03	9.3827000000E-01	0.000E+00	0.0
	2212	1	0	0	0	0	0.0000000000E+00	0.0000000000E+00	5.7525110691E+03	5.7525110691E+03	9.3827000000E-01	0.000E+00	0.0
	2212	1	0	0	0	0	0.0000000000E+00	0.0000000000E+00	-6.1420681327E+03	6.1420681327E+03	9.3827000000E-01	0.000E+00	0.0
	51	2	1	2	0	0	-5.0769062529E+01	-7.9254070976E+01	4.7601034490E+02	1.1426482351E+03	1.0345049227E+03	0.000E+00	0.0
	1000022	2	5	5	0	0	5.0769062529E+01	7.9254070976E+01	2.3985705890E+02	8.8872223888E+02	8.5055105884E+02	0.000E+00	0.0
	14	1	6	6	0	0	-1.6465655011E+02	1.3579955609E+02	-6.0240538002E+01	3.9345548839E+02	3.2500000000E+02	0.000E+00	0.0
	-14	1	6	6	0	0	2.1542561264E+02	-5.6545485112E+01	3.0009759691E+02	4.9526675049E+02	3.2500000000E+02	0.000E+00	0.0
	25	2	5	5	0	0	-5.0769062529E+01	-7.9254070976E+01	1.4970000468E+02	2.1669855925E+02	1.2525760937E+02	0.000E+00	0.0
	-5	1	9	9	0	501	-7.2830387783E+01	1.3494860987E+00	6.7196049133E+01	9.9191067725E+01	4.1800000000E+00	0.000E+00	0.0
	5	1	9	9	501	0	2.2061325254E+01	-8.0603557075E+01	8.2503955542E+01	1.1750749153E+02	4.1800000000E+00	0.000E+00	0.0
</event>
<event>
    11  -1  1.0000000E+00  1.0000000E+00  -1.0000000E+00  -1.0000000E+00
	2212	-1	0	0	0	0	0.0000000000E+00	0.0000000000E+00	6.5000000000E+03	6.5000000000E+03	9.3827000000E-01	0.000E+00	0.0
	2212	-1	0	0	0	0	0.0000000000E+00	0.0000000000E+00	-6.5000000000E+03	6.5000000000E+03	9.3827000000E-01	0.000E+00	0.0
	2212	1	0	0	0	0	0.0000000000E+00	0.0000000000E+00	5.6226584546E+03	5.6226584546E+03	9.3827000000E-01	0.000E+00	0.0
	2212	1	0	0	0	0	0.0000000000E+00	0.0000000000E+00	-6.1862882010E+03	6.1862882010E+03	9.3827000000E-01	0.000E+00	0.0
	51	2	1	2	0	0	6.8369020489E+01	-5.4841280058E+00	6.9470790329E+02	1.2602591193E+03	1.0492519136E+03	0.000E+00	0.0
	1000022	2	5	5	0	0	-6.8369020489E+01	5.4841280058E+00	3.3959045661E+02	9.2540359367E+02	8.5810589925E+02	0.000E+00	0.0
	14	1	6	6	0	0	-1.7425082483E+02	2.4455074041E+02	1.9958201414E+02	4.8541363285E+02	3.2500000000E+02	0.000E+00	0.0
	-14	1	6	6	0	0	1.0588180434E+02	-2.3906661240E+02	1.4000844247E+02	4.3998996082E+02	3.2500000000E+02	0.000E+00	0.0
	25	2	5	5	0	0	6.8369020489E+01	-5.4841280058E+00	2.2403928982E+02	2.6564975075E+02	1.2518701236E+02	0.000E+00	0.0
	-5	1	9	9	0	501	1.0763079928E+01	4.7913553622E+01	3.3721132181E+01	5.9717163913E+01	4.1800000000E+00	0.000E+00	0.0
	5	1	9	9	501	0	5.7605940562E+01	-5.3397681628E+01	1.9031815764E+02	2.0593258683E+02	4.1800000000E+00	0.000E+00	0.0
</event>
<event>
    11  -1  1.0000000E+00  1.0000000E+00  -1.0000000E+00  -1.0000000E+00
	2212	-1	0	0	0	0	0.0000000000E+00	0.0000000000E+00	6.5000000000E+03	6.5000000000E+03	9.3827000000E-01	0.000E+00	0.0
	2212	-1	0	0	0	0	0.0000000000E+00	0.0000000000E+00	-6.5000000000E+03	6.5000000000E+03	9.3827000000E-01	0.000E+00	0.0
	2212	1	0	0	0	0	0.0000000000E+00	0.0000000000E+00	5.9368362761E+03	5.9368362761E+03	9.3827000000E-01	0.000E+00	0.0
	2212	1	0	0	0	0	0.0000000000E+00	0.0000000000E+00	-6.0216162539E+03	6.0216162539E+03	9.3827000000E-01	0.000E+00	0.0
	51	2	1	2	0	0	-1.3619920950E+01	1.7283592199E+01	2.1047900667E+02	1.0594428369E+03	1.0380912713E+03	0.000E+00	0.0
	1000022	2	5	5	0	0	1.3619920950E+01	-1.7283592199E+01	-5.4830459623E+01	8.5274627416E+02	8.5069712823E+02	0.000E+00	0.0
	14	1	6	6	0	0	2.1784448866E+02	-5.8359286153E+01	1.4090152073E+02	4.1992888215E+02	3.2500000000E+02	0.000E+00	0.0
	-14	1	6	6	0	0	-2.0422456771E+02	4.1075693953E+01	-1.9573198035E+02	4.3281739201E+02	3.2500000000E+02	0.000E+00	0.0
	25	2	5	5	0	0	-1.3619920950E+01	1.7283592199E+01	1.3961043742E+02	1.8880119584E+02	1.2518223718E+02	0.000E+00	0.0
	-5	1	9	9	0	501	-6.2433041514E+01	-4.1538118669E+00	1.1261220233E+02	1.2889576929E+02	4.1800000000E+00	0.000E+00	0.0
	5	1	9	9	501	0	4.8813120564E+01	2.1437404066E+01	2.6998235090E+01	5.9905426551E+01	4.1800000000E+00	0.000E+00	0.0
</event>
<event>
    11  -1  1.0000000E+00  1.0000000E+00  -1.0000000E+00  -1.0000000E+00
	2212	-1	0	0	0	0	0.0000000000E+00	0.0000000000E+00	6.5000000000E+03	6.5000000000E+03	9.3827000000E-01	0.000E+00	0.0
	2212	-1	0	0	0	0	0.0000000000E+00	0.0000000000E+00	-6.5000000000E+03	6.5000000000E+03	9.3827000000E-01	0.000E+00	0.0
	2212	1	0	0	0	0	0.0000000000E+00	0.0000000000E+00	5.0630138192E+03	5.0630138192E+03	9.3827000000E-01	0.000E+00	0.0
	2212	1	0	0	0	0	0.0000000000E+00	0.0000000000E+00	-6.3079908166E+03	6.3079908166E+03	9.3827000000E-01	0.000E+00	0.0
	51	2	1	2	0	0	-1.3287376842E+02	-8.9178446070E+00	1.3556097264E+03	1.7201950090E+03	1.0505513659E+03	0.000E+00	0.0
	1000022	2	5	5	0	0	1.3287376842E+02	8.9178446070E+00	9.1727565263E+02	1.2537713803E+03	8.4428258588E+02	0.000E+00	0.0
	14	1	6	6	0	0	-1.0961271397E+02	-8.3627098420E+01	7.0123700278E+02	7.8509029591E+02	3.2500000000E+02	0.000E+00	0.0
	-14	1	6	6	0	0	2.4248648239E+02	9.2544943027E+01	2.1603864985E+02	4.6868108438E+02	3.2500000000E+02	0.000E+00	0.0
	25	2	5	5	0	0	-1.3287376842E+02	-8.9178446070E+00	3.2770134474E+02	3.7522398385E+02	1.2517947284E+02	0.000E+00	0.0
	-5	1	9	9	0	501	-1.4539708644E+02	-3.3938273344E+01	2.3633360832E+02	2.7957676220E+02	4.1800000000E+00	0.000E+00	0.0
	5	1	9	9	501	0	1.2523318021E+01	2.5020428737E+01	9.1367736428E+01	9.5647221645E+01	4.1800000000E+00	0.000E+00	0.0
</event>
<event>
    11  -1  1.0000000E+00  1.0000000E+00  -1.0000000E+00  -1.0000000E+00
	2212	-1	0	0	0	0	0.0000000000E+00	0.0000000000E+00	6.5000000000E+03	6.5000000000E+03	9.3827000000E-01	0.000E+00	0.0
	2212	-1	0	0	0	0	0.0000000000E+00	0.0000000000E+00	-6.5000000000E+03	6.5000000000E+03	9.3827000000E-01	0.000E+00	0.0
	2212	1	0	0	0	0	0.0000000000E+00	0.0000000000E+00	6.1847994337E+03	6.1847994337E+03	9.3827000000E-01	0.000E+00	0.0
	2212	1	0	0	0	0	0.0000000000E+00	0.0000000000E+00	-5.6306772242E+03	5.6306772242E+03	9.3827000000E-01	0.000E+00	0.0
	51	2	1	2	0	0	9.4419819141E+01	-1.4947498949E+02	-5.3639107104E+02	1.1895450309E+03	1.0469212601E+03	0.000E+00	0.0
	1000022	2	5	5	0	0	-9.4419819141E+01	1.4947498949E+02	-4.6454053787E+02	9.5010364971E+02	8.0971671536E+02	0.000E+00	0.0
	14	1	6	6	0	0	-5.6859532759E+01	-8.5215343571E+00	3.5565861632E+01	3.3195715616E+02	3.2500000000E+02	0.000E+00	0.0
	-14	1	6	6	0	0	-3.7560286381E+01	1.5799652384E+02	-5.0010639950E+02	6.1814649355E+02	3.2500000000E+02	0.000E+00	0.0
	25	2	5	5	0	0	9.4419819141E+01	-1.4947498949E+02	-8.9581671678E+01	2.3441969238E+02	1.2517923767E+02	0.000E+00	0.0
	-5	1	9	9	0	501	1.0573245553E+02	-6.2786764010E+01	-7.9095485076E+01	1.4627063289E+02	4.1800000000E+00	0.000E+00	0.0
	5	1	9	9	501	0	-1.1312636390E+01	-8.6688225476E+01	-1.0486186601E+01	8.8149059483E+01	4.1800000000E+00	0.000E+00	0.0
</event>
<event>
    11  -1  1.0000000E+00  1.0000000E+00  -1.0000000E+00  -1.0000000E+00
	2212	-1	0	0	0	0	0.0000000000E+00	0.0000000000E+00	6.5000000000E+03	6.5000000000E+03	9.3827000000E-01	0.000E+00	0.0
	2212	-1	0	0	0	0	0.0000000000E+00	0.0000000000E+00	-6.5000000000E+03	6.5000000000E+03	9.3827000000E-01	0.000E+00	0.0
	2212	1	0	0	0	0	0.0000000000E+00	0.0000000000E+00	6.1685255294E+03	6.1685255294E+03	9.3827000000E-01	0.000E+00	0.0
	2212	1	0	0	0	0	0.0000000000E+00	0.0000000000E+00	-5.6339451795E+03	5.6339451795E+03	9.3827000000E-01	0.000E+00	0.0
	51	2	1	2	0	0	1.1301345355E+02	9.2573491892E+01	-6.3012166832E+02	1.2516770595E+03	1.0715877250E+03	0.000E+00	0.0
	1000022	2	5	5	0	0	-1.1301345355E+02	-9.2573491892E+01	-3.4157055652E+02	9.2503950198E+02	8.4716335087E+02	0.000E+00	0.0
	14	1	6	6	0	0	-6.9701483387E+01	4.7861120889E+01	1.0653136612E+02	3.5231082249E+02	3.2500000000E+02	0.000E+00	0.0
	-14	1	6	6	0	0	-4.3311970162E+01	-1.4043461278E+02	-4.4810192264E+02	5.7272867948E+02	3.2500000000E+02	0.000E+00	0.0
	25	2	5	5	0	0	1.1301345355E+02	9.2573491892E+01	-1.9300979340E+02	2.7248978907E+02	1.2512398937E+02	0.000E+00	0.0
	-5	1	9	9	0	501	-1.4271196613E+01	5.8685378629E+01	-6.2735015632E+01	8.7182540132E+01	4.1800000000E+00	0.000E+00	0.0
	5	1	9	9	501	0	1.2728465016E+02	3.3888113264E+01	-1.3027477777E+02	1.8530724894E+02	4.1800000000E+00	0.000E+00	0.0
</event>
<event>
    11  -1  1.0000000E+00  1.0000000E+00  -1.0000000E+00  -1.0000000E+00
	2212	-1	0	0	0	0	0.0000000000E+00	0.0000000000E+00	6.5000000000E+03	6.5000000000E+03	9.3827000000E-01	0.000E+00	0.0
	2212	-1	0	0	0	0	0.0000000000E+00	0.0000000000E+00	-6.5000000000E+03	6.5000000000E+03	9.3827000000E-01	0.000E+00	0.0
	2212	1	0	0	0	0	0.0000000000E+00	0.0000000000E+00	6.2553928895E+03	6.2553928895E+03	9.3827000000E-01	0.000E+00	0.0
	2212	1	0	0	0	0	0.0000000000E+00	0.0000000000E+00	-5.3951644702E+03	5.3951644702E+03	9.3827000000E-01	0.000E+00	0.0
	51	2	1	2	0	0	4.3379553374E+01	-1.0686524451E+02	-9.5769285924E+02	1.4182665774E+03	1.0397127035E+03	0.000E+00	0.0
	1000022	2	5	5	0	0	-4.3379553374E+01	1.0686524451E+02	-6.1782328503E+02	1.0532498451E+03	8.4517906893E+02	0.000E+00	0.0
	14	1	6	6	0	0	4.8792317621E+01	-1.0214076684E+02	-5.5213662226E+02	6.5060992626E+02	3.2500000000E+02	0.000E+00	0.0
	-14	1	6	6	0	0	-9.2171870995E+01	2.0900601135E+02	-6.5686662764E+01	4.0263991884E+02	3.2500000000E+02	0.000E+00	0.0
	25	2	5	5	0	0	4.3379553374E+01	-1.0686524451E+02	-2.4240513428E+02	2.9619279513E+02	1.2517170857E+02	0.000E+00	0.0
	-5	1	9	9	0	501	2.1040478483E+01	-1.0624538778E+02	-2.4978639415E+02	2.7228936678E+02	4.1800000000E+00	0.000E+00	0.0
	5	1	9	9	501	0	2.2339074891E+01	-6.1985673452E-01	7.3812598748E+00	2.3903428346E+01	4.1800000000E+00	0.000E+00	0.0
</event>
<event>
    11  -1  1.0000000E+00  1.0000000E+00  -1.0000000E+00  -1.0000000E+00
	2212	-1	0	0	0	0	0.0000000000E+00	0.0000000000E+00	6.5000000000E+03	6.5000000000E+03	9.3827000000E-01	0.000E+00	0.0
	2212	-1	0	0	0	0	0.0000000000E+00	0.0000000000E+00	-6.5000000000E+03	6.5000000000E+03	9.3827000000E-01	0.000E+00	0.0
	2212	1	0	0	0	0	0.0000000000E+00	0.0000000000E+00	6.1274042163E+03	6.1274042163E+03	9.3827000000E-01	0.000E+00	0.0
	2212	1	0	0	0	0	0.0000000000E+00	0.0000000000E+00	-5.7507448230E+03	5.7507448230E+03	9.3827000000E-01	0.000E+00	0.0
	51	2	1	2	0	0	-8.3210043151E+01	1.0922947301E+02	-3.5954513392E+02	1.1246354840E+03	1.0567295205E+03	0.000E+00	0.0
	1000022	2	5	5	0	0	8.3210043151E+01	-1.0922947301E+02	-3.3042088751E+02	9.3037511114E+02	8.5881598464E+02	0.000E+00	0.0
	14	1	6	6	0	0	8.1562157634E+01	1.6672476567E+02	2.5291111174E+01	3.7511887896E+02	3.2500000000E+02	0.000E+00	0.0
	-14	1	6	6	0	0	1.6478855172E+00	-2.7595423868E+02	-3.5571199868E+02	5.5525623218E+02	3.2500000000E+02	0.000E+00	0.0
	25	2	5	5	0	0	-8.3210043151E+01	1.0922947301E+02	-4.6238505800E+01	1.9147584960E+02	1.2517992054E+02	0.000E+00	0.0
	-5	1	9	9	0	501	-2.3200284817E+00	-2.6788945329E+01	-3.0564070559E+00	2.7383282274E+01	4.1800000000E+00	0.000E+00	0.0
	5	1	9	9	501	0	-8.0890014670E+01	1.3601841834E+02	-4.3182098744E+01	1.6409256733E+02	4.1800000000E+00	0.000E+00	0.0
</event>
<event>
    11  -1  1.0000000E+00  1.0000000E+00  -1.0000000E+00  -1.0000000E+00
	2212	-1	0	0	0	0	0.0000000000E+00	0.0000000000E+00	6.5000000000E+03	6.5000000000E+03	9.3827000000E-01	0.000E+00	0.0
	2212	-1	0	0	0	0	0.0000000000E+00	0.0000000000E+00	-6.5000000000E+03	6.5000000000E+03	9.3827000000E-01	0.000E+00	0.0
	2212	1	0	0	0	0	0.0000000000E+00	0.0000000000E+00	4.8667388829E+03	4.8667388829E+03	9.3827000000E-01	0.000E+00	0.0
	2212	1	0	0	0	0	0.0000000000E+00	0.0000000000E+00	-6.3332962068E+03	6.3332962068E+03	9.3827000000E-01	0.000E+00	0.0
	51	2	1	2	0	0	-1.0777278820E+02	6.8670200000E+01	1.5462529027E+03	1.8698427483E+03	1.0435915360E+03	0.000E+00	0.0
	1000022	2	5	5	0	0	1.0777278820E+02	-6.8670200000E+01	1.1414770868E+03	1.4289165915E+03	8.5000124430E+02	0.000E+00	0.0
	14	1	6	6	0	0	1.2624610788E+01	-1.0284654315E+02	1.3571581344E+02	3.6712473937E+02	3.2500000000E+02	0.000E+00	0.0
	-14	1	6	6	0	0	9.5148177417E+01	3.4176343153E+01	1.0057612734E+03	1.0617918521E+03	3.2500000000E+02	0.000E+00	0.0
	25	2	5	5	0	0	-1.0777278820E+02	6.8670200000E+01	3.2508023709E+02	3.7104831886E+02	1.2517637212E+02	0.000E+00	0.0
	-5	1	9	9	0	501	-3.7245638405E+01	9.5672459104E+01	1.7344126151E+02	2.0159315614E+02	4.1800000000E+00	0.000E+00	0.0
	5	1	9	9	501	0	-7.0527149799E+01	-2.7002259103E+01	1.5163897559E+02	1.6945516272E+02	4.1800000000E+00	0.000E+00	0.0
</event>
<event>
    11  -1  1.0000000E+00  1.0000000E+00  -1.0000000E+00  -1.0000000E+00
	2212	-1	0	0	0	0	0.0000000000E+00	0.0000000000E+00	6.5000000000E+03	6.5000000000E+03	9.3827000000E-01	0.000E+00	0.0
	2212	-1	0	0	0	0	0.0000000000E+00	0.0000000000E+00	-6.5000000000E+03	6.5000000000E+03	9.3827000000E-01	0.000E+00	0.0
	2212	1	0	0	0	0	0.0000000000E+00	0.0000000000E+00	5.4868126769E+03	5.4868126769E+03	9.3827000000E-01	0.000E+00	0.0
	2212	1	0	0	0	0	0.0000000000E+00	0.0000000000E+00	-6.2291862626E+03	6.2291862626E+03	9.3827000000E-01	0.000E+00	0.0
	51	2	1	2	0	0	2.8734945359E+01	-2.9068324107E+01	9.1703712046E+02	1.3928991088E+03	1.0476355198E+03	0.000E+00	0.0
	1000022	2	5	5	0	0	-2.8734945359E+01	2.9068324107E+01	4.3997766213E+02	9.5417849932E+02	8.4569829185E+02	0.000E+00	0.0
	14	1	6	6	0	0	1.8038337204E+02	8.9140372794E+01	4.1209768101E+02	5.6207976806E+02	3.2500000000E+02	0.000E+00	0.0
	-14	1	6	6	0	0	-2.0911831740E+02	-6.0072048687E+01	2.7879981126E+01	3.9209873126E+02	3.2500000000E+02	0.000E+00	0.0
	25	2	5	5	0	0	2.8734945359E+01	-2.9068324107E+01	3.0239592357E+02	3.2982256110E+02	1.2517572714E+02	0.000E+00	0.0
	-5	1	9	9	0	501	2.4177717191E+01	2.3719428881E+01	1.4530007892E+01	3.7091331122E+01	4.1800000000E+00	0.000E+00	0.0
	5	1	9	9	501	0	4.5572281673E+00	-5.2787752988E+01	2.8786591568E+02	2.9273122997E+02	4.1800000000E+00	0.000E+00	0.0
</event>
<event>
    11  -1  1.0000000E+00  1.0000000E+00  -1.0000000E+00  -1.0000000E+00
	2212	-1	0	0	0	0	0.0000000000E+00	0.0000000000E+00	6.5000000000E+03	6.5000000000E+03	9.3827000000E-01	0.000E+00	0.0
	2212	-1	0	0	0	0	0.0000000000E+00	0.0000000000E+00	-6.5000000000E+03	6.5000000000E+03	9.3827000000E-01	0.000E+00	0.0
	2212	1	0	0	0	0	0.0000000000E+00	0.0000000000E+00	5.5176819226E+03	5.5176819226E+03	9.3827000000E-01	0.000E+00	0.0
	2212	1	0	0	0	0	0.0000000000E+00	0.0000000000E+00	-6.2156188151E+03	6.2156188151E+03	9.3827000000E-01	0.000E+00	0.0
	51	2	1	2	0	0	-9.6892707188E+01	-9.8886438332E+01	6.4773226017E+02	1.2474513700E+03	1.0570766838E+03	0.000E+00	0.0
	1000022	2	5	5	0	0	9.6892707188E+01	9.8886438332E+01	6.2764204227E+02	1.0672502964E+03	8.5201052663E+02	0.000E+00	0.0
	14	1	6	6	0	0	2.8182251013E+01	-1.9519236509E+02	4.5068758596E+02	5.8960885238E+02	3.2500000000E+02	0.000E+00	0.0
	-14	1	6	6	0	0	6.8710456175E+01	2.9407880342E+02	1.7695445631E+02	4.7764144399E+02	3.2500000000E+02	0.000E+00	0.0
	25	2	5	5	0	0	-9.6892707188E+01	-9.8886438332E+01	7.0294850236E+01	1.9944896599E+02	1.2518705872E+02	0.000E+00	0.0
	-5	1	9	9	0	501	-7.2027244462E+01	1.1772554143E+01	2.5224621182E+01	7.7332211203E+01	4.1800000000E+00	0.000E+00	0.0
	5	1	9	9	501	0	-2.4865462726E+01	-1.1065899247E+02	4.5070229054E+01	1.2211675478E+02	4.1800000000E+00	0.000E+00	0.0
</event>
<event>
    11  -1  1.0000000E+00  1.0000000E+00  -1.0000000E+00  -1.0000000E+00
	2212	-1	0	0	0	0	0.0000000000E+00	0.0000000000E+00	6.5000000000E+03	6.5000000000E+03	9.3827000000E-01	0.000E+00	0.0
	2212	-1	0	0	0	0	0.0000000000E+00	0.0000000000E+00	-6.5000000000E+03	6.5000000000E+03	9.3827000000E-01	0.000E+00	0.0
	2212	1	0	0	0	0	0.0000000000E+00	0.0000000000E+00	5.6996286522E+03	5.6996286522E+03	9.3827000000E-01	0.000E+00	0.0
	2212	1	0	0	0	0	0.0000000000E+00	0.0000000000E+00	-6.1528706561E+03	6.1528706561E+03	9.3827000000E-01	0.000E+00	0.0
	51	2	1	2	0	0	-1.0386486367E+01	1.3227822078E+02	3.8694010631E+02	1.1307774211E+03	1.0541961504E+03	0.000E+00	0.0
	1000022	2	5	5	0	0	1.0386486367E+01	-1.3227822078E+02	4.4071398480E+02	9.6464540791E+02	8.4776561608E+02	0.000E+00	0.0
	14	1	6	6	0	0	4.9318669558E+01	1.5066929275E+02	3.8536214427E+02	5.2845297726E+02	3.2500000000E+02	0.000E+00	0.0
	-14	1	6	6	0	0	-3.8932183191E+01	-2.8294751353E+02	5.5351840536E+01	4.3619243065E+02	3.2500000000E+02	0.000E+00	0.0
	25	2	5	5	0	0	-1.0386486367E+01	1.3227822078E+02	1.2528019117E+01	1.8285528387E+02	1.2519463560E+02	0.000E+00	0.0
	-5	1	9	9	0	501	-5.5069096015E+01	1.2007258491E+02	2.5434343124E+01	1.3458978116E+02	4.1800000000E+00	0.000E+00	0.0
	5	1	9	9	501	0	4.4682609647E+01	1.2205635866E+01	-1.2906324007E+01	4.8265502703E+01	4.1800000000E+00	0.000E+00	0.0
</event>
<event>
    11  -1  1.0000000E+00  1.0000000E+00  -1.0000000E+00  -1.0000000E+00
	2212	-1	0	0	0	0	0.0000000000E+00	0.0000000000E+00	6.5000000000E+03	6.5000000000E+03	9.3827000000E-01	0.000E+00	0.0
	2212	-1	0	0	0	0	0.0000000000E+00	0.0000000000E+00	-6.5000000000E+03	6.5000000000E+03	9.3827000000E-01	0.000E+00	0.0
	2212	1	0	0	0	0	0.0000000000E+00	0.0000000000E+00	5.3479999048E+03	5.3479999048E+03	9.3827000000E-01	0.000E+00	0.0
	2212	1	0	0	0	0	0.0000000000E+00	0.0000000000E+00	-6.2624398810E+03	6.2624398810E+03	9.3827000000E-01	0.000E+00	0.0
	51	2	1	2	0	0	-9.2495855816E+01	-3.8174963889E+01	8.3770433820E+02	1.3440381274E+03	1.0462681867E+03	0.000E+00	0.0
	1000022	2	5	5	0	0	9.2495855816E+01	3.8174963889E+01	8.4674058228E+02	1.2156024233E+03	8.6643339429E+02	0.000E+00	0.0
	14	1	6	6	0	0	3.1764093543E+02	-1.2830197967E+01	3.2429748297E+02	5.5843910617E+02	3.2500000000E+02	0.000E+00	0.0
	-14	1	6	6	0	0	-2.2514507962E+02	5.1005161856E+01	5.2244309931E+02	6.5716331717E+02	3.2500000000E+02	0.000E+00	0.0
	25	2	5	5	0	0	-9.2495855816E+01	-3.8174963889E+01	6.7699393940E+01	1.7395779078E+02	1.2516107152E+02	0.000E+00	0.0
	-5	1	9	9	0	501	-9.4640032804E+00	-5.0017930872E+01	-1.7824986953E+01	5.4097720161E+01	4.1800000000E+00	0.000E+00	0.0
	5	1	9	9	501	0	-8.3031852536E+01	1.1842966983E+01	8.5524380892E+01	1.1986007062E+02	4.1800000000E+00	0.000E+00	0.0
</event>
<event>
    11  -1  1.0000000E+00  1.0000000E+00  -1.0000000E+00  -1.0000000E+00
	2212	-1	0	0	0	0	0.0000000000E+00	0.0000000000E+00	6.5000000000E+03	6.5000000000E+03	9.3827000000E-01	0.000E+00	0.0
	2212	-1	0	0	0	0	0.0000000000E+00	0.0000000000E+00	-6.5000000000E+03	6.5000000000E+03	9.3827000000E-01	0.000E+00	0.0
	2212	1	0	0	0	0	0.0000000000E+00	0.0000000000E+00	5.6498609057E+03	5.6498609057E+03	9.3827000000E-01	0.000E+00	0.0
	2212	1	0	0	0	0	0.0000000000E+00	0.0000000000E+00	-6.1752732864E+03	6.1752732864E+03	9.3827000000E-01	0.000E+00	0.0
	51	2	1	2	0	0	-7.8008623569E+01	-1.1478625191E+02	5.3340487705E+02	1.1866058691E+03	1.0508337150E+03	0.000E+00	0.0
	1000022	2	5	5	0	0	7.8008623569E+01	1.1478625191E+02	4.2851417979E+02	9.6432519255E+02	8.5266490823E+02	0.000E+00	0.0
	14	1	6	6	0	0	1.4403313980E+02	-1.5726914211E+01	4.8701546125E+02	6.0315996277E+02	3.2500000000E+02	0.000E+00	0.0
	-14	1	6	6	0	0	-6.6024516230E+01	1.3051316613E+02	-5.8501281453E+01	3.6116522979E+02	3.2500000000E+02	0.000E+00	0.0
	25	2	5	5	0	0	-7.8008623569E+01	-1.1478625191E+02	9.6898200903E+01	2.1054061528E+02	1.2520726961E+02	0.000E+00	0.0
	-5	1	9	9	0	501	-6.3449829775E+01	-7.7264890433E+00	7.7740623809E+01	1.0073061363E+02	4.1800000000E+00	0.000E+00	0.0
	5	1	9	9	501	0	-1.4558793794E+01	-1.0705976287E+02	1.9157577094E+01	1.0981000165E+02	4.1800000000E+00	0.000E+00	0.0
</event>
<event>
    11  -1  1.0000000E+00  1.0000000E+00  -1.0000000E+00  -1.0000000E+00
	2212	-1	0	0	0	0	0.0000000000E+00	0.0000000000E+00	6.5000000000E+03	6.5000000000E+03	9.3827000000E-01	0.000E+00	0.0
	2212	-1	0	0	0	0	0.0000000000E+00	0.0000000000E+00	-6.5000000000E+03	6.5000000000E+03	9.3827000000E-01	0.000E+00	0.0
	2212	1	0	0	0	0	0.0000000000E+00	0.0000000000E+00	6.3115040737E+03	6.3115040737E+03	9.3827000000E-01	0.000E+00	0.0
	2212	1	0	0	0	0	0.0000000000E+00	0.0000000000E+00	-4.9977003413E+03	4.9977003413E+03	9.3827000000E-01	0.000E+00	0.0
	51	2	1	2	0	0	7.7105825385E+01	1.1813273869E+02	-1.2148876268E+03	1.6212840778E+03	1.0642882423E+03	0.000E+00	0.0
	1000022	2	5	5	0	0	-7.7105825385E+01	-1.1813273869E+02	-1.1782187707E+03	1.4585166804E+03	8.4803937601E+02	0.000E+00	0.0
	14	1	6	6	0	0	1.1884119327E+02	-7.0100517092E+01	-1.9464053622E+02	4.0317148963E+02	3.2500000000E+02	0.000E+00	0.0
	-14	1	6	6	0	0	-1.9594701865E+02	-4.8032221595E+01	-9.8357823447E+02	1.0553451908E+03	3.2500000000E+02	0.000E+00	0.0
	25	2	5	5	0	0	7.7105825385E+01	1.1813273869E+02	-1.3558496170E+02	2.3227890449E+02	1.2517809462E+02	0.000E+00	0.0
	-5	1	9	9	0	501	9.9156332946E+01	1.2718679821E+02	-1.3061728563E+02	2.0757361997E+02	4.1800000000E+00	0.000E+00	0.0
	5	1	9	9	501	0	-2.2050507561E+01	-9.0540595225E+00	-4.9676760704E+00	2.4705284517E+01	4.1800000000E+00	0.000E+00	0.0
</event>
<event>
    11  -1  1.0000000E+00  1.0000000E+00  -1.0000000E+00  -1.0000000E+00
	2212	-1	0	0	0	0	0.0000000000E+00	0.0000000000E+00	6.5000000000E+03	6.5000000000E+03	9.3827000000E-01	0.000E+00	0.0
	2212	-1	0	0	0	0	0.0000000000E+00	0.0000000000E+00	-6.5000000000E+03	6.5000000000E+03	9.3827000000E-01	0.000E+00	0.0
	2212	1	0	0	0	0	0.0000000000E+00	0.0000000000E+00	5.4953551341E+03	5.4953551341E+03	9.3827000000E-01	0.000E+00	0.0
	2212	1	0	0	0	0	0.0000000000E+00	0.0000000000E+00	-6.2249914457E+03	6.2249914457E+03	9.3827000000E-01	0.000E+00	0.0
	51	2	1	2	0	0	-1.1189400463E+02	1.6306706791E+01	6.1182924931E+02	1.2215829632E+03	1.0512581646E+03	0.000E+00	0.0
	1000022	2	5	5	0	0	1.1189400463E+02	-1.6306706791E+01	7.1791697682E+02	1.1105574188E+03	8.3973020536E+02	0.000E+00	0.0
	14	1	6	6	0	0	3.3787924071E+01	-2.1323043118E+01	9.9077287486E+00	3.2759648818E+02	3.2500000000E+02	0.000E+00	0.0
	-14	1	6	6	0	0	7.8106080559E+01	5.0163363265E+00	7.0800924808E+02	7.8296093058E+02	3.2500000000E+02	0.000E+00	0.0
	25	2	5	5	0	0	-1.1189400463E+02	1.6306706791E+01	1.1719334707E+01	1.6909600144E+02	1.2517962269E+02	0.000E+00	0.0
	-5	1	9	9	0	501	1.3993032181E+01	1.3095349646E+01	3.5796721550E+01	4.0818755563E+01	4.1800000000E+00	0.000E+00	0.0
	5	1	9	9	501	0	-1.2588703681E+02	3.2113571455E+00	-2.4077386843E+01	1.2827724587E+02	4.1800000000E+00	0.000E+00	0.0
</event>
<event>
    11  -1  1.0000000E+00  1.0000000E+00  -1.0000000E+00  -1.0000000E+00
	2212	-1	0	0	0	0	0.0000000000E+00	0.0000000000E+00	6.5000000000E+03	6.5000000000E+03	9.3827000000E-01	0.000E+00	0.0
	2212	-1	0	0	0	0	0.0000000000E+00	0.0000000000E+00	-6.5000000000E+03	6.5000000000E+03	9.3827000000E-01	0.000E+00	0.0
	2212	1	0	0	0	0	0.0000000000E+00	0.0000000000E+00	5.2367818131E+03	5.2367818131E+03	9.3827000000E-01	0.000E+00	0.0
	2212	1	0	0	0	0	0.0000000000E+00	0.0000000000E+00	-6.2807220592E+03	6.2807220592E+03	9.3827000000E-01	0.000E+00	0.0
	51	2	1	2	0	0	1.3165228019E+00	-9.5761769443E+01	9.9872407683E+02	1.4541682717E+03	1.0526079665E+03	0.000E+00	0.0
	1000022	2	5	5	0	0	-1.3165228019E+00	9.5761769443E+01	9.3381332237E+02	1.2902217655E+03	8.8515130544E+02	0.000E+00	0.0
	14	1	6	6	0	0	6.1798170748E+01	-2.2725897212E+02	5.9135694593E+02	7.1469832225E+02	3.2500000000E+02	0.000E+00	0.0
	-14	1	6	6	0	0	-6.3114693550E+01	3.2302074157E+02	3.4245637644E+02	5.7552344330E+02	3.2500000000E+02	0.000E+00	0.0
	25	2	5	5	0	0	1.3165228019E+00	-9.5761769443E+01	1.1012692373E+02	1.9227436214E+02	1.2517763893E+02	0.000E+00	0.0
	-5	1	9	9	0	501	-3.4725113882E+01	-8.5674786136E+01	1.2169099563E+02	1.5287960404E+02	4.1800000000E+00	0.000E+00	0.0
	5	1	9	9	501	0	3.6041636684E+01	-1.0086983308E+01	-1.1564071900E+01	3.9394758103E+01	4.1800000000E+00	0.000E+00	0.0
</event>
<event>
    11  -1  1.0000000E+00  1.0000000E+00  -1.0000000E+00  -1.0000000E+00
	2212	-1	0	0	0	0	0.0000000000E+00	0.0000000000E+00	6.5000000000E+03	6.5000000000E+03	9.3827000000E-01	0.000E+00	0.0
	2212	-1	0	0	0	0	0.0000000000E+00	0.0000000000E+00	-6.5000000000E+03	6.5000000000E+03	9.3827000000E-01	0.000E+00	0.0
	2212	1	0	0	0	0	0.0000000000E+00	0.0000000000E+00	6.3097586789E+03	6.3097586789E+03	9.3827000000E-01	0.000E+00	0.0
	2212	1	0	0	0	0	0.0000000000E+00	0.0000000000E+00	-5.0619422951E+03	5.0619422951E+03	9.3827000000E-01	0.000E+00	0.0
	51	2	1	2	0	0	8.5778252516E+01	8.8575675620E+01	-1.1727370822E+03	1.5763336618E+03	1.0460936815E+03	0.000E+00	0.0
	1000022	2	5	5	0	0	-8.5778252516E+01	-8.8575675620E+01	-1.1136482737E+03	1.4072135143E+03	8.5137173915E+02	0.000E+00	0.0
	14	1	6	6	0	0	-2.3160307087E+02	9.7306053784E+01	-3.3132123813E+02	5.2773782636E+02	3.2500000000E+02	0.000E+00	0.0
	-14	1	6	6	0	0	1.4582481835E+02	-1.8588172940E+02	-7.8232703560E+02	8.7947568790E+02	3.2500000000E+02	0.000E+00	0.0
	25	2	5	5	0	0	8.5778252516E+01	8.8575675620E+01	-1.3416811011E+02	2.2108551179E+02	1.2519649691E+02	0.000E+00	0.0
	-5	1	9	9	0	501	7.4147447298E+01	-5.9371938272E+00	-8.7610768145E+01	1.1500527512E+02	4.1800000000E+00	0.000E+00	0.0
	5	1	9	9	501	0	1.1630805218E+01	9.4512869447E+01	-4.6557341962E+01	1.0608023667E+02	4.1800000000E+00	0.000E+00	0.0
</event>
<event>
    11  -1  1.0000000E+00  1.0000000E+00  -1.0000000E+00  -1.0000000E+00
	2212	-1	0	0	0	0	0.0000000000E+00	0.0000000000E+00	6.5000000000E+03	6.5000000000E+03	9.3827000000E-01	0.000E+00	0.0
	2212	-1	0	0	0	0	0.0000000000E+00	0.0000000000E+00	-6.5000000000E+03	6.5000000000E+03	9.3827000000E-01	0.000E+00	0.0
	2212	1	0	0	0	0	0.0000000000E+00	0.0000000000E+00	6.1270538622E+03	6.1270538622E+03	9.3827000000E-01	0.000E+00	0.0
	2212	1	0	0	0	0	0.0000000000E+00	0.0000000000E+00	-5.7682531529E+03	5.7682531529E+03	9.3827000000E-01	0.000E+00	0.0
	51	2	1	2	0	0	7.5565029674E+01	-1.0540570873E+02	-4.0721404537E+02	1.1288278690E+03	1.0448007667E+03	0.000E+00	0.0
	1000022	2	5	5	0	0	-7.5565029674E+01	1.0540570873E+02	-2.4980961440E+02	8.9404836609E+02	8.4858541133E+02	0.000E+00	0.0
	14	1	6	6	0	0	-2.3482024359E+02	2.3727572645E+02	-1.9461771023E+02	5.0491719153E+02	3.2500000000E+02	0.000E+00	0.0
	-14	1	6	6	0	0	1.5925521392E+02	-1.3187001772E+02	-5.5191904170E+01	3.8913117457E+02	3.2500000000E+02	0.000E+00	0.0
	25	2	5	5	0	0	7.5565029674E+01	-1.0540570873E+02	-1.0899109485E+02	2.1064461884E+02	1.2518649906E+02	0.000E+00	0.0
	-5	1	9	9	0	501	7.9328996872E+01	-1.7007110960E+01	-1.7113099299E+01	8.3022058126E+01	4.1800000000E+00	0.000E+00	0.0
	5	1	9	9	501	0	-3.7639671971E+00	-8.8398597766E+01	-9.1877995552E+01	1.2762256071E+02	4.1800000000E+00	0.000E+00	0.0
</event>
<event>
    11  -1  1.0000000E+00  1.0000000E+00  -1.0000000E+00  -1.0000000E+00
	2212	-1	0	0	0	0	0.0000000000E+00	0.0000000000E+00	6.5000000000E+03	6.5000000000E+03	9.3827000000E-01	0.000E+00	0.0
	2212	-1	0	0	0	0	0.0000000000E+00	0.0000000000E+00	-6.5000000000E+03	6.5000000000E+03	9.3827000000E-01	0.000E+00	0.0
	2212	1	0	0	0	0	0.0000000000E+00	0.0000000000E+00	4.9115397885E+03	4.9115397885E+03	9.3827000000E-01	0.000E+00	0.0
	2212	1	0	0	0	0	0.0000000000E+00	0.0000000000E+00	-6.2085275009E+03	6.2085275009E+03	9.3827000000E-01	0.000E+00	0.0
	51	2	1	2	0	0	1.6298695797E+02	3.6672062812E+02	1.3520273263E+03	1.9598460472E+03	1.3608709969E+03	0.000E+00	0.0
	1000022	2	5	5	0	0	-1.6298695797E+02	-3.6672062812E+02	8.9651675239E+02	1.2993302151E+03	8.5056919349E+02	0.000E+00	0.0
	14	1	6	6	0	0	-1.3735772411E+02	-1.6695787343E+02	8.1034680016E+01	3.9866489090E+02	3.2500000000E+02	0.000E+00	0.0
	-14	1	6	6	0	0	-2.5629233867E+01	-1.9976275469E+02	8.1548207238E+02	9.0066532417E+02	3.2500000000E+02	0.000E+00	0.0
	25	2	5	5	0	0	1.6298695797E+02	3.6672062812E+02	4.0047095999E+02	5.8060249552E+02	1.2519385147E+02	0.000E+00	0.0
	-5	1	9	9	0	501	7.0173668814E+01	2.8667485087E+02	2.5262095974E+02	3.8851207911E+02	4.1800000000E+00	0.000E+00	0.0
	5	1	9	9	501	0	9.2813289158E+01	8.0045777246E+01	1.4785000025E+02	1.9209041640E+02	4.1800000000E+00	0.000E+00	0.0
</event>
<event>
    11  -1  1.0000000E+00  1.0000000E+00  -1.0000000E+00  -1.0000000E+00
	2212	-1	0	0	0	0	0.0000000000E+00	0.0000000000E+00	6.5000000000E+03	6.5000000000E+03	9.3827000000E-01	0.000E+00	0.0
	2212	-1	0	0	0	0	0.0000000000E+00	0.0000000000E+00	-6.5000000000E+03	6.5000000000E+03	9.3827000000E-01	0.000E+00	0.0
	2212	1	0	0	0	0	0.0000000000E+00	0.0000000000E+00	4.9413520015E+03	4.9413520015E+03	9.3827000000E-01	0.000E+00	0.0
	2212	1	0	0	0	0	0.0000000000E+00	0.0000000000E+00	-6.3299958027E+03	6.3299958027E+03	9.3827000000E-01	0.000E+00	0.0
	51	2	1	2	0	0	-7.4513788047E+01	5.1463401516E+00	1.5599902164E+03	1.8705761338E+03	1.0295177549E+03	0.000E+00	0.0
	1000022	2	5	5	0	0	7.4513788047E+01	-5.1463401516E+00	9.9136294332E+02	1.3054739362E+03	8.4609864861E+02	0.000E+00	0.0
	14	1	6	6	0	0	-4.2876634038E+00	-3.9955465287E+01	8.9901172938E+02	9.5679773873E+02	3.2500000000E+02	0.000E+00	0.0
	-14	1	6	6	0	0	7.8801451450E+01	3.4809125135E+01	9.2351213937E+01	3.4867619744E+02	3.2500000000E+02	0.000E+00	0.0
	25	2	5	5	0	0	-7.4513788047E+01	5.1463401516E+00	3.9728085789E+02	4.2317825970E+02	1.2517575647E+02	0.000E+00	0.0
	-5	1	9	9	0	501	-1.0427683848E+02	-1.7211483239E+01	2.5539149918E+02	2.7642753924E+02	4.1800000000E+00	0.000E+00	0.0
	5	1	9	9	501	0	2.9763050436E+01	2.2357823391E+01	1.4188935871E+02	1.4675072046E+02	4.1800000000E+00	0.000E+00	0.0
</event>
<event>
    11  -1  1.0000000E+00  1.0000000E+00  -1.0000000E+00  -1.0000000E+00
	2212	-1	0	0	0	0	0.0000000000E+00	0.0000000000E+00	6.5000000000E+03	6.5000000000E+03	9.3827000000E-01	0.000E+00	0.0
	2212	-1	0	0	0	0	0.0000000000E+00	0.0000000000E+00	-6.5000000000E+03	6.5000000000E+03	9.3827000000E-01	0.000E+00	0.0
	2212	1	0	0	0	0	0.0000000000E+00	0.0000000000E+00	6.2593937304E+03	6.2593937304E+03	9.3827000000E-01	0.000E+00	0.0
	2212	1	0	0	0	0	0.0000000000E+00	0.0000000000E+00	-5.3673845317E+03	5.3673845317E+03	9.3827000000E-01	0.000E+00	0.0
	51	2	1	2	0	0	-9.1798109167E+01	6.2904259568E+01	-7.8786726295E+02	1.3126980589E+03	1.0440582029E+03	0.000E+00	0.0
	1000022	2	5	5	0	0	9.1798109167E+01	-6.2904259568E+01	-8.4358299422E+02	1.1988712846E+03	8.4455683658E+02	0.000E+00	0.0
	14	1	6	6	0	0	1.8388821172E+02	1.0811862617E+01	-1.1248351786E+02	3.9014011915E+02	3.2500000000E+02	0.000E+00	0.0
	-14	1	6	6	0	0	-9.2090102549E+01	-7.3716122185E+01	-7.3109947636E+02	8.0873116546E+02	3.2500000000E+02	0.000E+00	0.0
	25	2	5	5	0	0	-9.1798109167E+01	6.2904259568E+01	-4.8426204450E+01	1.7435045330E+02	1.2517645373E+02	0.000E+00	0.0
	-5	1	9	9	0	501	-2.6013460223E+01	2.6353273395E+01	4.2317514935E+01	5.6386519680E+01	4.1800000000E+00	0.000E+00	0.0
	5	1	9	9	501	0	-6.5784648944E+01	3.6550986172E+01	-9.0743719384E+01	1.1796393362E+02	4.1800000000E+00	0.000E+00	0.0
</event>
<event>
    11  -1  1.0000000E+00  1.0000000E+00  -1.0000000E+00  -1.0000000E+00
	2212	-1	0	0	0	0	0.0000000000E+00	0.0000000000E+00	6.5000000000E+03	6.5000000000E+03	9.3827000000E-01	0.000E+00	0.0
	2212	-1	0	0	0	0	0.0000000000E+00	0.0000000000E+00	-6.5000000000E+03	6.5000000000E+03	9.3827000000E-01	0.000E+00	0.0
	2212	1	0	0	0	0	0.0000000000E+00	0.0000000000E+00	6.2732591002E+03	6.2732591002E+03	9.3827000000E-01	0.000E+00	0.0
	2212	1	0	0	0	0	0.0000000000E+00	0.0000000000E+00	-5.2867258160E+03	5.2867258160E+03	9.3827000000E-01	0.000E+00	0.0
	51	2	1	2	0	0	-6.3453158385E+01	8.8190172636E+01	-1.0899053631E+03	1.5166057599E+03	1.0489973883E+03	0.000E+00	0.0
	1000022	2	5	5	0	0	6.3453158385E+01	-8.8190172636E+01	-7.2144059678E+02	1.1273653518E+03	8.5946046559E+02	0.000E+00	0.0
	14	1	6	6	0	0	-2.1655221594E+02	-1.7552408598E+02	-3.7266841556E+02	5.6763572381E+02	3.2500000000E+02	0.000E+00	0.0
	-14	1	6	6	0	0	2.8000537432E+02	8.7333913346E+01	-3.4877218122E+02	5.5972962800E+02	3.2500000000E+02	0.000E+00	0.0
	25	2	5	5	0	0	-6.3453158385E+01	8.8190172636E+01	-2.6509268741E+02	3.1264973198E+02	1.2518750789E+02	0.000E+00	0.0
	-5	1	9	9	0	501	-4.7670818607E+01	-2.0298814460E+01	-1.1977535356E+02	1.3056858939E+02	4.1800000000E+00	0.000E+00	0.0
	5	1	9	9	501	0	-1.5782339778E+01	1.0848898710E+02	-1.4531733385E+02	1.8208114259E+02	4.1800000000E+00	0.000E+00	0.0
</event>
<event>
    11  -1  1.0000000E+00  1.0000000E+00  -1.0000000E+00  -1.0000000E+00
	2212	-1	0	0	0	0	0.0000000000E+00	0.0000000000E+00	6.5000000000E+03	6.5000000000E+03	9.3827000000E-01	0.000E+00	0.0
	2212	-1	0	0	0	0	0.0000000000E+00	0.0000000000E+00	-6.5000000000E+03	6.5000000000E+03	9.3827000000E-01	0.000E+00	0.0
	2212	1	0	0	0	0	0.0000000000E+00	0.0000000000E+00	5.8906265872E+03	5.8906265872E+03	9.3827000000E-01	0.000E+00	0.0
	2212	1	0	0	0	0	0.0000000000E+00	0.0000000000E+00	-5.8424351590E+03	5.8424351590E+03	9.3827000000E-01	0.000E+00	0.0
	51	2	1	2	0	0	1.1961280585E+01	-2.4579141811E+02	1.7708471701E+02	1.3018162757E+03	1.2660213763E+03	0.000E+00	0.0
	1000022	2	5	5	0	0	-1.1961280585E+01	2.4579141811E+02	-2.6152266342E+02	9.1803211654E+02	8.4488601010E+02	0.000E+00	0.0
	14	1	6	6	0	0	2.6080133137E+02	1.5387426352E+02	-1.0414475590E+02	4.5625185326E+02	3.2500000000E+02	0.000E+00	0.0
	-14	1	6	6	0	0	-2.7276261195E+02	9.1917154585E+01	-1.5737790751E+02	4.6178026328E+02	3.2500000000E+02	0.000E+00	0.0
	25	2	5	5	0	0	1.1961280585E+01	-2.4579141811E+02	2.1333123523E+02	3.4890613728E+02	1.2517501052E+02	0.000E+00	0.0
	-5	1	9	9	0	501	3.6016627215E+01	-6.8474654808E+01	1.0173211689E+01	7.8146928430E+01	4.1800000000E+00	0.000E+00	0.0
	5	1	9	9	501	0	-2.4055346630E+01	-1.7731676330E+02	2.0315802354E+02	2.7075920885E+02	4.1800000000E+00	0.000E+00	0.0
</event>
<event>
    11  -1  1.0000000E+00  1.0000000E+00  -1.0000000E+00  -1.0000000E+00
	2212	-1	0	0	0	0	0.0000000000E+00	0.0000000000E+00	6.5000000000E+03	6.5000000000E+03	9.3827000000E-01	0.000E+00	0.0
	2212	-1	0	0	0	0	0.0000000000E+00	0.0000000000E+00	-6.5000000000E+03	6.5000000000E+03	9.3827000000E-01	0.000E+00	0.0
	2212	1	0	0	0	0	0.0000000000E+00	0.0000000000E+00	4.9152772082E+03	4.9152772082E+03	9.3827000000E-01	0.000E+00	0.0
	2212	1	0	0	0	0	0.0000000000E+00	0.0000000000E+00	-6.3278851164E+03	6.3278851164E+03	9.3827000000E-01	0.000E+00	0.0
	51	2	1	2	0	0	1.1754703207E+02	-8.2751324068E+01	1.3482096152E+03	1.7115349159E+03	1.0445178387E+03	0.000E+00	0.0
	1000022	2	5	5	0	0	-1.1754703207E+02	8.2751324068E+01	1.2262139826E+03	1.4902341970E+03	8.3458501323E+02	0.000E+00	0.0
	14	1	6	6	0	0	-2.1464596766E+02	-3.7570369628E+01	2.8945723197E+02	4.8671851541E+02	3.2500000000E+02	0.000E+00	0.0
	-14	1	6	6	0	0	9.7098935593E+01	1.2032169370E+02	9.3675675067E+02	1.0035156816E+03	3.2500000000E+02	0.000E+00	0.0
	25	2	5	5	0	0	1.1754703207E+02	-8.2751324068E+01	1.8639392561E+02	2.6660347844E+02	1.2517840401E+02	0.000E+00	0.0
	-5	1	9	9	0	501	-2.1196211532E+01	6.6346297620E+00	4.0030653498E+01	4.5969808732E+01	4.1800000000E+00	0.000E+00	0.0
	5	1	9	9	501	0	1.3874324360E+02	-8.9385953830E+01	1.4636327211E+02	2.2063366971E+02	4.1800000000E+00	0.000E+00	0.0
</event>
<event>
    11  -1  1.0000000E+00  1.0000000E+00  -1.0000000E+00  -1.0000000E+00
	2212	-1	0	0	0	0	0.0000000000E+00	0.0000000000E+00	6.5000000000E+03	6.5000000000E+03	9.3827000000E-01	0.000E+00	0.0
	2212	-1	0	0	0	0	0.0000000000E+00	0.0000000000E+00	-6.5000000000E+03	6.5000000000E+03	9.3827000000E-01	0.000E+00	0.0
	2212	1	0	0	0	0	0.0000000000E+00	0.0000000000E+00	5.4497751421E+03	5.4497751421E+03	9.3827000000E-01	0.000E+00	0.0
	2212	1	0	0	0	0	0.0000000000E+00	0.0000000000E+00	-6.2228600210E+03	6.2228600210E+03	9.3827000000E-01	0.000E+00	0.0
	51	2	1	2	0	0	-7.9870468783E+01	1.3518948226E+02	6.9996723368E+02	1.2957032054E+03	1.0789982300E+03	0.000E+00	0.0
	1000022	2	5	5	0	0	7.9870468783E+01	-1.3518948226E+02	7.0408921855E+02	1.1150219486E+03	8.5022163594E+02	0.000E+00	0.0
	14	1	6	6	0	0	-2.2145280559E+02	3.7632796095E+00	3.9304150625E+02	5.5602350041E+02	3.2500000000E+02	0.000E+00	0.0
	-14	1	6	6	0	0	3.0132327438E+02	-1.3895276187E+02	3.1104771230E+02	5.5899844816E+02	3.2500000000E+02	0.000E+00	0.0
	25	2	5	5	0	0	-7.9870468783E+01	1.3518948226E+02	6.8995660375E+01	2.1234288836E+02	1.2519430174E+02	0.000E+00	0.0
	-5	1	9	9	0	501	-3.6153973235E+01	1.0785466918E+02	-1.3854976207E+01	1.1466984002E+02	4.1800000000E+00	0.000E+00	0.0
	5	1	9	9	501	0	-4.3716495547E+01	2.7334813080E+01	8.2850636583E+01	9.7673048336E+01	4.1800000000E+00	0.000E+00	0.0
</event>
<event>
    11  -1  1.0000000E+00  1.0000000E+00  -1.0000000E+00  -1.0000000E+00
	2212	-1	0	0	0	0	0.0000000000E+00	0.0000000000E+00	6.5000000000E+03	6.5000000000E+03	9.3827000000E-01	0.000E+00	0.0
	2212	-1	0	0	0	0	0.0000000000E+00	0.0000000000E+00	-6.5000000000E+03	6.5000000000E+03	9.3827000000E-01	0.000E+00	0.0
	2212	1	0	0	0	0	0.0000000000E+00	0.0000000000E+00	6.3140492313E+03	6.3140492313E+03	9.3827000000E-01	0.000E+00	0.0
	2212	1	0	0	0	0	0.0000000000E+00	0.0000000000E+00	-4.9874274008E+03	4.9874274008E+03	9.3827000000E-01	0.000E+00	0.0
	51	2	1	2	0	0	-8.3407090686E+01	-7.6671338263E+01	-1.4949896923E+03	1.8365417411E+03	1.0606866409E+03	0.000E+00	0.0
	1000022	2	5	5	0	0	8.3407090686E+01	7.6671338263E+01	-9.2776699131E+02	1.2654039281E+03	8.5303005464E+02	0.000E+00	0.0
	14	1	6	6	0	0	9.8545791690E+01	9.1848427958E+01	-8.6486011798E+02	9.3367844060E+02	3.2500000000E+02	0.000E+00	0.0
	-14	1	6	6	0	0	-1.5138701004E+01	-1.5177089695E+01	-6.2906873329E+01	3.3172548746E+02	3.2500000000E+02	0.000E+00	0.0
	25	2	5	5	0	0	-8.3407090686E+01	-7.6671338263E+01	-3.9885483915E+02	4.3311943979E+02	1.2518797674E+02	0.000E+00	0.0
	-5	1	9	9	0	501	-4.1183424976E+01	1.5163415636E+01	-3.7517882722E+01	5.7888406356E+01	4.1800000000E+00	0.000E+00	0.0
	5	1	9	9	501	0	-4.2223665710E+01	-9.1834753899E+01	-3.6133695643E+02	3.7523103344E+02	4.1800000000E+00	0.000E+00	0.0
</event>
<event>
    11  -1  1.0000000E+00  1.0000000E+00  -1.0000000E+00  -1.0000000E+00
	2212	-1	0	0	0	0	0.0000000000E+00	0.0000000000E+00	6.5000000000E+03	6.5000000000E+03	9.3827000000E-01	0.000E+00	0.0
	2212	-1	0	0	0	0	0.0000000000E+00	0.0000000000E+00	-6.5000000000E+03	6.5000000000E+03	9.3827000000E-01	0.000E+00	0.0
	2212	1	0	0	0	0	0.0000000000E+00	0.0000000000E+00	5.9248615303E+03	5.9248615303E+03	9.3827000000E-01	0.000E+00	0.0
	2212	1	0	0	0	0	0.0000000000E+00	0.0000000000E+00	-6.0215113559E+03	6.0215113559E+03	9.3827000000E-01	0.000E+00	0.0
	51	2	1	2	0	0	3.8498036842E+01	-1.1629229549E+02	2.1258467381E+01	1.0565258281E+03	1.0491848770E+03	0.000E+00	0.0
	1000022	2	5	5	0	0	-3.8498036842E+01	1.1629229549E+02	1.5536196380E+02	8.6890004861E+02	8.4607562183E+02	0.000E+00	0.0
	14	1	6	6	0	0	2.1568001243E+02	1.4667068978E+02	-2.5253901486E+01	4.1748403388E+02	3.2500000000E+02	0.000E+00	0.0
	-14	1	6	6	0	0	-2.5417804927E+02	-3.0378394292E+01	1.8061586528E+02	4.5141601474E+02	3.2500000000E+02	0.000E+00	0.0
	25	2	5	5	0	0	3.8498036842E+01	-1.1629229549E+02	-5.8712138222E+01	1.8472706517E+02	1.2518377132E+02	0.000E+00	0.0
	-5	1	9	9	0	501	5.0506778223E+01	-8.3949436854E+00	-5.6079380524E+01	7.6051160714E+01	4.1800000000E+00	0.000E+00	0.0
	5	1	9	9	501	0	-1.2008741381E+01	-1.0789735181E+02	-2.6327576982E+00	1.0867590446E+02	4.1800000000E+00	0.000E+00	0.0
</event>
<event>
    11  -1  1.0000000E+00  1.0000000E+00  -1.0000000E+00  -1.0000000E+00
	2212	-1	0	0	0	0	0.0000000000E+00	0.0000000000E+00	6.5000000000E+03	6.5000000000E+03	9.3827000000E-01	0.000E+00	0.0
	2212	-1	0	0	0	0	0.0000000000E+00	0.0000000000E+00	-6.5000000000E+03	6.5000000000E+03	9.3827000000E-01	0.000E+00	0.0
	2212	1	0	0	0	0	0.0000000000E+00	0.0000000000E+00	5.4340438022E+03	5.4340438022E+03	9.3827000000E-01	0.000E+00	0.0
	2212	1	0	0	0	0	0.0000000000E+00	0.0000000000E+00	-6.2612236514E+03	6.2612236514E+03	9.3827000000E-01	0.000E+00	0.0
	51	2	1	2	0	0	-5.3845569100E+01	8.3944472189E+01	8.0711727369E+02	1.2959493926E+03	1.0090096704E+03	0.000E+00	0.0
	1000022	2	5	5	0	0	5.3845569100E+01	-8.3944472189E+01	7.1931185615E+02	1.1117274477E+03	8.4177333757E+02	0.000E+00	0.0
	14	1	6	6	0	0	-2.2839860700E+01	-1.8880383988E+02	6.5549630601E+02	7.5595565768E+02	3.2500000000E+02	0.000E+00	0.0
	-14	1	6	6	0	0	7.6685429800E+01	1.0485936769E+02	6.3815550144E+01	3.5577179002E+02	3.2500000000E+02	0.000E+00	0.0
	25	2	5	5	0	0	-5.3845569100E+01	8.3944472189E+01	1.0786799300E+02	1.9300509875E+02	1.2517765178E+02	0.000E+00	0.0
	-5	1	9	9	0	501	-6.0989881695E+01	6.6288866139E+01	7.1951316480E+00	9.0461161625E+01	4.1800000000E+00	0.000E+00	0.0
	5	1	9	9	501	0	7.1443125956E+00	1.7655606050E+01	1.0067286135E+02	1.0254393712E+02	4.1800000000E+00	0.000E+00	0.0
</event>
<event>
    11  -1  1.0000000E+00  1.0000000E+00  -1.0000000E+00  -1.0000000E+00
	2212	-1	0	0	0	0	0.0000000000E+00	0.0000000000E+00	6.5000000000E+03	6.5000000000E+03	9.3827000000E-01	0.000E+00	0.0
	2212	-1	0	0	0	0	0.0000000000E+00	0.0000000000E+00	-6.5000000000E+03	6.5000000000E+03	9.3827000000E-01	0.000E+00	0.0
	2212	1	0	0	0	0	0.0000000000E+00	0.0000000000E+00	5.9761324996E+03	5.9761324996E+03	9.3827000000E-01	0.000E+00	0.0
	2212	1	0	0	0	0	0.0000000000E+00	0.0000000000E+00	-5.9687759155E+03	5.9687759155E+03	9.3827000000E-01	0.000E+00	0.0
	51	2	1	2	0	0	-1.4704892926E+02	2.2623718119E+01	1.8891950420E+01	1.0656717409E+03	1.0550659379E+03	0.000E+00	0.0
	1000022	2	5	5	0	0	1.4704892926E+02	-2.2623718119E+01	-3.2312071711E+01	8.5906083943E+02	8.4546214323E+02	0.000E+00	0.0
	14	1	6	6	0	0	-9.9992299517E+00	-5.6370107876E+01	-2.6930220931E+02	4.2594160821E+02	3.2500000000E+02	0.000E+00	0.0
	-14	1	6	6	0	0	1.5704815921E+02	3.3746389757E+01	2.3699013760E+02	4.3311923122E+02	3.2500000000E+02	0.000E+00	0.0
	25	2	5	5	0	0	-1.4704892926E+02	2.2623718119E+01	2.4955487639E+01	1.9603074552E+02	1.2518009670E+02	0.000E+00	0.0
	-5	1	9	9	0	501	-9.4940009907E+01	7.4520271030E+01	1.4622230318E+01	1.2164768101E+02	4.1800000000E+00	0.000E+00	0.0
	5	1	9	9	501	0	-5.2108919349E+01	-5.1896552910E+01	1.0333257322E+01	7.4383064514E+01	4.1800000000E+00	0.000E+00	0.0
</event>
<event>
    11  -1  1.0000000E+00  1.0000000E+00  -1.0000000E+00  -1.0000000E+00
	2212	-1	0	0	0	0	0.0000000000E+00	0.0000000000E+00	6.5000000000E+03	6.5000000000E+03	9.3827000000E-01	0.000E+00	0.0
	2212	-1	0	0	0	0	0.0000000000E+00	0.0000000000E+00	-6.5000000000E+03	6.5000000000E+03	9.3827000000E-01	0.000E+00	0.0
	2212	1	0	0	0	0	0.0000000000E+00	0.0000000000E+00	5.2221382692E+03	5.2221382692E+03	9.3827000000E-01	0.000E+00	0.0
	2212	1	0	0	0	0	0.0000000000E+00	0.0000000000E+00	-6.2890493109E+03	6.2890493109E+03	9.3827000000E-01	0.000E+00	0.0
	51	2	1	2	0	0	-2.8916726075E+02	-5.1941592415E+01	1.1682662458E+03	1.5904165823E+03	1.0383945544E+03	0.000E+00	0.0
	1000022	2	5	5	0	0	2.8916726075E+02	5.1941592415E+01	6.7743003908E+02	9.8514543243E+02	6.5213835301E+02	0.000E+00	0.0
	14	1	6	6	0	0	1.4628525562E+02	4.9170347336E+01	3.2350643574E+02	4.8383727950E+02	3.2500000000E+02	0.000E+00	0.0
	-14	1	6	6	0	0	1.4288200513E+02	2.7712450792E+00	3.5392360334E+02	5.0130815293E+02	3.2500000000E+02	0.000E+00	0.0
	25	2	5	5	0	0	-2.8916726075E+02	-5.1941592415E+01	3.8948100265E+02	5.0366698743E+02	1.2517727063E+02	0.000E+00	0.0
	-5	1	9	9	0	501	-1.0287772442E+02	-1.3026034017E+01	5.1716480496E+01	1.1595503654E+02	4.1800000000E+00	0.000E+00	0.0
	5	1	9	9	501	0	-1.8628953633E+02	-3.8915558397E+01	3.3776452216E+02	3.8771195089E+02	4.1800000000E+00	0.000E+00	0.0
</event>
<event>
    11  -1  1.0000000E+00  1.0000000E+00  -1.0000000E+00  -1.0000000E+00
	2212	-1	0	0	0	0	0.0000000000E+00	0.0000000000E+00	6.5000000000E+03	6.5000000000E+03	9.3827000000E-01	0.000E+00	0.0
	2212	-1	0	0	0	0	0.0000000000E+00	0.0000000000E+00	-6.5000000000E+03	6.5000000000E+03	9.3827000000E-01	0.000E+00	0.0
	2212	1	0	0	0	0	0.0000000000E+00	0.0000000000E+00	6.3074975473E+03	6.3074975473E+03	9.3827000000E-01	0.000E+00	0.0
	2212	1	0	0	0	0	0.0000000000E+00	0.0000000000E+00	-5.0721503955E+03	5.0721503955E+03	9.3827000000E-01	0.000E+00	0.0
	51	2	1	2	0	0	-7.1951163878E+01	-6.7159996005E+01	-1.3894950634E+03	1.7435143160E+03	1.0485505252E+03	0.000E+00	0.0
	1000022	2	5	5	0	0	7.1951163878E+01	6.7159996005E+01	-8.7414048054E+02	1.2255996737E+03	8.5339647604E+02	0.000E+00	0.0
	14	1	6	6	0	0	-1.8087325893E+02	2.0298153657E+02	-3.9298634910E+02	5.7790995022E+02	3.2500000000E+02	0.000E+00	0.0
	-14	1	6	6	0	0	2.5282442281E+02	-1.3582154057E+02	-4.8115413144E+02	6.4768972344E+02	3.2500000000E+02	0.000E+00	0.0
	25	2	5	5	0	0	-7.1951163878E+01	-6.7159996005E+01	-3.6120667121E+02	3.9475238354E+02	1.2518686008E+02	0.000E+00	0.0
	-5	1	9	9	0	501	9.7029011334E+00	-2.0553126097E+01	-2.4091152241E+02	2.4201737812E+02	4.1800000000E+00	0.000E+00	0.0
	5	1	9	9	501	0	-8.1654065012E+01	-4.6606869908E+01	-1.2029514880E+02	1.5273500542E+02	4.1800000000E+00	0.000E+00	0.0
</event>
<event>
    11  -1  1.0000000E+00  1.0000000E+00  -1.0000000E+00  -1.0000000E+00
	2212	-1	0	0	0	0	0.0000000000E+00	0.0000000000E+00	6.5000000000E+03	6.5000000000E+03	9.3827000000E-01	0.000E+00	0.0
	2212	-1	0	0	0	0	0.0000000000E+00	0.0000000000E+00	-6.5000000000E+03	6.5000000000E+03	9.3827000000E-01	0.000E+00	0.0
	2212	1	0	0	0	0	0.0000000000E+00	0.0000000000E+00	6.3114041591E+03	6.3114041591E+03	9.3827000000E-01	0.000E+00	0.0
	2212	1	0	0	0	0	0.0000000000E+00	0.0000000000E+00	-5.0305213237E+03	5.0305213237E+03	9.3827000000E-01	0.000E+00	0.0
	51	2	1	2	0	0	-8.3636348724E+01	-4.2511482491E+01	-1.1941472225E+03	1.5947852898E+03	1.0528771374E+03	0.000E+00	0.0
	1000022	2	5	5	0	0	8.3636348724E+01	4.2511482491E+01	-1.1710749922E+03	1.4669425852E+03	8.7846550641E+02	0.000E+00	0.0
	14	1	6	6	0	0	-1.2706656351E+02	-2.2272443405E+02	-5.5637105750E+02	6.9348816768E+02	3.2500000000E+02	0.000E+00	0.0
	-14	1	6	6	0	0	2.1070291224E+02	2.6523591654E+02	-6.1470393474E+02	7.7345441755E+02	3.2500000000E+02	0.000E+00	0.0
	25	2	5	5	0	0	-8.3636348724E+01	-4.2511482491E+01	-1.0980784315E+02	1.9113193195E+02	1.2518541457E+02	0.000E+00	0.0
	-5	1	9	9	0	501	8.4067046538E-02	-5.3431068203E+01	-8.9297960470E+01	1.0414645582E+02	4.1800000000E+00	0.000E+00	0.0
	5	1	9	9	501	0	-8.3720415771E+01	1.0919585713E+01	-2.0509882681E+01	8.6985476124E+01	4.1800000000E+00	0.000E+00	0.0
</event>
<event>
    11  -1  1.0000000E+00  1.0000000E+00  -1.0000000E+00  -1.0000000E+00
	2212	-1	0	0	0	0	0.0000000000E+00	0.0000000000E+00	6.5000000000E+03	6.5000000000E+03	9.3827000000E-01	0.000E+00	0.0
	2212	-1	0	0	0	0	0.0000000000E+00	0.0000000000E+00	-6.5000000000E+03	6.5000000000E+03	9.3827000000E-01	0.000E+00	0.0
	2212	1	0	0	0	0	0.0000000000E+00	0.0000000000E+00	6.1879949159E+03	6.1879949159E+03	9.3827000000E-01	0.000E+00	0.0
	2212	1	0	0	0	0	0.0000000000E+00	0.0000000000E+00	-5.6245355792E+03	5.6245355792E+03	9.3827000000E-01	0.000E+00	0.0
	51	2	1	2	0	0	1.2472605356E+02	-6.6305253058E+00	-7.1726980327E+02	1.2738421895E+03	1.0452738401E+03	0.000E+00	0.0
	1000022	2	5	5	0	0	-1.2472605356E+02	6.6305253058E+00	-3.0012535391E+02	8.7028010068E+02	8.0728661160E+02	0.000E+00	0.0
	14	1	6	6	0	0	-1.5883182022E+02	1.8265011012E+02	-2.0840383607E+01	4.0576832236E+02	3.2500000000E+02	0.000E+00	0.0
	-14	1	6	6	0	0	3.4105766657E+01	-1.7601958482E+02	-2.7928497031E+02	4.6451177832E+02	3.2500000000E+02	0.000E+00	0.0
	25	2	5	5	0	0	1.2472605356E+02	-6.6305253058E+00	-2.6333398284E+02	3.1718940420E+02	1.2515502114E+02	0.000E+00	0.0
	-5	1	9	9	0	501	1.0382357729E+02	-3.6821323430E+00	-2.7407830822E+02	2.9313697266E+02	4.1800000000E+00	0.000E+00	0.0
	5	1	9	9	501	0	2.0902476275E+01	-2.9483929628E+00	1.0744325381E+01	2.4052431548E+01	4.1800000000E+00	0.000E+00	0.0
</event>
<event>
    11  -1  1.0000000E+00  1.0000000E+00  -1.0000000E+00  -1.0000000E+00
	2212	-1	0	0	0	0	0.0000000000E+00	0.0000000000E+00	6.5000000000E+03	6.5000000000E+03	9.3827000000E-01	0.000E+00	0.0
	2212	-1	0	0	0	0	0.0000000000E+00	0.0000000000E+00	-6.5000000000E+03	6.5000000000E+03	9.3827000000E-01	0.000E+00	0.0
	2212	1	0	0	0	0	0.0000000000E+00	0.0000000000E+00	5.9059992751E+03	5.9059992751E+03	9.3827000000E-01	0.000E+00	0.0
	2212	1	0	0	0	0	0.0000000000E+00	0.0000000000E+00	-6.0302919467E+03	6.0302919467E+03	9.3827000000E-01	0.000E+00	0.0
	51	2	1	2	0	0	3.8557707672E+01	1.3140409681E+02	7.1119653839E+01	1.0676326312E+03	1.0564221205E+03	0.000E+00	0.0
	1000022	2	5	5	0	0	-3.8557707672E+01	-1.3140409681E+02	1.5593158264E+02	8.7549394321E+02	8.5054174068E+02	0.000E+00	0.0
	14	1	6	6	0	0	8.2628426954E+01	-1.2559247922E+02	3.3036251868E+02	4.8720152045E+02	3.2500000000E+02	0.000E+00	0.0
	-14	1	6	6	0	0	-1.2118613463E+02	-5.8116175909E+00	-1.7443093604E+02	3.8829242276E+02	3.2500000000E+02	0.000E+00	0.0
	25	2	5	5	0	0	3.8557707672E+01	1.3140409681E+02	-3.1638910962E+01	1.8821483500E+02	1.2518014998E+02	0.000E+00	0.0
	-5	1	9	9	0	501	2.1672575794E+01	2.1090655681E+00	-5.1669691153E+01	5.6226133452E+01	4.1800000000E+00	0.000E+00	0.0
	5	1	9	9	501	0	1.6885131879E+01	1.2929503124E+02	2.0030780190E+01	1.3198870155E+02	4.1800000000E+00	0.000E+00	0.0
</event>
<event>
    11  -1  1.0000000E+00  1.0000000E+00  -1.0000000E+00  -1.0000000E+00
	2212	-1	0	0	0	0	0.0000000000E+00	0.0000000000E+00	6.5000000000E+03	6.5000000000E+03	9.3827000000E-01	0.000E+00	0.0
	2212	-1	0	0	0	0	0.0000000000E+00	0.0000000000E+00	-6.5000000000E+03	6.5000000000E+03	9.3827000000E-01	0.000E+00	0.0
	2212	1	0	0	0	0	0.0000000000E+00	0.0000000000E+00	5.9676599700E+03	5.9676599700E+03	9.3827000000E-01	0.000E+00	0.0
	2212	1	0	0	0	0	0.0000000000E+00	0.0000000000E+00	-5.9914168317E+03	5.9914168317E+03	9.3827000000E-01	0.000E+00	0.0
	51	2	1	2	0	0	1.3949414118E+01	4.7137271337E+01	-3.5535757881E+01	1.0424183493E+03	1.0406520630E+03	0.000E+00	0.0
	1000022	2	5	5	0	0	-1.3949414118E+01	-4.7137271337E+01	7.9759087765E+01	8.9525719854E+02	8.9034118795E+02	0.000E+00	0.0
	14	1	6	6	0	0	2.7220785914E+02	-6.9666889000E-01	-7.9908263386E+01	4.3140228845E+02	3.2500000000E+02	0.000E+00	0.0
	-14	1	6	6	0	0	-2.8615727326E+02	-4.6440602447E+01	1.5966735115E+02	4.6385491009E+02	3.2500000000E+02	0.000E+00	0.0
	25	2	5	5	0	0	1.3949414118E+01	4.7137271337E+01	-5.6002226079E+01	1.4566599975E+02	1.2516319609E+02	0.000E+00	0.0
	-5	1	9	9	0	501	-4.9950243254E+01	8.1337224328E+00	2.0777688677E+00	5.0822964940E+01	4.1800000000E+00	0.000E+00	0.0
	5	1	9	9	501	0	6.3899657373E+01	3.9003548904E+01	-5.8079994946E+01	9.4843034812E+01	4.1800000000E+00	0.000E+00	0.0
</event>
<event>
    11  -1  1.0000000E+00  1.0000000E+00  -1.0000000E+00  -1.0000000E+00
	2212	-1	0	0	0	0	0.0000000000E+00	0.0000000000E+00	6.5000000000E+03	6.5000000000E+03	9.3827000000E-01	0.000E+00	0.0
	2212	-1	0	0	0	0	0.0000000000E+00	0.0000000000E+00	-6.5000000000E+03	6.5000000000E+03	9.3827000000E-01	0.000E+00	0.0
	2212	1	0	0	0	0	0.0000000000E+00	0.0000000000E+00	5.1809532904E+03	5.1809532904E+03	9.3827000000E-01	0.000E+00	0.0
	2212	1	0	0	0	0	0.0000000000E+00	0.0000000000E+00	-6.2866508626E+03	6.2866508626E+03	9.3827000000E-01	0.000E+00	0.0
	51	2	1	2	0	0	-1.0551601487E+02	2.4411621482E+01	1.1059147187E+03	1.5363745743E+03	1.0609759237E+03	0.000E+00	0.0
	1000022	2	5	5	0	0	1.0551601487E+02	-2.4411621482E+01	9.3869472752E+02	1.2972673753E+03	8.8883367110E+02	0.000E+00	0.0
	14	1	6	6	0	0	1.7403991751E+02	-2.3136939409E+02	2.4154331194E+02	4.9778495453E+02	3.2500000000E+02	0.000E+00	0.0
	-14	1	6	6	0	0	-6.8523902636E+01	2.0695777261E+02	6.9715141558E+02	7.9948242077E+02	3.2500000000E+02	0.000E+00	0.0
	25	2	5	5	0	0	-1.0551601487E+02	2.4411621482E+01	1.6700284471E+02	2.3512847172E+02	1.2516345879E+02	0.000E+00	0.0
	-5	1	9	9	0	501	-1.2600638705E+02	2.8133754854E+01	9.5796531092E+01	1.6082153310E+02	4.1800000000E+00	0.000E+00	0.0
	5	1	9	9	501	0	2.0490372174E+01	-3.7221333725E+00	7.1206313619E+01	7.4306938625E+01	4.1800000000E+00	0.000E+00	0.0
</event>
<event>
    11  -1  1.0000000E+00  1.0000000E+00  -1.0000000E+00  -1.0000000E+00
	2212	-1	0	0	0	0	0.0000000000E+00	0.0000000000E+00	6.5000000000E+03	6.5000000000E+03	9.3827000000E-01	0.000E+00	0.0
	2212	-1	0	0	0	0	0.0000000000E+00	0.0000000000E+00	-6.5000000000E+03	6.5000000000E+03	9.3827000000E-01	0.000E+00	0.0
	2212	1	0	0	0	0	0.0000000000E+00	0.0000000000E+00	6.0656639281E+03	6.0656639281E+03	9.3827000000E-01	0.000E+00	0.0
	2212	1	0	0	0	0	0.0000000000E+00	0.0000000000E+00	-5.8631866518E+03	5.8631866518E+03	9.3827000000E-01	0.000E+00	0.0
	51	2	1	2	0	0	1.1577086358E+02	-8.2488776359E+01	-2.0054718209E+02	1.0801807701E+03	1.0518384062E+03	0.000E+00	0.0
	1000022	2	5	5	0	0	-1.1577086358E+02	8.2488776359E+01	-1.6978054718E+02	8.7893454225E+02	8.5058403716E+02	0.000E+00	0.0
	14	1	6	6	0	0	-1.1410680746E+02	2.4462045620E+02	9.0553034359E+01	4.3206988223E+02	3.2500000000E+02	0.000E+00	0.0
	-14	1	6	6	0	0	-1.6640561169E+00	-1.6213167984E+02	-2.6033358154E+02	4.4686466001E+02	3.2500000000E+02	0.000E+00	0.0
	25	2	5	5	0	0	1.1577086358E+02	-8.2488776359E+01	-3.2696729147E+01	1.9221487785E+02	1.2518063784E+02	0.000E+00	0.0
	-5	1	9	9	0	501	5.9152903208E+01	-1.0943779176E+02	-3.5098390275E+01	1.2932542528E+02	4.1800000000E+00	0.000E+00	0.0
	5	1	9	9	501	0	5.6617960370E+01	2.6949015406E+01	2.4016611279E+00	6.2889452565E+01	4.1800000000E+00	0.000E+00	0.0
</event>
<event>
    11  -1  1.0000000E+00  1.0000000E+00  -1.0000000E+00  -1.0000000E+00
	2212	-1	0	0	0	0	0.0000000000E+00	0.0000000000E+00	6.5000000000E+03	6.5000000000E+03	9.3827000000E-01	0.000E+00	0.0
	2212	-1	0	0	0	0	0.0000000000E+00	0.0000000000E+00	-6.5000000000E+03	6.5000000000E+03	9.3827000000E-01	0.000E+00	0.0
	2212	1	0	0	0	0	0.0000000000E+00	0.0000000000E+00	5.1582255049E+03	5.1582255049E+03	9.3827000000E-01	0.000E+00	0.0
	2212	1	0	0	0	0	0.0000000000E+00	0.0000000000E+00	-6.2914457603E+03	6.2914457603E+03	9.3827000000E-01	0.000E+00	0.0
	51	2	1	2	0	0	9.8969664528E+01	-5.5807551893E+01	1.2076195338E+03	1.6095295754E+03	1.0579844226E+03	0.000E+00	0.0
	1000022	2	5	5	0	0	-9.8969664528E+01	5.5807551893E+01	8.7883698548E+02	1.2448965436E+03	8.7435889646E+02	0.000E+00	0.0
	14	1	6	6	0	0	-1.7064668689E+01	-2.5561648753E+02	5.1295394647E+02	6.5907339714E+02	3.2500000000E+02	0.000E+00	0.0
	-14	1	6	6	0	0	-8.1904995839E+01	3.1142403942E+02	3.6588303901E+02	5.8582314644E+02	3.2500000000E+02	0.000E+00	0.0
	25	2	5	5	0	0	9.8969664528E+01	-5.5807551893E+01	2.5438326989E+02	3.0543219115E+02	1.2517387125E+02	0.000E+00	0.0
	-5	1	9	9	0	501	1.2707371506E+02	-2.9972909324E+01	1.9459117684E+02	2.3437001271E+02	4.1800000000E+00	0.000E+00	0.0
	5	1	9	9	501	0	-2.8104050534E+01	-2.5834642569E+01	5.9792093053E+01	7.1062178441E+01	4.1800000000E+00	0.000E+00	0.0
</event>
<event>
    11  -1  1.0000000E+00  1.0000000E+00  -1.0000000E+00  -1.0000000E+00
	2212	-1	0	0	0	0	0.0000000000E+00	0.0000000000E+00	6.5000000000E+03	6.5000000000E+03	9.3827000000E-01	0.000E+00	0.0
	2212	-1	0	0	0	0	0.0000000000E+00	0.0000000000E+00	-6.5000000000E+03	6.5000000000E+03	9.3827000000E-01	0.000E+00	0.0
	2212	1	0	0	0	0	0.0000000000E+00	0.0000000000E+00	6.2568762271E+03	6.2568762271E+03	9.3827000000E-01	0.000E+00	0.0
	2212	1	0	0	0	0	0.0000000000E+00	0.0000000000E+00	-5.3593250482E+03	5.3593250482E+03	9.3827000000E-01	0.000E+00	0.0
	51	2	1	2	0	0	3.3731460679E+01	-5.1415019311E+01	-7.5184411017E+02	1.2955121278E+03	1.0532334934E+03	0.000E+00	0.0
	1000022	2	5	5	0	0	-3.3731460679E+01	5.1415019311E+01	-8.9568172756E+02	1.2445593541E+03	8.6191699892E+02	0.000E+00	0.0
	14	1	6	6	0	0	-2.7075457105E+02	-8.6836791829E+01	-5.2986008663E+02	6.8353886325E+02	3.2500000000E+02	0.000E+00	0.0
	-14	1	6	6	0	0	2.3702311037E+02	1.3825181114E+02	-3.6582164093E+02	5.6102049081E+02	3.2500000000E+02	0.000E+00	0.0
	25	2	5	5	0	0	3.3731460679E+01	-5.1415019311E+01	-1.8694513737E+00	1.3923937060E+02	1.2491113572E+02	0.000E+00	0.0
	-5	1	9	9	0	501	-3.4311977748E+01	1.3700972626E+01	-2.1490428150E+01	4.2945772434E+01	4.1800000000E+00	0.000E+00	0.0
	5	1	9	9	501	0	6.8043438426E+01	-6.5115991937E+01	1.9620976776E+01	9.6293598170E+01	4.1800000000E+00	0.000E+00	0.0
</event>
<event>
    11  -1  1.0000000E+00  1.0000000E+00  -1.0000000E+00  -1.0000000E+00
	2212	-1	0	0	0	0	0.0000000000E+00	0.0000000000E+00	6.5000000000E+03	6.5000000000E+03	9.3827000000E-01	0.000E+00	0.0
	2212	-1	0	0	0	0	0.0000000000E+00	0.0000000000E+00	-6.5000000000E+03	6.5000000000E+03	9.3827000000E-01	0.000E+00	0.0
	2212	1	0	0	0	0	0.0000000000E+00	0.0000000000E+00	5.3538650140E+03	5.3538650140E+03	9.3827000000E-01	0.000E+00	0.0
	2212	1	0	0	0	0	0.0000000000E+00	0.0000000000E+00	-6.2593034968E+03	6.2593034968E+03	9.3827000000E-01	0.000E+00	0.0
	51	2	1	2	0	0	-8.4699135788E+01	1.1180617131E+02	9.0560461414E+02	1.3940147108E+03	1.0504678640E+03	0.000E+00	0.0
	1000022	2	5	5	0	0	8.4699135788E+01	-1.1180617131E+02	7.5119678353E+02	1.1436555930E+03	8.5086834713E+02	0.000E+00	0.0
	14	1	6	6	0	0	-1.8523055080E+02	-1.2983371817E+02	5.4375386298E+02	6.7265177828E+02	3.2500000000E+02	0.000E+00	0.0
	-14	1	6	6	0	0	2.6992968659E+02	1.8027546857E+01	2.0744292055E+02	4.7100381467E+02	3.2500000000E+02	0.000E+00	0.0
	25	2	5	5	0	0	-8.4699135788E+01	1.1180617131E+02	1.5424169923E+02	2.4317589622E+02	1.2517767843E+02	0.000E+00	0.0
	-5	1	9	9	0	501	4.4270494186E+00	8.1353659165E+01	1.1513671966E+02	1.4110972057E+02	4.1800000000E+00	0.000E+00	0.0
	5	1	9	9	501	0	-8.9126185206E+01	3.0452512144E+01	3.9104979570E+01	1.0206617565E+02	4.1800000000E+00	0.000E+00	0.0
</event>
<event>
    11  -1  1.0000000E+00  1.0000000E+00  -1.0000000E+00  -1.0000000E+00
	2212	-1	0	0	0	0	0.0000000000E+00	0.0000000000E+00	6.5000000000E+03	6.5000000000E+03	9.3827000000E-01	0.000E+00	0.0
	2212	-1	0	0	0	0	0.0000000000E+00	0.0000000000E+00	-6.5000000000E+03	6.5000000000E+03	9.3827000000E-01	0.000E+00	0.0
	2212	1	0	0	0	0	0.0000000000E+00	0.0000000000E+00	5.6065405186E+03	5.6065405186E+03	9.3827000000E-01	0.000E+00	0.0
	2212	1	0	0	0	0	0.0000000000E+00	0.0000000000E+00	-6.1908971246E+03	6.1908971246E+03	9.3827000000E-01	0.000E+00	0.0
	51	2	1	2	0	0	9.3032696408E-01	-3.9498072560E+01	6.9441529548E+02	1.2603400909E+03	1.0510392852E+03	0.000E+00	0.0
	1000022	2	5	5	0	0	-9.3032696408E-01	3.9498072560E+01	3.8733375695E+02	9.6581886160E+02	8.8386518820E+02	0.000E+00	0.0
	14	1	6	6	0	0	1.0614102179E+01	2.9651573562E+02	7.4083986872E+01	4.4625965283E+02	3.2500000000E+02	0.000E+00	0.0
	-14	1	6	6	0	0	-1.1544429143E+01	-2.5701766306E+02	3.1324977008E+02	5.1955920877E+02	3.2500000000E+02	0.000E+00	0.0
	25	2	5	5	0	0	9.3032696408E-01	-3.9498072560E+01	1.9702284906E+02	2.3674349518E+02	1.2517394383E+02	0.000E+00	0.0
	-5	1	9	9	0	501	5.2231174772E+01	1.5080698898E+01	1.0217077889E+02	1.1580960045E+02	4.1800000000E+00	0.000E+00	0.0
	5	1	9	9	501	0	-5.1300847807E+01	-5.4578771458E+01	9.4852070168E+01	1.2093389473E+02	4.1800000000E+00	0.000E+00	0.0
</event>
<event>
    11  -1  1.0000000E+00  1.0000000E+00  -1.0000000E+00  -1.0000000E+00
	2212	-1	0	0	0	0	0.0000000000E+00	0.0000000000E+00	6.5000000000E+03	6.5000000000E+03	9.3827000000E-01	0.000E+00	0.0
	2212	-1	0	0	0	0	0.0000000000E+00	0.0000000000E+00	-6.5000000000E+03	6.5000000000E+03	9.3827000000E-01	0.000E+00	0.0
	2212	1	0	0	0	0	0.0000000000E+00	0.0000000000E+00	5.0558433684E+03	5.0558433684E+03	9.3827000000E-01	0.000E+00	0.0
	2212	1	0	0	0	0	0.0000000000E+00	0.0000000000E+00	-6.3110787423E+03	6.3110787423E+03	9.3827000000E-01	0.000E+00	0.0
	51	2	1	2	0	0	-6.5756982173E+00	7.8361835099E+00	1.4918712521E+03	1.8212940529E+03	1.0446662378E+03	0.000E+00	0.0
	1000022	2	5	5	0	0	6.5756982173E+00	-7.8361835099E+00	8.0111032144E+02	1.1619054219E+03	8.4151162609E+02	0.000E+00	0.0
	14	1	6	6	0	0	-9.5899349004E+01	4.9810349768E+01	6.4876404893E+01	3.4858528941E+02	3.2500000000E+02	0.000E+00	0.0
	-14	1	6	6	0	0	1.0247504722E+02	-5.7646533278E+01	7.3623391655E+02	8.1332013253E+02	3.2500000000E+02	0.000E+00	0.0
	25	2	5	5	0	0	-6.5756982173E+00	7.8361835099E+00	4.5412505253E+02	4.7117246737E+02	1.2517701501E+02	0.000E+00	0.0
	-5	1	9	9	0	501	4.4970626503E+01	-1.1632260108E+01	3.5181834892E+02	3.5489616757E+02	4.1800000000E+00	0.000E+00	0.0
	5	1	9	9	501	0	-5.1546324721E+01	1.9468443618E+01	1.0230670362E+02	1.1627629979E+02	4.1800000000E+00	0.000E+00	0.0
</event>
<event>
    11  -1  1.0000000E+00  1.0000000E+00  -1.0000000E+00  -1.0000000E+00
	2212	-1	0	0	0	0	0.0000000000E+00	0.0000000000E+00	6.5000000000E+03	6.5000000000E+03	9.3827000000E-01	0.000E+00	0.0
	2212	-1	0	0	0	0	0.0000000000E+00	0.0000000000E+00	-6.5000000000E+03	6.5000000000E+03	9.3827000000E-01	0.000E+00	0.0
	2212	1	0	0	0	0	0.0000000000E+00	0.0000000000E+00	5.9787455546E+03	5.9787455546E+03	9.3827000000E-01	0.000E+00	0.0
	2212	1	0	0	0	0	0.0000000000E+00	0.0000000000E+00	-5.9662391292E+03	5.9662391292E+03	9.3827000000E-01	0.000E+00	0.0
	51	2	1	2	0	0	1.3672878274E+02	-4.5169262987E+00	1.7481173578E+01	1.0639180705E+03	1.0549411864E+03	0.000E+00	0.0
	1000022	2	5	5	0	0	-1.3672878274E+02	4.5169262987E+00	-4.0376566620E+01	8.6748835405E+02	8.5568137448E+02	0.000E+00	0.0
	14	1	6	6	0	0	1.8945150997E+02	-8.5891385336E+01	-8.8172995704E+01	3.9581394856E+02	3.2500000000E+02	0.000E+00	0.0
	-14	1	6	6	0	0	-3.2618029270E+02	9.0408311634E+01	4.7796429085E+01	4.7167440549E+02	3.2500000000E+02	0.000E+00	0.0
	25	2	5	5	0	0	1.3672878274E+02	-4.5169262987E+00	2.7870141239E+01	1.8752696215E+02	1.2519766015E+02	0.000E+00	0.0
	-5	1	9	9	0	501	2.5244428214E+01	-5.4232009482E+01	-7.3435754958E+00	6.0413512639E+01	4.1800000000E+00	0.000E+00	0.0
	5	1	9	9	501	0	1.1148435452E+02	4.9715083183E+01	3.5213716735E+01	1.2711344951E+02	4.1800000000E+00	0.000E+00	0.0
</event>
<event>
    11  -1  1.0000000E+00  1.0000000E+00  -1.0000000E+00  -1.0000000E+00
	2212	-1	0	0	0	0	0.0000000000E+00	0.0000000000E+00	6.5000000000E+03	6.5000000000E+03	9.3827000000E-01	0.000E+00	0.0
	2212	-1	0	0	0	0	0.0000000000E+00	0.0000000000E+00	-6.5000000000E+03	6.5000000000E+03	9.3827000000E-01	0.000E+00	0.0
	2212	1	0	0	0	0	0.0000000000E+00	0.0000000000E+00	5.7807919761E+03	5.7807919761E+03	9.3827000000E-01	0.000E+00	0.0
	2212	1	0	0	0	0	0.0000000000E+00	0.0000000000E+00	-6.1135332366E+03	6.1135332366E+03	9.3827000000E-01	0.000E+00	0.0
	51	2	1	2	0	0	-6.9846324512E+01	1.1029080944E+02	3.3255187105E+02	1.1132983911E+03	1.0544192662E+03	0.000E+00	0.0
	1000022	2	5	5	0	0	6.9846324512E+01	-1.1029080944E+02	2.7839213967E+02	9.1682371659E+02	8.6372505590E+02	0.000E+00	0.0
	14	1	6	6	0	0	-1.9253769633E+02	-2.2476390798E+02	1.6073256358E+02	4.6802728108E+02	3.2500000000E+02	0.000E+00	0.0
	-14	1	6	6	0	0	2.6238402085E+02	1.1447309854E+02	1.1765957609E+02	4.4879643551E+02	3.2500000000E+02	0.000E+00	0.0
	25	2	5	5	0	0	-6.9846324512E+01	1.1029080944E+02	5.4349120863E+01	1.8885107077E+02	1.2517319320E+02	0.000E+00	0.0
	-5	1	9	9	0	501	-4.2790641932E+00	8.1966045350E+01	7.8190693348E+01	1.1343720689E+02	4.1800000000E+00	0.000E+00	0.0
	5	1	9	9	501	0	-6.5567260319E+01	2.8324764087E+01	-2.3841572485E+01	7.5413863877E+01	4.1800000000E+00	0.000E+00	0.0
</event>
<event>
    11  -1  1.0000000E+00  1.0000000E+00  -1.0000000E+00  -1.0000000E+00
	2212	-1	0	0	0	0	0.0000000000E+00	0.0000000000E+00	6.5000000000E+03	6.5000000000E+03	9.3827000000E-01	0.000E+00	0.0
	2212	-1	0	0	0	0	0.0000000000E+00	0.0000000000E+00	-6.5000000000E+03	6.5000000000E+03	9.3827000000E-01	0.000E+00	0.0
	2212	1	0	0	0	0	0.0000000000E+00	0.0000000000E+00	5.3622960501E+03	5.3622960501E+03	9.3827000000E-01	0.000E+00	0.0
	2212	1	0	0	0	0	0.0000000000E+00	0.0000000000E+00	-6.2561350518E+03	6.2561350518E+03	9.3827000000E-01	0.000E+00	0.0
	51	2	1	2	0	0	3.7968301058E+01	1.4100712078E+02	9.0622501883E+02	1.3972662037E+03	1.0534630792E+03	0.000E+00	0.0
	1000022	2	5	5	0	0	-3.7968301058E+01	-1.4100712078E+02	7.2679592686E+02	1.1268247616E+03	8.4863250233E+02	0.000E+00	0.0
	14	1	6	6	0	0	2.7966185897E+01	8.7437025284E+01	5.2976882239E+01	3.4184629733E+02	3.2500000000E+02	0.000E+00	0.0
	-14	1	6	6	0	0	-6.5934486955E+01	-2.2844414607E+02	6.7381904462E+02	7.8497846425E+02	3.2500000000E+02	0.000E+00	0.0
	25	2	5	5	0	0	3.7968301058E+01	1.4100712078E+02	1.6704307479E+02	2.5474413652E+02	1.2516623450E+02	0.000E+00	0.0
	-5	1	9	9	0	501	7.0473812217E+01	3.2693085885E+01	8.3175051897E+01	1.1389011253E+02	4.1800000000E+00	0.000E+00	0.0
	5	1	9	9	501	0	-3.2505511160E+01	1.0831403490E+02	8.3868022895E+01	1.4085402400E+02	4.1800000000E+00	0.000E+00	0.0
</event>
<event>
    11  -1  1.0000000E+00  1.0000000E+00  -1.0000000E+00  -1.0000000E+00
	2212	-1	0	0	0	0	0.0000000000E+00	0.0000000000E+00	6.5000000000E+03	6.5000000000E+03	9.3827000000E-01	0.000E+00	0.0
	2212	-1	0	0	0	0	0.0000000000E+00	0.0000000000E+00	-6.5000000000E+03	6.5000000000E+03	9.3827000000E-01	0.000E+00	0.0
	2212	1	0	0	0	0	0.0000000000E+00	0.0000000000E+00	5.2732836106E+03	5.2732836106E+03	9.3827000000E-01	0.000E+00	0.0
	2212	1	0	0	0	0	0.0000000000E+00	0.0000000000E+00	-6.2741645673E+03	6.2741645673E+03	9.3827000000E-01	0.000E+00	0.0
	51	2	1	2	0	0	1.1517445845E+02	-8.0275279829E+01	1.0647326169E+03	1.5038314162E+03	1.0526842387E+03	0.000E+00	0.0
	1000022	2	5	5	0	0	-1.1517445845E+02	8.0275279829E+01	7.6388154293E+02	1.1499875141E+03	8.4808430862E+02	0.000E+00	0.0
	14	1	6	6	0	0	-1.6780278838E+00	-1.5908950319E+02	1.1925446502E+02	3.8099726144E+02	3.2500000000E+02	0.000E+00	0.0
	-14	1	6	6	0	0	-1.1349643056E+02	2.3936478302E+02	6.4462707791E+02	7.6899025265E+02	3.2500000000E+02	0.000E+00	0.0
	25	2	5	5	0	0	1.1517445845E+02	-8.0275279829E+01	2.3699941372E+02	3.0256430797E+02	1.2516853408E+02	0.000E+00	0.0
	-5	1	9	9	0	501	3.7028524691E+01	-8.3336484980E+01	6.0629869598E+01	1.0958802333E+02	4.1800000000E+00	0.000E+00	0.0
	5	1	9	9	501	0	7.8145933755E+01	3.0612051517E+00	1.7636954412E+02	1.9297628464E+02	4.1800000000E+00	0.000E+00	0.0
</event>
<event>
    11  -1  1.0000000E+00  1.0000000E+00  -1.0000000E+00  -1.0000000E+00
	2212	-1	0	0	0	0	0.0000000000E+00	0.0000000000E+00	6.5000000000E+03	6.5000000000E+03	9.3827000000E-01	0.000E+00	0.0
	2212	-1	0	0	0	0	0.0000000000E+00	0.0000000000E+00	-6.5000000000E+03	6.5000000000E+03	9.3827000000E-01	0.000E+00	0.0
	2212	1	0	0	0	0	0.0000000000E+00	0.0000000000E+00	6.3228105921E+03	6.3228105921E+03	9.3827000000E-01	0.000E+00	0.0
	2212	1	0	0	0	0	0.0000000000E+00	0.0000000000E+00	-4.9393105526E+03	4.9393105526E+03	9.3827000000E-01	0.000E+00	0.0
	51	2	1	2	0	0	-3.1027639833E+01	1.3361262696E+02	-1.3515149846E+03	1.7180099994E+03	1.0517369234E+03	0.000E+00	0.0
	1000022	2	5	5	0	0	3.1027639833E+01	-1.3361262696E+02	-1.1808469155E+03	1.4630077629E+03	8.5274687209E+02	0.000E+00	0.0
	14	1	6	6	0	0	1.6996061297E+02	-1.2456437988E+02	-9.8590175990E+02	1.0592592576E+03	3.2500000000E+02	0.000E+00	0.0
	-14	1	6	6	0	0	-1.3893297314E+02	-9.0482470786E+00	-1.9494515562E+02	4.0374850526E+02	3.2500000000E+02	0.000E+00	0.0
	25	2	5	5	0	0	-3.1027639833E+01	1.3361262696E+02	-2.0265312407E+02	2.7487109240E+02	1.2518298696E+02	0.000E+00	0.0
	-5	1	9	9	0	501	-7.2606515226E+01	4.9955095398E+01	-7.0290312046E+01	1.1280699436E+02	4.1800000000E+00	0.000E+00	0.0
	5	1	9	9	501	0	4.1578875393E+01	8.3657531561E+01	-1.3236281202E+02	1.6206409803E+02	4.1800000000E+00	0.000E+00	0.0
</event>
<event>
    11  -1  1.0000000E+00  1.0000000E+00  -1.0000000E+00  -1.0000000E+00
	2212	-1	0	0	0	0	0.0000000000E+00	0.0000000000E+00	6.5000000000E+03	6.5000000000E+03	9.3827000000E-01	0.000E+00	0.0
	2212	-1	0	0	0	0	0.0000000000E+00	0.0000000000E+00	-6.5000000000E+03	6.5000000000E+03	9.3827000000E-01	0.000E+00	0.0
	2212	1	0	0	0	0	0.0000000000E+00	0.0000000000E+00	5.8176209238E+03	5.8176209238E+03	9.3827000000E-01	0.000E+00	0.0
	2212	1	0	0	0	0	0.0000000000E+00	0.0000000000E+00	-6.0964844731E+03	6.0964844731E+03	9.3827000000E-01	0.000E+00	0.0
	51	2	1	2	0	0	-1.0669422739E+02	-7.6062727545E+01	2.8642729880E+02	1.0957244198E+03	1.0494771127E+03	0.000E+00	0.0
	1000022	2	5	5	0	0	1.0669422739E+02	7.6062727545E+01	2.2529999194E+02	8.9694154465E+02	8.5823939053E+02	0.000E+00	0.0
	14	1	6	6	0	0	2.3911188865E+00	2.2284536228E+02	-9.6158881978E+01	4.0563198040E+02	3.2500000000E+02	0.000E+00	0.0
	-14	1	6	6	0	0	1.0430310850E+02	-1.4678263473E+02	3.2145887392E+02	4.9130956425E+02	3.2500000000E+02	0.000E+00	0.0
	25	2	5	5	0	0	-1.0669422739E+02	-7.6062727545E+01	5.3563557289E+01	1.8895305847E+02	1.2515992552E+02	0.000E+00	0.0
	-5	1	9	9	0	501	-1.1076814363E+02	-3.6596625594E+01	-6.4259226517E+00	1.1690876584E+02	4.1800000000E+00	0.000E+00	0.0
	5	1	9	9	501	0	4.0739162431E+00	-3.9466101951E+01	5.9989479941E+01	7.2044292628E+01	4.1800000000E+00	0.000E+00	0.0
</event>
<event>
    11  -1  1.0000000E+00  1.0000000E+00  -1.0000000E+00  -1.0000000E+00
	2212	-1	0	0	0	0	0.0000000000E+00	0.0000000000E+00	6.5000000000E+03	6.5000000000E+03	9.3827000000E-01	0.000E+00	0.0
	2212	-1	0	0	0	0	0.0000000000E+00	0.0000000000E+00	-6.5000000000E+03	6.5000000000E+03	9.3827000000E-01	0.000E+00	0.0
	2212	1	0	0	0	0	0.0000000000E+00	0.0000000000E+00	6.2335323056E+03	6.2335323056E+03	9.3827000000E-01	0.000E+00	0.0
	2212	1	0	0	0	0	0.0000000000E+00	0.0000000000E+00	-5.4925684890E+03	5.4925684890E+03	9.3827000000E-01	0.000E+00	0.0
	51	2	1	2	0	0	5.7404764397E+01	-5.9225712348E+01	-8.6266488669E+02	1.3508462187E+03	1.0362392619E+03	0.000E+00	0.0
	1000022	2	5	5	0	0	-5.7404764397E+01	5.9225712348E+01	-4.9792521664E+02	9.8834310817E+02	8.4975854578E+02	0.000E+00	0.0
	14	1	6	6	0	0	-1.4433996445E+02	1.6739388044E+02	-4.9868548087E+02	6.3495428605E+02	3.2500000000E+02	0.000E+00	0.0
	-14	1	6	6	0	0	8.6935200049E+01	-1.0816816809E+02	7.6026423197E-01	3.5338882212E+02	3.2500000000E+02	0.000E+00	0.0
	25	2	5	5	0	0	5.7404764397E+01	-5.9225712348E+01	-2.4303860000E+02	2.8555609723E+02	1.2518598802E+02	0.000E+00	0.0
	-5	1	9	9	0	501	-5.4234861578E+00	-4.3063881161E+01	-1.1544249396E+01	4.5107140864E+01	4.1800000000E+00	0.000E+00	0.0
	5	1	9	9	501	0	6.2828250555E+01	-1.6161831187E+01	-2.3149435061E+02	2.4044895637E+02	4.1800000000E+00	0.000E+00	0.0
</event>
<event>
    11  -1  1.0000000E+00  1.0000000E+00  -1.0000000E+00  -1.0000000E+00
	2212	-1	0	0	0	0	0.0000000000E+00	0.0000000000E+00	6.5000000000E+03	6.5000000000E+03	9.3827000000E-01	0.000E+00	0.0
	2212	-1	0	0	0	0	0.0000000000E+00	0.0000000000E+00	-6.5000000000E+03	6.5000000000E+03	9.3827000000E-01	0.000E+00	0.0
	2212	1	0	0	0	0	0.0000000000E+00	0.0000000000E+00	5.2895991657E+03	5.2895991657E+03	9.3827000000E-01	0.000E+00	0.0
	2212	1	0	0	0	0	0.0000000000E+00	0.0000000000E+00	-6.2725631449E+03	6.2725631449E+03	9.3827000000E-01	0.000E+00	0.0
	51	2	1	2	0	0	-1.2374714314E+02	-5.2489827846E+01	1.0029334850E+03	1.4577733532E+03	1.0493612517E+03	0.000E+00	0.0
	1000022	2	5	5	0	0	1.2374714314E+02	5.2489827846E+01	7.9881979449E+02	1.1777543232E+03	8.5494072560E+02	0.000E+00	0.0
	14	1	6	6	0	0	6.9277265954E+01	-2.5045164053E+02	4.2184992127E+02	5.9254343292E+02	3.2500000000E+02	0.000E+00	0.0
	-14	1	6	6	0	0	5.4469877189E+01	3.0294146838E+02	3.7696987323E+02	5.8521089028E+02	3.2500000000E+02	0.000E+00	0.0
	25	2	5	5	0	0	-1.2374714314E+02	-5.2489827846E+01	1.8414418475E+02	2.6008336618E+02	1.2516285041E+02	0.000E+00	0.0
	-5	1	9	9	0	501	-7.0050620699E+01	-5.9675644737E+01	3.0375821994E+01	9.6997087569E+01	4.1800000000E+00	0.000E+00	0.0
	5	1	9	9	501	0	-5.3696522444E+01	7.1858168916E+00	1.5376836276E+02	1.6308627861E+02	4.1800000000E+00	0.000E+00	0.0
</event>
<event>
    11  -1  1.0000000E+00  1.0000000E+00  -1.0000000E+00  -1.0000000E+00
	2212	-1	0	0	0	0	0.0000000000E+00	0.0000000000E+00	6.5000000000E+03	6.5000000000E+03	9.3827000000E-01	0.000E+00	0.0
	2212	-1	0	0	0	0	0.0000000000E+00	0.0000000000E+00	-6.5000000000E+03	6.5000000000E+03	9.3827000000E-01	0.000E+00	0.0
	2212	1	0	0	0	0	0.0000000000E+00	0.0000000000E+00	6.2865051817E+03	6.2865051817E+03	9.3827000000E-01	0.000E+00	0.0
	2212	1	0	0	0	0	0.0000000000E+00	0.0000000000E+00	-5.2419913005E+03	5.2419913005E+03	9.3827000000E-01	0.000E+00	0.0
	51	2	1	2	0	0	5.0055059182E+00	-7.0728034337E+01	-1.1591054299E+03	1.5565558976E+03	1.0364908851E+03	0.000E+00	0.0
	1000022	2	5	5	0	0	-5.0055059182E+00	7.0728034337E+01	-7.7080397876E+02	1.1622863648E+03	8.6703132017E+02	0.000E+00	0.0
	14	1	6	6	0	0	-1.4797291315E+02	2.5447199783E+02	-2.4675443735E+02	5.0315478042E+02	3.2500000000E+02	0.000E+00	0.0
	-14	1	6	6	0	0	1.4296740723E+02	-1.8374396350E+02	-5.2404954141E+02	6.5913158436E+02	3.2500000000E+02	0.000E+00	0.0
	25	2	5	5	0	0	5.0055059182E+00	-7.0728034337E+01	-2.7370990245E+02	3.0921715306E+02	1.2518237543E+02	0.000E+00	0.0
	-5	1	9	9	0	501	-2.0103545315E+01	-3.7017984748E+01	-2.6197964312E+02	2.6537763572E+02	4.1800000000E+00	0.000E+00	0.0
	5	1	9	9	501	0	2.5109051233E+01	-3.3710049589E+01	-1.1730259326E+01	4.3839517344E+01	4.1800000000E+00	0.000E+00	0.0
</event>
<event>
    11  -1  1.0000000E+00  1.0000000E+00  -1.0000000E+00  -1.0000000E+00
	2212	-1	0	0	0	0	0.0000000000E+00	0.0000000000E+00	6.5000000000E+03	6.5000000000E+03	9.3827000000E-01	0.000E+00	0.0
	2212	-1	0	0	0	0	0.0000000000E+00	0.0000000000E+00	-6.5000000000E+03	6.5000000000E+03	9.3827000000E-01	0.000E+00	0.0
	2212	1	0	0	0	0	0.0000000000E+00	0.0000000000E+00	5.9931381649E+03	5.9931381649E+03	9.3827000000E-01	0.000E+00	0.0
	2212	1	0	0	0	0	0.0000000000E+00	0.0000000000E+00	-5.9756020611E+03	5.9756020611E+03	9.3827000000E-01	0.000E+00	0.0
	51	2	1	2	0	0	3.9494373904E+01	-3.0130782130E+01	-1.4129770806E+02	1.0419318205E+03	1.0311106665E+03	0.000E+00	0.0
	1000022	2	5	5	0	0	-3.9494373904E+01	3.0130782130E+01	1.0918860390E+02	8.4633412589E+02	8.3778973008E+02	0.000E+00	0.0
	14	1	6	6	0	0	1.9912128389E+02	6.1102729241E+01	1.9572496111E+02	4.3280028838E+02	3.2500000000E+02	0.000E+00	0.0
	-14	1	6	6	0	0	-2.3861565779E+02	-3.0971947111E+01	-8.6536357205E+01	4.1353383752E+02	3.2500000000E+02	0.000E+00	0.0
	25	2	5	5	0	0	3.9494373904E+01	-3.0130782130E+01	-1.2672470763E+02	1.8492564813E+02	1.2518256352E+02	0.000E+00	0.0
	-5	1	9	9	0	501	-2.3776129882E+01	-3.4084696688E+01	1.5323857470E+00	4.1795831210E+01	4.1800000000E+00	0.000E+00	0.0
	5	1	9	9	501	0	6.3270503787E+01	3.9539145579E+00	-1.2825709337E+02	1.4312981692E+02	4.1800000000E+00	0.000E+00	0.0
</event>
<event>
    11  -1  1.0000000E+00  1.0000000E+00  -1.0000000E+00  -1.0000000E+00
	2212	-1	0	0	0	0	0.0000000000E+00	0.0000000000E+00	6.5000000000E+03	6.5000000000E+03	9.3827000000E-01	0.000E+00	0.0
	2212	-1	0	0	0	0	0.0000000000E+00	0.0000000000E+00	-6.5000000000E+03	6.5000000000E+03	9.3827000000E-01	0.000E+00	0.0
	2212	1	0	0	0	0	0.0000000000E+00	0.0000000000E+00	4.8905882046E+03	4.8905882046E+03	9.3827000000E-01	0.000E+00	0.0
	2212	1	0	0	0	0	0.0000000000E+00	0.0000000000E+00	-6.3297632144E+03	6.3297632144E+03	9.3827000000E-01	0.000E+00	0.0
	51	2	1	2	0	0	2.2967122040E+01	-1.3320698698E+02	1.3513342207E+03	1.7147303372E+03	1.0468640615E+03	0.000E+00	0.0
	1000022	2	5	5	0	0	-2.2967122040E+01	1.3320698698E+02	1.2749102399E+03	1.5328192632E+03	8.4015902281E+02	0.000E+00	0.0
	14	1	6	6	0	0	-1.7596981340E+02	2.7359810859E+02	7.7897351081E+02	9.0456952789E+02	3.2500000000E+02	0.000E+00	0.0
	-14	1	6	6	0	0	1.5300269136E+02	-1.4039112161E+02	4.9593672913E+02	6.2824973529E+02	3.2500000000E+02	0.000E+00	0.0
	25	2	5	5	0	0	2.2967122040E+01	-1.3320698698E+02	1.6426476979E+02	2.4682931782E+02	1.2518069927E+02	0.000E+00	0.0
	-5	1	9	9	0	501	4.9757483737E+01	-1.4506616364E+02	1.4746477846E+02	2.1279880711E+02	4.1800000000E+00	0.000E+00	0.0
	5	1	9	9	501	0	-2.6790361698E+01	1.1859176659E+01	1.6799991329E+01	3.4030510716E+01	4.1800000000E+00	0.000E+00	0.0
</event>
<event>
    11  -1  1.0000000E+00  1.0000000E+00  -1.0000000E+00  -1.0000000E+00
	2212	-1	0	0	0	0	0.0000000000E+00	0.0000000000E+00	6.5000000000E+03	6.5000000000E+03	9.3827000000E-01	0.000E+00	0.0
	2212	-1	0	0	0	0	0.0000000000E+00	0.0000000000E+00	-6.5000000000E+03	6.5000000000E+03	9.3827000000E-01	0.000E+00	0.0
	2212	1	0	0	0	0	0.0000000000E+00	0.0000000000E+00	5.4662945299E+03	5.4662945299E+03	9.3827000000E-01	0.000E+00	0.0
	2212	1	0	0	0	0	0.0000000000E+00	0.0000000000E+00	-6.2301468878E+03	6.2301468878E+03	9.3827000000E-01	0.000E+00	0.0
	51	2	1	2	0	0	-4.7287438032E+01	-1.7150059452E+02	8.9341596695E+02	1.3948602792E+03	1.0563117687E+03	0.000E+00	0.0
	1000022	2	5	5	0	0	4.7287438032E+01	1.7150059452E+02	4.7669162183E+02	9.4330820008E+02	7.9432166173E+02	0.000E+00	0.0
	14	1	6	6	0	0	-7.7754313569E+01	1.5607619489E+02	4.6637548043E+02	5.9458943872E+02	3.2500000000E+02	0.000E+00	0.0
	-14	1	6	6	0	0	1.2504175160E+02	1.5424399626E+01	1.0316141396E+01	3.4871876135E+02	3.2500000000E+02	0.000E+00	0.0
	25	2	5	5	0	0	-4.7287438032E+01	-1.7150059452E+02	2.8716073604E+02	3.6025038219E+02	1.2518184306E+02	0.000E+00	0.0
	-5	1	9	9	0	501	-8.5984241537E+00	-7.0998182616E+01	2.3469728677E+01	7.5385511850E+01	4.1800000000E+00	0.000E+00	0.0
	5	1	9	9	501	0	-3.8689013879E+01	-1.0050241190E+02	2.6369100736E+02	2.8486487034E+02	4.1800000000E+00	0.000E+00	0.0
</event>
<event>
    11  -1  1.0000000E+00  1.0000000E+00  -1.0000000E+00  -1.0000000E+00
	2212	-1	0	0	0	0	0.0000000000E+00	0.0000000000E+00	6.5000000000E+03	6.5000000000E+03	9.3827000000E-01	0.000E+00	0.0
	2212	-1	0	0	0	0	0.0000000000E+00	0.0000000000E+00	-6.5000000000E+03	6.5000000000E+03	9.3827000000E-01	0.000E+00	0.0
	2212	1	0	0	0	0	0.0000000000E+00	0.0000000000E+00	5.6938114977E+03	5.6938114977E+03	9.3827000000E-01	0.000E+00	0.0
	2212	1	0	0	0	0	0.0000000000E+00	0.0000000000E+00	-6.1591196871E+03	6.1591196871E+03	9.3827000000E-01	0.000E+00	0.0
	51	2	1	2	0	0	-2.7164610414E+01	-1.3102257578E+02	4.8042738529E+02	1.1610213002E+03	1.0484536974E+03	0.000E+00	0.0
	1000022	2	5	5	0	0	2.7164610414E+01	1.3102257578E+02	3.7253666506E+02	9.4168930087E+02	8.5445324104E+02	0.000E+00	0.0
	14	1	6	6	0	0	2.3528034079E+02	-7.4839673401E+01	2.7902836238E+02	4.9440837623E+02	3.2500000000E+02	0.000E+00	0.0
	-14	1	6	6	0	0	-2.0811573038E+02	2.0586224918E+02	9.3508302681E+01	4.4728092463E+02	3.2500000000E+02	0.000E+00	0.0
	25	2	5	5	0	0	-2.7164610414E+01	-1.3102257578E+02	9.2771524332E+01	2.0537951429E+02	1.2517730521E+02	0.000E+00	0.0
	-5	1	9	9	0	501	-3.4295342121E+00	2.4749798054E+01	1.6825654894E+01	3.0411992227E+01	4.1800000000E+00	0.000E+00	0.0
	5	1	9	9	501	0	-2.3735076202E+01	-1.5577237384E+02	7.5945869438E+01	1.7496752207E+02	4.1800000000E+00	0.000E+00	0.0
</event>
<event>
    11  -1  1.0000000E+00  1.0000000E+00  -1.0000000E+00  -1.0000000E+00
	2212	-1	0	0	0	0	0.0000000000E+00	0.0000000000E+00	6.5000000000E+03	6.5000000000E+03	9.3827000000E-01	0.000E+00	0.0
	2212	-1	0	0	0	0	0.0000000000E+00	0.0000000000E+00	-6.5000000000E+03	6.5000000000E+03	9.3827000000E-01	0.000E+00	0.0
	2212	1	0	0	0	0	0.0000000000E+00	0.0000000000E+00	5.0240182594E+03	5.0240182594E+03	9.3827000000E-01	0.000E+00	0.0
	2212	1	0	0	0	0	0.0000000000E+00	0.0000000000E+00	-6.3255068973E+03	6.3255068973E+03	9.3827000000E-01	0.000E+00	0.0
	51	2	1	2	0	0	7.7593392932E+01	-3.6040646360E+01	1.3447104692E+03	1.6869381857E+03	1.0149849918E+03	0.000E+00	0.0
	1000022	2	5	5	0	0	-7.7593392932E+01	3.6040646360E+01	1.0664897399E+03	1.3708105884E+03	8.5697236896E+02	0.000E+00	0.0
	14	1	6	6	0	0	3.8001729578E+01	2.8643914857E+02	5.4953932092E+02	7.0079239617E+02	3.2500000000E+02	0.000E+00	0.0
	-14	1	6	6	0	0	-1.1559512251E+02	-2.5039850221E+02	5.1695041897E+02	6.7001819224E+02	3.2500000000E+02	0.000E+00	0.0
	25	2	5	5	0	0	7.7593392932E+01	-3.6040646360E+01	2.3499889803E+02	2.7966425482E+02	1.2517168423E+02	0.000E+00	0.0
	-5	1	9	9	0	501	2.3923091090E+01	1.9921404601E+01	-7.8717462102E-01	3.1420832141E+01	4.1800000000E+00	0.000E+00	0.0
	5	1	9	9	501	0	5.3670301842E+01	-5.5962050961E+01	2.3578607265E+02	2.4824342268E+02	4.1800000000E+00	0.000E+00	0.0
</event>
<event>
    11  -1  1.0000000E+00  1.0000000E+00  -1.0000000E+00  -1.0000000E+00
	2212	-1	0	0	0	0	0.0000000000E+00	0.0000000000E+00	6.5000000000E+03	6.5000000000E+03	9.3827000000E-01	0.000E+00	0.0
	2212	-1	0	0	0	0	0.0000000000E+00	0.0000000000E+00	-6.5000000000E+03	6.5000000000E+03	9.3827000000E-01	0.000E+00	0.0
	2212	1	0	0	0	0	0.0000000000E+00	0.0000000000E+00	5.9821574817E+03	5.9821574817E+03	9.3827000000E-01	0.000E+00	0.0
	2212	1	0	0	0	0	0.0000000000E+00	0.0000000000E+00	-5.9610345492E+03	5.9610345492E+03	9.3827000000E-01	0.000E+00	0.0
	51	2	1	2	0	0	1.3762568846E+02	3.6480631036E+01	-6.2174194360E+01	1.0679579590E+03	1.0565968509E+03	0.000E+00	0.0
	1000022	2	5	5	0	0	-1.3762568846E+02	-3.6480631036E+01	2.3598670412E+01	8.6202601675E+02	8.4985898227E+02	0.000E+00	0.0
	14	1	6	6	0	0	-2.0166026237E+02	-2.4429110039E+02	9.7175940216E+01	4.6412623984E+02	3.2500000000E+02	0.000E+00	0.0
	-14	1	6	6	0	0	6.4034573914E+01	2.0781046936E+02	-7.3577269803E+01	3.9789977691E+02	3.2500000000E+02	0.000E+00	0.0
	25	2	5	5	0	0	1.3762568846E+02	3.6480631036E+01	-4.4721602846E+01	1.9478195234E+02	1.2517316259E+02	0.000E+00	0.0
	-5	1	9	9	0	501	6.4124844949E+00	-3.7906593924E+01	-8.0878150636E+00	3.9508416480E+01	4.1800000000E+00	0.000E+00	0.0
	5	1	9	9	501	0	1.3121320396E+02	7.4387224960E+01	-3.6633787783E+01	1.5527353586E+02	4.1800000000E+00	0.000E+00	0.0
</event>
<event>
    11  -1  1.0000000E+00  1.0000000E+00  -1.0000000E+00  -1.0000000E+00
	2212	-1	0	0	0	0	0.0000000000E+00	0.0000000000E+00	6.5000000000E+03	6.5000000000E+03	9.3827000000E-01	0.000E+00	0.0
	2212	-1	0	0	0	0	0.0000000000E+00	0.0000000000E+00	-6.5000000000E+03	6.5000000000E+03	9.3827000000E-01	0.000E+00	0.0
	2212	1	0	0	0	0	0.0000000000E+00	0.0000000000E+00	5.6751577901E+03	5.6751577901E+03	9.3827000000E-01	0.000E+00	0.0
	2212	1	0	0	0	0	0.0000000000E+00	0.0000000000E+00	-6.1751474785E+03	6.1751474785E+03	9.3827000000E-01	0.000E+00	0.0
	51	2	1	2	0	0	-6.7909487610E+01	1.9579319706E+01	3.8858126712E+02	1.1080608000E+03	1.0352817428E+03	0.000E+00	0.0
	1000022	2	5	5	0	0	6.7909487610E+01	-1.9579319706E+01	5.2947699384E+02	1.0029562275E+03	8.4886998951E+02	0.000E+00	0.0
	14	1	6	6	0	0	-3.8749348451E+01	-1.3331572310E+02	-1.0673128296E+01	3.5357249568E+02	3.2500000000E+02	0.000E+00	0.0
	-14	1	6	6	0	0	1.0665883606E+02	1.1373640340E+02	5.4015012214E+02	6.4938373186E+02	3.2500000000E+02	0.000E+00	0.0
	25	2	5	5	0	0	-6.7909487610E+01	1.9579319706E+01	-2.9487305443E+01	1.4673850390E+02	1.2517044010E+02	0.000E+00	0.0
	-5	1	9	9	0	501	7.2138614489E+00	4.9029294579E+01	1.8151672934E+01	5.2942111350E+01	4.1800000000E+00	0.000E+00	0.0
	5	1	9	9	501	0	-7.5123349059E+01	-2.9449974873E+01	-4.7638978377E+01	9.3796392546E+01	4.1800000000E+00	0.000E+00	0.0
</event>
<event>
    11  -1  1.0000000E+00  1.0000000E+00  -1.0000000E+00  -1.0000000E+00
	2212	-1	0	0	0	0	0.0000000000E+00	0.0000000000E+00	6.5000000000E+03	6.5000000000E+03	9.3827000000E-01	0.000E+00	0.0
	2212	-1	0	0	0	0	0.0000000000E+00	0.0000000000E+00	-6.5000000000E+03	6.5000000000E+03	9.3827000000E-01	0.000E+00	0.0
	2212	1	0	0	0	0	0.0000000000E+00	0.0000000000E+00	4.9302098074E+03	4.9302098074E+03	9.3827000000E-01	0.000E+00	0.0
	2212	1	0	0	0	0	0.0000000000E+00	0.0000000000E+00	-6.3234146157E+03	6.3234146157E+03	9.3827000000E-01	0.000E+00	0.0
	51	2	1	2	0	0	-4.2039988100E+01	-6.7753318091E+01	1.2219388240E+03	1.6150233373E+03	1.0529995336E+03	0.000E+00	0.0
	1000022	2	5	5	0	0	4.2039988100E+01	6.7753318091E+01	1.3314309229E+03	1.5856134523E+03	8.5738197146E+02	0.000E+00	0.0
	14	1	6	6	0	0	-2.7624214064E+01	-1.2585941485E+02	2.2883259380E+02	4.1784332649E+02	3.2500000000E+02	0.000E+00	0.0
	-14	1	6	6	0	0	6.9664202164E+01	1.9361273294E+02	1.1025983291E+03	1.1677701258E+03	3.2500000000E+02	0.000E+00	0.0
	25	2	5	5	0	0	-4.2039988100E+01	-6.7753318091E+01	6.1773885301E+01	1.6076212453E+02	1.2518216752E+02	0.000E+00	0.0
	-5	1	9	9	0	501	3.4447450805E+01	1.3053103655E+01	1.5083347210E+01	4.0024869082E+01	4.1800000000E+00	0.000E+00	0.0
	5	1	9	9	501	0	-7.6487438905E+01	-8.0806421747E+01	4.6690538091E+01	1.2073725545E+02	4.1800000000E+00	0.000E+00	0.0
</event>
<event>
    11  -1  1.0000000E+00  1.0000000E+00  -1.0000000E+00  -1.0000000E+00
	2212	-1	0	0	0	0	0.0000000000E+00	0.0000000000E+00	6.5000000000E+03	6.5000000000E+03	9.3827000000E-01	0.000E+00	0.0
	2212	-1	0	0	0	0	0.0000000000E+00	0.0000000000E+00	-6.5000000000E+03	6.5000000000E+03	9.3827000000E-01	0.000E+00	0.0
	2212	1	0	0	0	0	0.0000000000E+00	0.0000000000E+00	6.3342553025E+03	6.3342553025E+03	9.3827000000E-01	0.000E+00	0.0
	2212	1	0	0	0	0	0.0000000000E+00	0.0000000000E+00	-4.8596300727E+03	4.8596300727E+03	9.3827000000E-01	0.000E+00	0.0
	51	2	1	2	0	0	-2.6157569858E-01	-9.6192212548E+01	-1.2859259691E+03	1.6584297024E+03	1.0428472897E+03	0.000E+00	0.0
	1000022	2	5	5	0	0	2.6157569858E-01	9.6192212548E+01	-1.4002729172E+03	1.6316151142E+03	8.3195590508E+02	0.000E+00	0.0
	14	1	6	6	0	0	-2.1959485560E+02	6.5091619962E+01	-9.7075009452E+02	1.0490183819E+03	3.2500000000E+02	0.000E+00	0.0
	-14	1	6	6	0	0	2.1985643130E+02	3.1100592585E+01	-4.2952282273E+02	5.8259673230E+02	3.2500000000E+02	0.000E+00	0.0
	25	2	5	5	0	0	-2.6157569858E-01	-9.6192212548E+01	-7.4352312591E+01	1.7449951063E+02	1.2517508796E+02	0.000E+00	0.0
	-5	1	9	9	0	501	-2.4103188058E+01	-1.1846717214E+02	-4.1183128154E+01	1.2778480737E+02	4.1800000000E+00	0.000E+00	0.0
	5	1	9	9	501	0	2.3841612359E+01	2.2274959590E+01	-3.3169184437E+01	4.6714703262E+01	4.1800000000E+00	0.000E+00	0.0
</event>
<event>
    11  -1  1.0000000E+00  1.0000000E+00  -1.0000000E+00  -1.0000000E+00
	2212	-1	0	0	0	0	0.0000000000E+00	0.0000000000E+00	6.5000000000E+03	6.5000000000E+03	9.3827000000E-01	0.000E+00	0.0
	2212	-1	0	0	0	0	0.0000000000E+00	0.0000000000E+00	-6.5000000000E+03	6.5000000000E+03	9.3827000000E-01	0.000E+00	0.0
	2212	1	0	0	0	0	0.0000000000E+00	0.0000000000E+00	6.2336063545E+03	6.2336063545E+03	9.3827000000E-01	0.000E+00	0.0
	2212	1	0	0	0	0	0.0000000000E+00	0.0000000000E+00	-5.4597681325E+03	5.4597681325E+03	9.3827000000E-01	0.000E+00	0.0
	51	2	1	2	0	0	-1.8461700287E+01	5.9033652847E+01	-9.4443827682E+02	1.4157097522E+03	1.0528269740E+03	0.000E+00	0.0
	1000022	2	5	5	0	0	1.8461700287E+01	-5.9033652847E+01	-4.6959256294E+02	9.7188072699E+02	8.4865138059E+02	0.000E+00	0.0
	14	1	6	6	0	0	7.0306476611E+01	-2.7109414632E+02	-1.1624018600E+02	4.4449051471E+02	3.2500000000E+02	0.000E+00	0.0
	-14	1	6	6	0	0	-5.1844776324E+01	2.1206049348E+02	-3.5335237694E+02	5.2739021228E+02	3.2500000000E+02	0.000E+00	0.0
	25	2	5	5	0	0	-1.8461700287E+01	5.9033652847E+01	-3.0424565908E+02	3.3474478598E+02	1.2515128495E+02	0.000E+00	0.0
	-5	1	9	9	0	501	4.9240719487E+01	3.9813558666E+01	-9.7728707553E+01	1.1652527876E+02	4.1800000000E+00	0.000E+00	0.0
	5	1	9	9	501	0	-6.7702419774E+01	1.9220094181E+01	-2.0651695153E+02	2.1821950722E+02	4.1800000000E+00	0.000E+00	0.0
</event>
<event>
    11  -1  1.0000000E+00  1.0000000E+00  -1.0000000E+00  -1.0000000E+00
	2212	-1	0	0	0	0	0.0000000000E+00	0.0000000000E+00	6.5000000000E+03	6.5000000000E+03	9.3827000000E-01	0.000E+00	0.0
	2212	-1	0	0	0	0	0.0000000000E+00	0.0000000000E+00	-6.5000000000E+03	6.5000000000E+03	9.3827000000E-01	0.000E+00	0.0
	2212	1	0	0	0	0	0.0000000000E+00	0.0000000000E+00	6.3334702400E+03	6.3334702400E+03	9.3827000000E-01	0.000E+00	0.0
	2212	1	0	0	0	0	0.0000000000E+00	0.0000000000E+00	-4.8823449162E+03	4.8823449162E+03	9.3827000000E-01	0.000E+00	0.0
	51	2	1	2	0	0	-1.9615678514E+01	1.1851287948E+02	-1.5206164760E+03	1.8450624369E+03	1.0380514685E+03	0.000E+00	0.0
	1000022	2	5	5	0	0	1.9615678514E+01	-1.1851287948E+02	-1.1448747201E+03	1.4322072209E+03	8.5208527826E+02	0.000E+00	0.0
	14	1	6	6	0	0	-2.8486017135E+01	1.8934633648E+02	-3.2984744825E+02	5.0108664663E+02	3.2500000000E+02	0.000E+00	0.0
	-14	1	6	6	0	0	4.8101695649E+01	-3.0785921596E+02	-8.1502727181E+02	9.3112057424E+02	3.2500000000E+02	0.000E+00	0.0
	25	2	5	5	0	0	-1.9615678514E+01	1.1851287948E+02	-3.0625060371E+02	3.5197762286E+02	1.2517482685E+02	0.000E+00	0.0
	-5	1	9	9	0	501	-5.0796088133E+01	3.1461998517E+01	-2.1027876461E+02	2.1864293075E+02	4.1800000000E+00	0.000E+00	0.0
	5	1	9	9	501	0	3.1180409619E+01	8.7050880960E+01	-9.5971839093E+01	1.3333469211E+02	4.1800000000E+00	0.000E+00	0.0
</event>
<event>
    11  -1  1.0000000E+00  1.0000000E+00  -1.0000000E+00  -1.0000000E+00
	2212	-1	0	0	0	0	0.0000000000E+00	0.0000000000E+00	6.5000000000E+03	6.5000000000E+03	9.3827000000E-01	0.000E+00	0.0
	2212	-1	0	0	0	0	0.0000000000E+00	0.0000000000E+00	-6.5000000000E+03	6.5000000000E+03	9.3827000000E-01	0.000E+00	0.0
	2212	1	0	0	0	0	0.0000000000E+00	0.0000000000E+00	6.2045313405E+03	6.2045313405E+03	9.3827000000E-01	0.000E+00	0.0
	2212	1	0	0	0	0	0.0000000000E+00	0.0000000000E+00	-5.5593102264E+03	5.5593102264E+03	9.3827000000E-01	0.000E+00	0.0
	51	2	1	2	0	0	-1.7421345599E+01	1.0130697669E+01	-4.6503972178E+02	1.1525820851E+03	1.0544085478E+03	0.000E+00	0.0
	1000022	2	5	5	0	0	1.7421345599E+01	-1.0130697669E+01	-7.0794578947E+02	1.0947032251E+03	8.3473455419E+02	0.000E+00	0.0
	14	1	6	6	0	0	-9.6113607692E+01	-2.3826464395E+02	-2.8034344537E+02	5.0022526276E+02	3.2500000000E+02	0.000E+00	0.0
	-14	1	6	6	0	0	1.1353495329E+02	2.2813394628E+02	-4.2760234409E+02	5.9447796236E+02	3.2500000000E+02	0.000E+00	0.0
	25	2	5	5	0	0	-1.7421345599E+01	1.0130697669E+01	6.2724675310E+01	1.4145520800E+02	1.2517610260E+02	0.000E+00	0.0
	-5	1	9	9	0	501	3.6033220139E+01	-2.1580916614E+01	-1.2276607798E+01	4.3958121143E+01	4.1800000000E+00	0.000E+00	0.0
	5	1	9	9	501	0	-5.3454565737E+01	3.1711614282E+01	7.5001283107E+01	9.7497086861E+01	4.1800000000E+00	0.000E+00	0.0
</event>
<event>
    11  -1  1.0000000E+00  1.0000000E+00  -1.0000000E+00  -1.0000000E+00
	2212	-1	0	0	0	0	0.0000000000E+00	0.0000000000E+00	6.5000000000E+03	6.5000000000E+03	9.3827000000E-01	0.000E+00	0.0
	2212	-1	0	0	0	0	0.0000000000E+00	0.0000000000E+00	-6.5000000000E+03	6.5000000000E+03	9.3827000000E-01	0.000E+00	0.0
	2212	1	0	0	0	0	0.0000000000E+00	0.0000000000E+00	6.2564825245E+03	6.2564825245E+03	9.3827000000E-01	0.000E+00	0.0
	2212	1	0	0	0	0	0.0000000000E+00	0.0000000000E+00	-5.3572935888E+03	5.3572935888E+03	9.3827000000E-01	0.000E+00	0.0
	51	2	1	2	0	0	2.1302280228E+02	-3.2698940049E+01	-6.6662479894E+02	1.2664566631E+03	1.0550241333E+03	0.000E+00	0.0
	1000022	2	5	5	0	0	-2.1302280228E+02	3.2698940049E+01	-8.9233616790E+02	1.1368968978E+03	6.7068829184E+02	0.000E+00	0.0
	14	1	6	6	0	0	-8.2304724934E+01	9.0107490089E+01	-4.8743689778E+02	5.9842556499E+02	3.2500000000E+02	0.000E+00	0.0
	-14	1	6	6	0	0	-1.3071807735E+02	-5.7408550041E+01	-4.0489927012E+02	5.3847133285E+02	3.2500000000E+02	0.000E+00	0.0
	25	2	5	5	0	0	2.1302280228E+02	-3.2698940049E+01	-6.8527678595E+00	2.4932698887E+02	1.2517608390E+02	0.000E+00	0.0
	-5	1	9	9	0	501	9.2717015752E+01	-6.1338897082E+01	3.8225531586E+01	1.1763319672E+02	4.1800000000E+00	0.000E+00	0.0
	5	1	9	9	501	0	1.2030578653E+02	2.8639957034E+01	-4.5078299445E+01	1.3169379215E+02	4.1800000000E+00	0.000E+00	0.0
</event>
<event>
    11  -1  1.0000000E+00  1.0000000E+00  -1.0000000E+00  -1.0000000E+00
	2212	-1	0	0	0	0	0.0000000000E+00	0.0000000000E+00	6.5000000000E+03	6.5000000000E+03	9.3827000000E-01	0.000E+00	0.0
	2212	-1	0	0	0	0	0.0000000000E+00	0.0000000000E+00	-6.5000000000E+03	6.5000000000E+03	9.3827000000E-01	0.000E+00	0.0
	2212	1	0	0	0	0	0.0000000000E+00	0.0000000000E+00	6.2955750740E+03	6.2955750740E+03	9.3827000000E-01	0.000E+00	0.0
	2212	1	0	0	0	0	0.0000000000E+00	0.0000000000E+00	-5.1563202060E+03	5.1563202060E+03	9.3827000000E-01	0.000E+00	0.0
	51	2	1	2	0	0	-2.3854718343E+01	-1.2407669033E+02	-1.2559361791E+03	1.6407517571E+03	1.0482015884E+03	0.000E+00	0.0
	1000022	2	5	5	0	0	2.3854718343E+01	1.2407669033E+02	-8.2505591141E+02	1.1870559338E+03	8.4405003421E+02	0.000E+00	0.0
	14	1	6	6	0	0	1.6522240265E+02	-2.8048826638E+01	-6.8544450271E+02	7.7688116550E+02	3.2500000000E+02	0.000E+00	0.0
	-14	1	6	6	0	0	-1.4136768431E+02	1.5212551697E+02	-1.3961140871E+02	4.1017476827E+02	3.2500000000E+02	0.000E+00	0.0
	25	2	5	5	0	0	-2.3854718343E+01	-1.2407669033E+02	-3.1419895662E+02	3.6104878629E+02	1.2518454007E+02	0.000E+00	0.0
	-5	1	9	9	0	501	-2.6815234539E+01	-6.3370567781E+01	-2.8550121611E+02	2.9370614986E+02	4.1800000000E+00	0.000E+00	0.0
	5	1	9	9	501	0	2.9605161960E+00	-6.0706122550E+01	-2.8697740502E+01	6.7342636428E+01	4.1800000000E+00	0.000E+00	0.0
</event>
<event>
    11  -1  1.0000000E+00  1.0000000E+00  -1.0000000E+00  -1.0000000E+00
	2212	-1	0	0	0	0	0.0000000000E+00	0.0000000000E+00	6.5000000000E+03	6.5000000000E+03	9.3827000000E-01	0.000E+00	0.0
	2212	-1	0	0	0	0	0.0000000000E+00	0.0000000000E+00	-6.5000000000E+03	6.5000000000E+03	9.3827000000E-01	0.000E+00	0.0
	2212	1	0	0	0	0	0.0000000000E+00	0.0000000000E+00	5.4996359426E+03	5.4996359426E+03	9.3827000000E-01	0.000E+00	0.0
	2212	1	0	0	0	0	0.0000000000E+00	0.0000000000E+00	-6.2268874127E+03	6.2268874127E+03	9.3827000000E-01	0.000E+00	0.0
	51	2	1	2	0	0	-8.7900626931E+00	3.5989146389E+00	9.0010193556E+02	1.3795367974E+03	1.0453937362E+03	0.000E+00	0.0
	1000022	2	5	5	0	0	8.7900626931E+00	-3.5989146389E+00	4.3147219834E+02	9.5215812498E+02	8.4873236043E+02	0.000E+00	0.0
	14	1	6	6	0	0	9.1770156525E+01	9.3484391790E+01	4.8556681423E+02	5.9879981982E+02	3.2500000000E+02	0.000E+00	0.0
	-14	1	6	6	0	0	-8.2980093832E+01	-9.7083306429E+01	-5.4094615884E+01	3.5335830516E+02	3.2500000000E+02	0.000E+00	0.0
	25	2	5	5	0	0	-8.7900626931E+00	3.5989146389E+00	2.9577927175E+02	3.2131851966E+02	1.2517985497E+02	0.000E+00	0.0
	-5	1	9	9	0	501	-2.1952219355E+01	-4.7648111586E+01	6.0772318650E+01	8.0392720979E+01	4.1800000000E+00	0.000E+00	0.0
	5	1	9	9	501	0	1.3162156662E+01	5.1247026225E+01	2.3500695310E+02	2.4092579868E+02	4.1800000000E+00	0.000E+00	0.0
</event>
<event>
    11  -1  1.0000000E+00  1.0000000E+00  -1.0000000E+00  -1.0000000E+00
	2212	-1	0	0	0	0	0.0000000000E+00	0.0000000000E+00	6.5000000000E+03	6.5000000000E+03	9.3827000000E-01	0.000E+00	0.0
	2212	-1	0	0	0	0	0.0000000000E+00	0.0000000000E+00	-6.5000000000E+03	6.5000000000E+03	9.3827000000E-01	0.000E+00	0.0
	2212	1	0	0	0	0	0.0000000000E+00	0.0000000000E+00	6.3257115583E+03	6.3257115583E+03	9.3827000000E-01	0.000E+00	0.0
	2212	1	0	0	0	0	0.0000000000E+00	0.0000000000E+00	-4.9465980033E+03	4.9465980033E+03	9.3827000000E-01	0.000E+00	0.0
	51	2	1	2	0	0	-1.3430290231E+01	-7.9534879711E+00	-1.1872565649E+03	1.5788545959E+03	1.0406536664E+03	0.000E+00	0.0
	1000022	2	5	5	0	0	1.3430290231E+01	7.9534879711E+00	-1.3485752503E+03	1.5979196187E+03	8.5699957502E+02	0.000E+00	0.0
	14	1	6	6	0	0	-1.9520065505E+02	1.5230533942E+01	-3.1039689609E+02	4.9021066696E+02	3.2500000000E+02	0.000E+00	0.0
	-14	1	6	6	0	0	2.0863094528E+02	-7.2770459711E+00	-1.0381783542E+03	1.1077089518E+03	3.2500000000E+02	0.000E+00	0.0
	25	2	5	5	0	0	-1.3430290231E+01	-7.9534879711E+00	-3.0538304679E+01	1.2977081964E+02	1.2515688919E+02	0.000E+00	0.0
	-5	1	9	9	0	501	-6.7082282901E+01	1.1825478317E+01	-1.0568112835E+01	6.9058178556E+01	4.1800000000E+00	0.000E+00	0.0
	5	1	9	9	501	0	5.3651992670E+01	-1.9778966288E+01	-1.9970191844E+01	6.0712641083E+01	4.1800000000E+00	0.000E+00	0.0
</event>
<event>
    11  -1  1.0000000E+00  1.0000000E+00  -1.0000000E+00  -1.0000000E+00
	2212	-1	0	0	0	0	0.0000000000E+00	0.0000000000E+00	6.5000000000E+03	6.5000000000E+03	9.3827000000E-01	0.000E+00	0.0
	2212	-1	0	0	0	0	0.0000000000E+00	0.0000000000E+00	-6.5000000000E+03	6.5000000000E+03	9.3827000000E-01	0.000E+00	0.0
	2212	1	0	0	0	0	0.0000000000E+00	0.0000000000E+00	6.0746517565E+03	6.0746517565E+03	9.3827000000E-01	0.000E+00	0.0
	2212	1	0	0	0	0	0.0000000000E+00	0.0000000000E+00	-5.8548443701E+03	5.8548443701E+03	9.3827000000E-01	0.000E+00	0.0
	51	2	1	2	0	0	9.0254148024E+00	9.6110250841E+00	-2.4297876350E+02	1.0755815939E+03	1.0476942568E+03	0.000E+00	0.0
	1000022	2	5	5	0	0	-9.0254148024E+00	-9.6110250841E+00	-1.6986107061E+02	9.3502709734E+02	9.1937427609E+02	0.000E+00	0.0
	14	1	6	6	0	0	1.7323989919E+02	-1.8190871437E+02	1.2524946365E+02	4.2943599195E+02	3.2500000000E+02	0.000E+00	0.0
	-14	1	6	6	0	0	-1.8226531399E+02	1.7229768929E+02	-2.9511053426E+02	5.0559110539E+02	3.2500000000E+02	0.000E+00	0.0
	25	2	5	5	0	0	9.0254148024E+00	9.6110250841E+00	-4.9946315788E+01	1.3547677602E+02	1.2524173611E+02	0.000E+00	0.0
	-5	1	9	9	0	501	-2.1174904164E+01	-1.6850046422E+01	3.3207924917E+01	4.3041135070E+01	4.1800000000E+00	0.000E+00	0.0
	5	1	9	9	501	0	3.0200318967E+01	2.6461071506E+01	-8.3154240705E+01	9.2435640952E+01	4.1800000000E+00	0.000E+00	0.0
</event>
<event>
    11  -1  1.0000000E+00  1.0000000E+00  -1.0000000E+00  -1.0000000E+00
	2212	-1	0	0	0	0	0.0000000000E+00	0.0000000000E+00	6.5000000000E+03	6.5000000000E+03	9.3827000000E-01	0.000E+00	0.0
	2212	-1	0	0	0	0	0.0000000000E+00	0.0000000000E+00	-6.5000000000E+03	6.5000000000E+03	9.3827000000E-01	0.000E+00	0.0
	2212	1	0	0	0	0	0.0000000000E+00	0.0000000000E+00	5.6977885465E+03	5.6977885465E+03	9.3827000000E-01	0.000E+00	0.0
	2212	1	0	0	0	0	0.0000000000E+00	0.0000000000E+00	-6.1541639069E+03	6.1541639069E+03	9.3827000000E-01	0.000E+00	0.0
	51	2	1	2	0	0	5.2658821599E+01	1.3659664820E+02	4.0882637203E+02	1.1394320067E+03	1.0534394617E+03	0.000E+00	0.0
	1000022	2	5	5	0	0	-5.2658821599E+01	-1.3659664820E+02	4.2277295158E+02	9.5252046461E+02	8.4090824180E+02	0.000E+00	0.0
	14	1	6	6	0	0	3.3219228805E+01	-1.4232131487E+02	4.9374531602E+02	6.0890747320E+02	3.2500000000E+02	0.000E+00	0.0
	-14	1	6	6	0	0	-8.5878050403E+01	5.7246666780E+00	-7.0972364447E+01	3.4361299141E+02	3.2500000000E+02	0.000E+00	0.0
	25	2	5	5	0	0	5.2658821599E+01	1.3659664820E+02	3.3602408912E+01	1.9552708198E+02	1.2518035833E+02	0.000E+00	0.0
	-5	1	9	9	0	501	-2.1542983342E+01	-5.2335412030E+00	-1.6273025392E+01	2.7816790616E+01	4.1800000000E+00	0.000E+00	0.0
	5	1	9	9	501	0	7.4201804940E+01	1.4183018940E+02	4.9875434303E+01	1.6771029136E+02	4.1800000000E+00	0.000E+00	0.0
</event>
<event>
    11  -1  1.0000000E+00  1.0000000E+00  -1.0000000E+00  -1.0000000E+00
	2212	-1	0	0	0	0	0.0000000000E+00	0.0000000000E+00	6.5000000000E+03	6.5000000000E+03	9.3827000000E-01	0.000E+00	0.0
	2212	-1	0	0	0	0	0.0000000000E+00	0.0000000000E+00	-6.5000000000E+03	6.5000000000E+03	9.3827000000E-01	0.000E+00	0.0
	2212	1	0	0	0	0	0.0000000000E+00	0.0000000000E+00	5.9232158954E+03	5.9232158954E+03	9.3827000000E-01	0.000E+00	0.0
	2212	1	0	0	0	0	0.0000000000E+00	0.0000000000E+00	-6.0256405170E+03	6.0256405170E+03	9.3827000000E-01	0.000E+00	0.0
	51	2	1	2	0	0	-8.6495494283E+01	1.2396390600E+01	2.1052706939E+02	1.0706861476E+03	1.0461415003E+03	0.000E+00	0.0
	1000022	2	5	5	0	0	8.6495494283E+01	-1.2396390600E+01	-2.3027982053E+01	8.5354320557E+02	8.4874647262E+02	0.000E+00	0.0
	14	1	6	6	0	0	1.0919566716E+02	2.5453525382E+02	-5.7922960032E+01	4.3091989796E+02	3.2500000000E+02	0.000E+00	0.0
	-14	1	6	6	0	0	-2.2700172873E+01	-2.6693164442E+02	3.4894977979E+01	4.2262330760E+02	3.2500000000E+02	0.000E+00	0.0
	25	2	5	5	0	0	-8.6495494283E+01	1.2396390600E+01	1.2545260363E+02	1.9760038202E+02	1.2518951307E+02	0.000E+00	0.0
	-5	1	9	9	0	501	-7.1776452731E+01	-2.8355709958E+01	1.4797916005E+01	7.8691525414E+01	4.1800000000E+00	0.000E+00	0.0
	5	1	9	9	501	0	-1.4719041552E+01	4.0752100558E+01	1.1065468763E+02	1.1890885660E+02	4.1800000000E+00	0.000E+00	0.0
</event>
<event>
    11  -1  1.0000000E+00  1.0000000E+00  -1.0000000E+00  -1.0000000E+00
	2212	-1	0	0	0	0	0.0000000000E+00	0.0000000000E+00	6.5000000000E+03	6.5000000000E+03	9.3827000000E-01	0.000E+00	0.0
	2212	-1	0	0	0	0	0.0000000000E+00	0.0000000000E+00	-6.5000000000E+03	6.5000000000E+03	9.3827000000E-01	0.000E+00	0.0
	2212	1	0	0	0	0	0.0000000000E+00	0.0000000000E+00	6.1181437918E+03	6.1181437918E+03	9.3827000000E-01	0.000E+00	0.0
	2212	1	0	0	0	0	0.0000000000E+00	0.0000000000E+00	-5.7809237787E+03	5.7809237787E+03	9.3827000000E-01	0.000E+00	0.0
	51	2	1	2	0	0	1.1183244709E+02	-1.2051861255E+01	-4.1358589755E+02	1.1322720147E+03	1.0480147313E+03	0.000E+00	0.0
	1000022	2	5	5	0	0	-1.1183244709E+02	1.2051861255E+01	-2.0487349732E+02	8.8683117492E+02	8.5547918696E+02	0.000E+00	0.0
	14	1	6	6	0	0	1.7909868253E+02	9.7777086428E+01	2.8414187343E+01	3.8479743081E+02	3.2500000000E+02	0.000E+00	0.0
	-14	1	6	6	0	0	-2.9093112962E+02	-8.5725225173E+01	-2.3328768466E+02	5.0203374411E+02	3.2500000000E+02	0.000E+00	0.0
	25	2	5	5	0	0	1.1183244709E+02	-1.2051861255E+01	-1.3234651582E+02	2.1410125459E+02	1.2518787235E+02	0.000E+00	0.0
	-5	1	9	9	0	501	-2.0482352639E+01	2.2846944396E+01	-1.8713571000E+01	3.6182589424E+01	4.1800000000E+00	0.000E+00	0.0
	5	1	9	9	501	0	1.3231479973E+02	-3.4898805650E+01	-1.1363294482E+02	1.7791866516E+02	4.1800000000E+00	0.000E+00	0.0
</event>
<event>
    11  -1  1.0000000E+00  1.0000000E+00  -1.0000000E+00  -1.0000000E+00
	2212	-1	0	0	0	0	0.0000000000E+00	0.0000000000E+00	6.5000000000E+03	6.5000000000E+03	9.3827000000E-01	0.000E+00	0.0
	2212	-1	0	0	0	0	0.0000000000E+00	0.0000000000E+00	-6.5000000000E+03	6.5000000000E+03	9.3827000000E-01	0.000E+00	0.0
	2212	1	0	0	0	0	0.0000000000E+00	0.0000000000E+00	6.1744346648E+03	6.1744346648E+03	9.3827000000E-01	0.000E+00	0.0
	2212	1	0	0	0	0	0.0000000000E+00	0.0000000000E+00	-5.6619126230E+03	5.6619126230E+03	9.3827000000E-01	0.000E+00	0.0
	51	2	1	2	0	0	1.4016690308E+02	-3.8190113674E+01	-5.1173891661E+02	1.1723441285E+03	1.0447051218E+03	0.000E+00	0.0
	1000022	2	5	5	0	0	-1.4016690308E+02	3.8190113674E+01	-4.2413262213E+02	9.5250000609E+02	8.4039427351E+02	0.000E+00	0.0
	14	1	6	6	0	0	6.3626441794E+01	-3.4022514206E+01	-4.5176028906E+02	5.6117574283E+02	3.2500000000E+02	0.000E+00	0.0
	-14	1	6	6	0	0	-2.0379334487E+02	7.2212627880E+01	2.7627666929E+01	3.9132426327E+02	3.2500000000E+02	0.000E+00	0.0
	25	2	5	5	0	0	1.4016690308E+02	-3.8190113674E+01	-8.8389419669E+01	2.1115270617E+02	1.2517000564E+02	0.000E+00	0.0
	-5	1	9	9	0	501	2.4956354497E+01	3.6983582741E+01	4.6092145160E+00	4.5047999740E+01	4.1800000000E+00	0.000E+00	0.0
	5	1	9	9	501	0	1.1521054858E+02	-7.5173696415E+01	-9.2998634185E+01	1.6610470643E+02	4.1800000000E+00	0.000E+00	0.0
</event>
<event>
    11  -1  1.0000000E+00  1.0000000E+00  -1.0000000E+00  -1.0000000E+00
	2212	-1	0	0	0	0	0.0000000000E+00	0.0000000000E+00	6.5000000000E+03	6.5000000000E+03	9.3827000000E-01	0.000E+00	0.0
	2212	-1	0	0	0	0	0.0000000000E+00	0.0000000000E+00	-6.5000000000E+03	6.5000000000E+03	9.3827000000E-01	0.000E+00	0.0
	2212	1	0	0	0	0	0.0000000000E+00	0.0000000000E+00	6.2581383620E+03	6.2581383620E+03	9.3827000000E-01	0.000E+00	0.0
	2212	1	0	0	0	0	0.0000000000E+00	0.0000000000E+00	-5.3450550471E+03	5.3450550471E+03	9.3827000000E-01	0.000E+00	0.0
	51	2	1	2	0	0	3.1796112436E+01	9.3190092887E+01	-1.0518299291E+03	1.4944527755E+03	1.0570465989E+03	0.000E+00	0.0
	1000022	2	5	5	0	0	-3.1796112436E+01	-9.3190092887E+01	-6.2028316289E+02	1.0634940727E+03	8.5823834354E+02	0.000E+00	0.0
	14	1	6	6	0	0	1.9171374578E+02	2.0295269490E+01	-8.2153236545E+01	3.8670429602E+02	3.2500000000E+02	0.000E+00	0.0
	-14	1	6	6	0	0	-2.2350985821E+02	-1.1348536238E+02	-5.3812992635E+02	6.7678977668E+02	3.2500000000E+02	0.000E+00	0.0
	25	2	5	5	0	0	3.1796112436E+01	9.3190092887E+01	-2.9280015200E+02	3.3331251812E+02	1.2517954921E+02	0.000E+00	0.0
	-5	1	9	9	0	501	1.0321419421E+01	1.0117006100E+02	-2.9284127069E+02	3.1002482991E+02	4.1800000000E+00	0.000E+00	0.0
	5	1	9	9	501	0	2.1474693015E+01	-7.9799681175E+00	4.1118685093E-02	2.3287688206E+01	4.1800000000E+00	0.000E+00	0.0
</event>
<event>
    11  -1  1.0000000E+00  1.0000000E+00  -1.0000000E+00  -1.0000000E+00
	2212	-1	0	0	0	0	0.0000000000E+00	0.0000000000E+00	6.5000000000E+03	6.5000000000E+03	9.3827000000E-01	0.000E+00	0.0
	2212	-1	0	0	0	0	0.0000000000E+00	0.0000000000E+00	-6.5000000000E+03	6.5000000000E+03	9.3827000000E-01	0.000E+00	0.0
	2212	1	0	0	0	0	0.0000000000E+00	0.0000000000E+00	5.1747755411E+03	5.1747755411E+03	9.3827000000E-01	0.000E+00	0.0
	2212	1	0	0	0	0	0.0000000000E+00	0.0000000000E+00	-6.2911306027E+03	6.2911306027E+03	9.3827000000E-01	0.000E+00	0.0
	51	2	1	2	0	0	6.3887022446E+01	2.0184593429E+01	1.0312674379E+03	1.4748548518E+03	1.0522334989E+03	0.000E+00	0.0
	1000022	2	5	5	0	0	-6.3887022446E+01	-2.0184593429E+01	1.0415454234E+03	1.3736022251E+03	8.9301580864E+02	0.000E+00	0.0
	14	1	6	6	0	0	-7.6307253980E+01	1.0169074452E+02	8.9638584239E+01	3.6031081071E+02	3.2500000000E+02	0.000E+00	0.0
	-14	1	6	6	0	0	1.2420231534E+01	-1.2187533795E+02	9.5190683913E+02	1.0132914144E+03	3.2500000000E+02	0.000E+00	0.0
	25	2	5	5	0	0	6.3887022446E+01	2.0184593429E+01	7.4809638163E+01	1.6049163104E+02	1.2518830706E+02	0.000E+00	0.0
	-5	1	9	9	0	501	5.4745705154E+01	-3.8864151265E+01	7.4793434285E+01	1.0059346250E+02	4.1800000000E+00	0.000E+00	0.0
	5	1	9	9	501	0	9.1413172917E+00	5.9048744694E+01	1.6203878186E-02	5.9898168539E+01	4.1800000000E+00	0.000E+00	0.0
</event>
<event>
    11  -1  1.0000000E+00  1.0000000E+00  -1.0000000E+00  -1.0000000E+00
	2212	-1	0	0	0	0	0.0000000000E+00	0.0000000000E+00	6.5000000000E+03	6.5000000000E+03	9.3827000000E-01	0.000E+00	0.0
	2212	-1	0	0	0	0	0.0000000000E+00	0.0000000000E+00	-6.5000000000E+03	6.5000000000E+03	9.3827000000E-01	0.000E+00	0.0
	2212	1	0	0	0	0	0.0000000000E+00	0.0000000000E+00	5.0472362721E+03	5.0472362721E+03	9.3827000000E-01	0.000E+00	0.0
	2212	1	0	0	0	0	0.0000000000E+00	0.0000000000E+00	-6.3115335786E+03	6.3115335786E+03	9.3827000000E-01	0.000E+00	0.0
	51	2	1	2	0	0	-1.1307659010E+02	3.8398766584E+01	1.3821255401E+03	1.7377343045E+03	1.0465126487E+03	0.000E+00	0.0
	1000022	2	5	5	0	0	1.1307659010E+02	-3.8398766584E+01	9.3267443066E+02	1.2671914215E+03	8.4948909627E+02	0.000E+00	0.0
	14	1	6	6	0	0	2.2614949387E+02	-5.4529704099E+01	1.7782501254E+02	4.3745150279E+02	3.2500000000E+02	0.000E+00	0.0
	-14	1	6	6	0	0	-1.1307290377E+02	1.6130937515E+01	7.5484941812E+02	8.2973991874E+02	3.2500000000E+02	0.000E+00	0.0
	25	2	5	5	0	0	-1.1307659010E+02	3.8398766584E+01	3.3162287587E+02	3.7403872782E+02	1.2518169835E+02	0.000E+00	0.0
	-5	1	9	9	0	501	-2.0054652523E+01	6.1188241145E+01	6.9019309361E+01	9.4484535279E+01	4.1800000000E+00	0.000E+00	0.0
	5	1	9	9	501	0	-9.3021937581E+01	-2.2789474561E+01	2.6260356651E+02	2.7955419254E+02	4.1800000000E+00	0.000E+00	0.0
</event>
<event>
    11  -1  1.0000000E+00  1.0000000E+00  -1.0000000E+00  -1.0000000E+00
	2212	-1	0	0	0	0	0.0000000000E+00	0.0000000000E+00	6.5000000000E+03	6.5000000000E+03	9.3827000000E-01	0.000E+00	0.0
	2212	-1	0	0	0	0	0.0000000000E+00	0.0000000000E+00	-6.5000000000E+03	6.5000000000E+03	9.3827000000E-01	0.000E+00	0.0
	2212	1	0	0	0	0	0.0000000000E+00	0.0000000000E+00	6.3192899013E+03	6.3192899013E+03	9.3827000000E-01	0.000E+00	0.0
	2212	1	0	0	0	0	0.0000000000E+00	0.0000000000E+00	-4.9757592464E+03	4.9757592464E+03	9.3827000000E-01	0.000E+00	0.0
	51	2	1	2	0	0	2.5113342103E+02	-1.1273388433E+02	-1.6629876598E+03	1.9857209443E+03	1.0496584149E+03	0.000E+00	0.0
	1000022	2	5	5	0	0	-2.5113342103E+02	1.1273388433E+02	-6.4682492350E+02	9.4544919180E+02	6.3222999673E+02	0.000E+00	0.0
	14	1	6	6	0	0	0.0000000000E+00	0.0000000000E+00	0.0000000000E+00	0.0000000000E+00	0.0000000000E+00	0.000E+00	0.0
	-14	1	6	6	0	0	0.0000000000E+00	0.0000000000E+00	0.0000000000E+00	0.0000000000E+00	0.0000000000E+00	0.000E+00	0.0
	25	2	5	5	0	0	2.5113342103E+02	-1.1273388433E+02	-6.9670573140E+02	7.5950166049E+02	1.2516777655E+02	0.000E+00	0.0
	-5	1	9	9	0	501	8.7145316764E+01	-7.9792986388E+01	-4.1829326887E+02	4.3468144438E+02	4.1800000000E+00	0.000E+00	0.0
	5	1	9	9	501	0	1.6398810427E+02	-3.2940897945E+01	-2.7841246254E+02	3.2482021611E+02	4.1800000000E+00	0.000E+00	0.0
</event>
<event>
    11  -1  1.0000000E+00  1.0000000E+00  -1.0000000E+00  -1.0000000E+00
	2212	-1	0	0	0	0	0.0000000000E+00	0.0000000000E+00	6.5000000000E+03	6.5000000000E+03	9.3827000000E-01	0.000E+00	0.0
	2212	-1	0	0	0	0	0.0000000000E+00	0.0000000000E+00	-6.5000000000E+03	6.5000000000E+03	9.3827000000E-01	0.000E+00	0.0
	2212	1	0	0	0	0	0.0000000000E+00	0.0000000000E+00	6.3210806696E+03	6.3210806696E+03	9.3827000000E-01	0.000E+00	0.0
	2212	1	0	0	0	0	0.0000000000E+00	0.0000000000E+00	-4.9563121049E+03	4.9563121049E+03	9.3827000000E-01	0.000E+00	0.0
	51	2	1	2	0	0	6.5542947840E+01	-8.9925098630E+01	-1.2461679565E+03	1.6340438780E+03	1.0510863037E+03	0.000E+00	0.0
	1000022	2	5	5	0	0	-6.5542947840E+01	8.9925098630E+01	-1.2542037107E+03	1.5219185406E+03	8.5488402426E+02	0.000E+00	0.0
	14	1	6	6	0	0	-6.7411765142E+01	-1.0425216893E+02	-1.9887610212E+02	4.0073627837E+02	3.2500000000E+02	0.000E+00	0.0
	-14	1	6	6	0	0	1.8688173020E+00	1.9417726756E+02	-1.0553276086E+03	1.1211822623E+03	3.2500000000E+02	0.000E+00	0.0
	25	2	5	5	0	0	6.5542947840E+01	-8.9925098630E+01	-1.1056485395E+02	2.0068868479E+02	1.2517571609E+02	0.000E+00	0.0
	-5	1	9	9	0	501	5.2233457404E+01	-2.2185247593E+01	-1.1812390561E+02	1.3111540245E+02	4.1800000000E+00	0.000E+00	0.0
	5	1	9	9	501	0	1.3309490436E+01	-6.7739851036E+01	7.5590516527E+00	6.9573282343E+01	4.1800000000E+00	0.000E+00	0.0
</event>
<event>
    11  -1  1.0000000E+00  1.0000000E+00  -1.0000000E+00  -1.0000000E+00
	2212	-1	0	0	0	0	0.0000000000E+00	0.0000000000E+00	6.5000000000E+03	6.5000000000E+03	9.3827000000E-01	0.000E+00	0.0
	2212	-1	0	0	0	0	0.0000000000E+00	0.0000000000E+00	-6.5000000000E+03	6.5000000000E+03	9.3827000000E-01	0.000E+00	0.0
	2212	1	0	0	0	0	0.0000000000E+00	0.0000000000E+00	6.2049299321E+03	6.2049299321E+03	9.3827000000E-01	0.000E+00	0.0
	2212	1	0	0	0	0	0.0000000000E+00	0.0000000000E+00	-5.5492943368E+03	5.5492943368E+03	9.3827000000E-01	0.000E+00	0.0
	51	2	1	2	0	0	-5.0357740771E+01	7.6437334259E+01	-8.1497229667E+02	1.3396482937E+03	1.0592918099E+03	0.000E+00	0.0
	1000022	2	5	5	0	0	5.0357740771E+01	-7.6437334259E+01	-3.7864053878E+02	9.2834007265E+02	8.4265536535E+02	0.000E+00	0.0
	14	1	6	6	0	0	-1.8293691673E+02	1.2841293669E+02	-1.3376993748E+02	4.1650353418E+02	3.2500000000E+02	0.000E+00	0.0
	-14	1	6	6	0	0	2.3329465750E+02	-2.0485027095E+02	-2.4487060130E+02	5.1183653846E+02	3.2500000000E+02	0.000E+00	0.0
	25	2	5	5	0	0	-5.0357740771E+01	7.6437334259E+01	-2.7699505654E+02	3.1743565849E+02	1.2514219035E+02	0.000E+00	0.0
	-5	1	9	9	0	501	-4.6314486267E+01	4.1695479139E+01	-3.2484356565E+01	7.0400642328E+01	4.1800000000E+00	0.000E+00	0.0
	5	1	9	9	501	0	-4.0432545039E+00	3.4741855120E+01	-2.4451069998E+02	2.4703501616E+02	4.1800000000E+00	0.000E+00	0.0
</event>
<event>
    11  -1  1.0000000E+00  1.0000000E+00  -1.0000000E+00  -1.0000000E+00
	2212	-1	0	0	0	0	0.0000000000E+00	0.0000000000E+00	6.5000000000E+03	6.5000000000E+03	9.3827000000E-01	0.000E+00	0.0
	2212	-1	0	0	0	0	0.0000000000E+00	0.0000000000E+00	-6.5000000000E+03	6.5000000000E+03	9.3827000000E-01	0.000E+00	0.0
	2212	1	0	0	0	0	0.0000000000E+00	0.0000000000E+00	5.4370198096E+03	5.4370198096E+03	9.3827000000E-01	0.000E+00	0.0
	2212	1	0	0	0	0	0.0000000000E+00	0.0000000000E+00	-6.2389981592E+03	6.2389981592E+03	9.3827000000E-01	0.000E+00	0.0
	51	2	1	2	0	0	-1.3131895145E+02	4.7621518176E+01	7.9642207264E+02	1.3279908657E+03	1.0534510646E+03	0.000E+00	0.0
	1000022	2	5	5	0	0	1.3131895145E+02	-4.7621518176E+01	6.7158909127E+02	1.0955413947E+03	8.5420522360E+02	0.000E+00	0.0
	14	1	6	6	0	0	9.3006315587E-01	2.4022387636E+02	3.9157233939E+02	5.6272752978E+02	3.2500000000E+02	0.000E+00	0.0
	-14	1	6	6	0	0	1.3038888830E+02	-2.8784539453E+02	2.8001675188E+02	5.3281386494E+02	3.2500000000E+02	0.000E+00	0.0
	25	2	5	5	0	0	-1.3131895145E+02	4.7621518176E+01	1.3038925841E+02	2.2844063647E+02	1.2518502178E+02	0.000E+00	0.0
	-5	1	9	9	0	501	-4.1709953105E+00	3.9680800609E+01	8.3478744102E+01	9.2618228528E+01	4.1800000000E+00	0.000E+00	0.0
	5	1	9	9	501	0	-1.2714795614E+02	7.9407175671E+00	4.6910514312E+01	1.3582240794E+02	4.1800000000E+00	0.000E+00	0.0
</event>
<event>
    11  -1  1.0000000E+00  1.0000000E+00  -1.0000000E+00  -1.0000000E+00
	2212	-1	0	0	0	0	0.0000000000E+00	0.0000000000E+00	6.5000000000E+03	6.5000000000E+03	9.3827000000E-01	0.000E+00	0.0
	2212	-1	0	0	0	0	0.0000000000E+00	0.0000000000E+00	-6.5000000000E+03	6.5000000000E+03	9.3827000000E-01	0.000E+00	0.0
	2212	1	0	0	0	0	0.0000000000E+00	0.0000000000E+00	6.1276616519E+03	6.1276616519E+03	9.3827000000E-01	0.000E+00	0.0
	2212	1	0	0	0	0	0.0000000000E+00	0.0000000000E+00	-5.7641245191E+03	5.7641245191E+03	9.3827000000E-01	0.000E+00	0.0
	51	2	1	2	0	0	-2.4299704352E+01	3.0565242566E+01	-5.0634861515E+02	1.1635687662E+03	1.0468899865E+03	0.000E+00	0.0
	1000022	2	5	5	0	0	2.4299704352E+01	-3.0565242566E+01	-1.5925321067E+02	8.6546508359E+02	8.4979027773E+02	0.000E+00	0.0
	14	1	6	6	0	0	-2.5348808993E+02	-8.1120698111E+01	-8.5082023546E+01	4.2860323159E+02	3.2500000000E+02	0.000E+00	0.0
	-14	1	6	6	0	0	2.7778779428E+02	5.0555455546E+01	-7.4171187126E+01	4.3686185200E+02	3.2500000000E+02	0.000E+00	0.0
	25	2	5	5	0	0	-2.4299704352E+01	3.0565242566E+01	-2.0428392207E+02	2.4274874541E+02	1.2518116032E+02	0.000E+00	0.0
	-5	1	9	9	0	501	-2.6824460408E+01	1.7624463844E+01	-2.1968026190E+02	2.2205193823E+02	4.1800000000E+00	0.000E+00	0.0
	5	1	9	9	501	0	2.5247560559E+00	1.2940778722E+01	1.5396339836E+01	2.0696807179E+01	4.1800000000E+00	0.000E+00	0.0
</event>
<event>
    11  -1  1.0000000E+00  1.0000000E+00  -1.0000000E+00  -1.0000000E+00
	2212	-1	0	0	0	0	0.0000000000E+00	0.0000000000E+00	6.5000000000E+03	6.5000000000E+03	9.3827000000E-01	0.000E+00	0.0
	2212	-1	0	0	0	0	0.0000000000E+00	0.0000000000E+00	-6.5000000000E+03	6.5000000000E+03	9.3827000000E-01	0.000E+00	0.0
	2212	1	0	0	0	0	0.0000000000E+00	0.0000000000E+00	5.4589407801E+03	5.4589407801E+03	9.3827000000E-01	0.000E+00	0.0
	2212	1	0	0	0	0	0.0000000000E+00	0.0000000000E+00	-6.2216780542E+03	6.2216780542E+03	9.3827000000E-01	0.000E+00	0.0
	51	2	1	2	0	0	-7.5162958190E+01	1.2450869637E+02	7.0601658509E+02	1.2956117533E+03	1.0765679315E+03	0.000E+00	0.0
	1000022	2	5	5	0	0	7.5162958190E+01	-1.2450869637E+02	6.8630921211E+02	1.1128301776E+03	8.6383955909E+02	0.000E+00	0.0
	14	1	6	6	0	0	-2.1887843345E+02	-7.5267067788E-01	4.6007518263E+02	6.0431987293E+02	3.2500000000E+02	0.000E+00	0.0
	-14	1	6	6	0	0	2.9404139164E+02	-1.2375602569E+02	2.2623402948E+02	5.0851030470E+02	3.2500000000E+02	0.000E+00	0.0
	25	2	5	5	0	0	-7.5162958190E+01	1.2450869637E+02	7.6428062060E+01	2.0655098810E+02	1.2518057460E+02	0.000E+00	0.0
	-5	1	9	9	0	501	-1.0089508620E+02	8.9033576955E+01	8.8243057641E+01	1.6096926994E+02	4.1800000000E+00	0.000E+00	0.0
	5	1	9	9	501	0	2.5732128005E+01	3.5475119417E+01	-1.1814995581E+01	4.5581718154E+01	4.1800000000E+00	0.000E+00	0.0
</event>
<event>
    11  -1  1.0000000E+00  1.0000000E+00  -1.0000000E+00  -1.0000000E+00
	2212	-1	0	0	0	0	0.0000000000E+00	0.0000000000E+00	6.5000000000E+03	6.5000000000E+03	9.3827000000E-01	0.000E+00	0.0
	2212	-1	0	0	0	0	0.0000000000E+00	0.0000000000E+00	-6.5000000000E+03	6.5000000000E+03	9.3827000000E-01	0.000E+00	0.0
	2212	1	0	0	0	0	0.0000000000E+00	0.0000000000E+00	4.9358600877E+03	4.9358600877E+03	9.3827000000E-01	0.000E+00	0.0
	2212	1	0	0	0	0	0.0000000000E+00	0.0000000000E+00	-6.3234783910E+03	6.3234783910E+03	9.3827000000E-01	0.000E+00	0.0
	51	2	1	2	0	0	1.2233401295E+02	-5.8392057702E+01	1.3154685359E+03	1.6891567981E+03	1.0509129252E+03	0.000E+00	0.0
	1000022	2	5	5	0	0	-1.2233401295E+02	5.8392057702E+01	1.2199677739E+03	1.4913550285E+03	8.4702019368E+02	0.000E+00	0.0
	14	1	6	6	0	0	-3.2019272638E+02	-2.0339836284E+01	5.3098126579E+02	7.0035933319E+02	3.2500000000E+02	0.000E+00	0.0
	-14	1	6	6	0	0	1.9785871343E+02	7.8731893986E+01	6.8898650807E+02	7.9099569526E+02	3.2500000000E+02	0.000E+00	0.0
	25	2	5	5	0	0	1.2233401295E+02	-5.8392057702E+01	1.6765052944E+02	2.4930649292E+02	1.2518699718E+02	0.000E+00	0.0
	-5	1	9	9	0	501	4.4404586625E+01	3.2896228432E+01	9.1886447796E+01	1.0730573539E+02	4.1800000000E+00	0.000E+00	0.0
	5	1	9	9	501	0	7.7929426324E+01	-9.1288286134E+01	7.5764081641E+01	1.4200075753E+02	4.1800000000E+00	0.000E+00	0.0
</event>
<event>
    11  -1  1.0000000E+00  1.0000000E+00  -1.0000000E+00  -1.0000000E+00
	2212	-1	0	0	0	0	0.0000000000E+00	0.0000000000E+00	6.5000000000E+03	6.5000000000E+03	9.3827000000E-01	0.000E+00	0.0
	2212	-1	0	0	0	0	0.0000000000E+00	0.0000000000E+00	-6.5000000000E+03	6.5000000000E+03	9.3827000000E-01	0.000E+00	0.0
	2212	1	0	0	0	0	0.0000000000E+00	0.0000000000E+00	6.2475894535E+03	6.2475894535E+03	9.3827000000E-01	0.000E+00	0.0
	2212	1	0	0	0	0	0.0000000000E+00	0.0000000000E+00	-5.4106781924E+03	5.4106781924E+03	9.3827000000E-01	0.000E+00	0.0
	51	2	1	2	0	0	-7.0326923365E+01	-2.6594620655E+01	-9.9312826358E+02	1.4462994672E+03	1.0487255365E+03	0.000E+00	0.0
	1000022	2	5	5	0	0	7.0326923365E+01	2.6594620655E+01	-5.3894409168E+02	1.0099120135E+03	8.5076929363E+02	0.000E+00	0.0
	14	1	6	6	0	0	2.7851848472E+02	-3.2090520079E+01	-1.3936903303E+02	4.5127716005E+02	3.2500000000E+02	0.000E+00	0.0
	-14	1	6	6	0	0	-2.0819156136E+02	5.8685140734E+01	-3.9957505865E+02	5.5863485342E+02	3.2500000000E+02	0.000E+00	0.0
	25	2	5	5	0	0	-7.0326923365E+01	-2.6594620655E+01	-2.9796716940E+02	3.3182034058E+02	1.2516850395E+02	0.000E+00	0.0
	-5	1	9	9	0	501	-3.1372905381E+01	-7.0205428262E+01	-2.2735927451E+02	2.4004744001E+02	4.1800000000E+00	0.000E+00	0.0
	5	1	9	9	501	0	-3.8954017984E+01	4.3610807607E+01	-7.0607894886E+01	9.1772900562E+01	4.1800000000E+00	0.000E+00	0.0
</event>
<event>
    11  -1  1.0000000E+00  1.0000000E+00  -1.0000000E+00  -1.0000000E+00
	2212	-1	0	0	0	0	0.0000000000E+00	0.0000000000E+00	6.5000000000E+03	6.5000000000E+03	9.3827000000E-01	0.000E+00	0.0
	2212	-1	0	0	0	0	0.0000000000E+00	0.0000000000E+00	-6.5000000000E+03	6.5000000000E+03	9.3827000000E-01	0.000E+00	0.0
	2212	1	0	0	0	0	0.0000000000E+00	0.0000000000E+00	6.2608953947E+03	6.2608953947E+03	9.3827000000E-01	0.000E+00	0.0
	2212	1	0	0	0	0	0.0000000000E+00	0.0000000000E+00	-5.2481656903E+03	5.2481656903E+03	9.3827000000E-01	0.000E+00	0.0
	51	2	1	2	0	0	-1.3869657832E+02	1.1577009817E+02	-1.1094247423E+03	1.5686746347E+03	1.0942017156E+03	0.000E+00	0.0
	1000022	2	5	5	0	0	1.3869657832E+02	-1.1577009817E+02	-7.2040986971E+02	1.1252047087E+03	8.4525487264E+02	0.000E+00	0.0
	14	1	6	6	0	0	1.3535498465E+02	-2.5552669841E+02	-6.2009297532E+02	7.5746627879E+02	3.2500000000E+02	0.000E+00	0.0
	-14	1	6	6	0	0	3.3415936742E+00	1.3975660024E+02	-1.0031689439E+02	3.6773842994E+02	3.2500000000E+02	0.000E+00	0.0
	25	2	5	5	0	0	-1.3869657832E+02	1.1577009817E+02	-2.9231983467E+02	3.6573420632E+02	1.2518453365E+02	0.000E+00	0.0
	-5	1	9	9	0	501	-1.4831574642E+02	5.9447828150E+01	-2.3863965722E+02	2.8722458687E+02	4.1800000000E+00	0.000E+00	0.0
	5	1	9	9	501	0	9.6191680958E+00	5.6322270018E+01	-5.3680177452E+01	7.8509619450E+01	4.1800000000E+00	0.000E+00	0.0
</event>
<event>
    11  -1  1.0000000E+00  1.0000000E+00  -1.0000000E+00  -1.0000000E+00
	2212	-1	0	0	0	0	0.0000000000E+00	0.0000000000E+00	6.5000000000E+03	6.5000000000E+03	9.3827000000E-01	0.000E+00	0.0
	2212	-1	0	0	0	0	0.0000000000E+00	0.0000000000E+00	-6.5000000000E+03	6.5000000000E+03	9.3827000000E-01	0.000E+00	0.0
	2212	1	0	0	0	0	0.0000000000E+00	0.0000000000E+00	6.0610516680E+03	6.0610516680E+03	9.3827000000E-01	0.000E+00	0.0
	2212	1	0	0	0	0	0.0000000000E+00	0.0000000000E+00	-5.8743960274E+03	5.8743960274E+03	9.3827000000E-01	0.000E+00	0.0
	51	2	1	2	0	0	2.1165324539E+01	1.3111671917E+02	-2.3473471961E+02	1.0822066506E+03	1.0480607239E+03	0.000E+00	0.0
	1000022	2	5	5	0	0	-2.1165324539E+01	-1.3111671917E+02	-1.0673808610E+02	8.6531371947E+02	8.4837211710E+02	0.000E+00	0.0
	14	1	6	6	0	0	-2.3717906699E+02	4.8778122825E+01	-1.5281895821E+02	4.3314183482E+02	3.2500000000E+02	0.000E+00	0.0
	-14	1	6	6	0	0	2.1601374245E+02	-1.7989484200E+02	4.6080872114E+01	4.3217188465E+02	3.2500000000E+02	0.000E+00	0.0
	25	2	5	5	0	0	2.1165324539E+01	1.3111671917E+02	-7.9917554505E+01	1.9923858511E+02	1.2517840575E+02	0.000E+00	0.0
	-5	1	9	9	0	501	-5.0052444201E+01	7.9861397208E+01	-4.7284739806E+01	1.0552918531E+02	4.1800000000E+00	0.000E+00	0.0
	5	1	9	9	501	0	7.1217768740E+01	5.1255321965E+01	-3.2632814699E+01	9.3709399792E+01	4.1800000000E+00	0.000E+00	0.0
</event>
<event>
    11  -1  1.0000000E+00  1.0000000E+00  -1.0000000E+00  -1.0000000E+00
	2212	-1	0	0	0	0	0.0000000000E+00	0.0000000000E+00	6.5000000000E+03	6.5000000000E+03	9.3827000000E-01	0.000E+00	0.0
	2212	-1	0	0	0	0	0.0000000000E+00	0.0000000000E+00	-6.5000000000E+03	6.5000000000E+03	9.3827000000E-01	0.000E+00	0.0
	2212	1	0	0	0	0	0.0000000000E+00	0.0000000000E+00	6.3089398068E+03	6.3089398068E+03	9.3827000000E-01	0.000E+00	0.0
	2212	1	0	0	0	0	0.0000000000E+00	0.0000000000E+00	-5.0163448376E+03	5.0163448376E+03	9.3827000000E-01	0.000E+00	0.0
	51	2	1	2	0	0	8.0868734716E+01	-1.3627806263E+02	-1.3177486908E+03	1.7016000830E+03	1.0648332112E+03	0.000E+00	0.0
	1000022	2	5	5	0	0	-8.0868734716E+01	1.3627806263E+02	-1.0364156857E+03	1.3485086708E+03	8.4806055157E+02	0.000E+00	0.0
	14	1	6	6	0	0	1.4076840396E+02	-6.5141470640E+01	-2.2524602717E+02	4.2475866972E+02	3.2500000000E+02	0.000E+00	0.0
	-14	1	6	6	0	0	-2.2163713868E+02	2.0141953327E+02	-8.1116965852E+02	9.2375000110E+02	3.2500000000E+02	0.000E+00	0.0
	25	2	5	5	0	0	8.0868734716E+01	-1.3627806263E+02	-2.5617928358E+02	3.2620668477E+02	1.2518591470E+02	0.000E+00	0.0
	-5	1	9	9	0	501	-2.8943346964E+01	-3.7523550199E+01	-1.0262942113E+02	1.1311942642E+02	4.1800000000E+00	0.000E+00	0.0
	5	1	9	9	501	0	1.0981208168E+02	-9.8754512434E+01	-1.5354986246E+02	2.1308725835E+02	4.1800000000E+00	0.000E+00	0.0
</event>
<event>
    11  -1  1.0000000E+00  1.0000000E+00  -1.0000000E+00  -1.0000000E+00
	2212	-1	0	0	0	0	0.0000000000E+00	0.0000000000E+00	6.5000000000E+03	6.5000000000E+03	9.3827000000E-01	0.000E+00	0.0
	2212	-1	0	0	0	0	0.0000000000E+00	0.0000000000E+00	-6.5000000000E+03	6.5000000000E+03	9.3827000000E-01	0.000E+00	0.0
	2212	1	0	0	0	0	0.0000000000E+00	0.0000000000E+00	5.9498497476E+03	5.9498497476E+03	9.3827000000E-01	0.000E+00	0.0
	2212	1	0	0	0	0	0.0000000000E+00	0.0000000000E+00	-6.0028156866E+03	6.0028156866E+03	9.3827000000E-01	0.000E+00	0.0
	51	2	1	2	0	0	-1.3730479822E+02	1.5664952395E+01	7.0478579787E+01	1.0574353553E+03	1.0459944083E+03	0.000E+00	0.0
	1000022	2	5	5	0	0	1.3730479822E+02	-1.5664952395E+01	2.6438921718E+01	8.5898586164E+02	8.4738403074E+02	0.000E+00	0.0
	14	1	6	6	0	0	-3.0673056929E+01	1.1497577282E+01	2.6565220507E+02	4.2103340101E+02	3.2500000000E+02	0.000E+00	0.0
	-14	1	6	6	0	0	1.6797785514E+02	-2.7162529677E+01	-2.3921328335E+02	4.3795246063E+02	3.2500000000E+02	0.000E+00	0.0
	25	2	5	5	0	0	-1.3730479822E+02	1.5664952395E+01	2.6527017327E+01	1.8834870421E+02	1.2519406289E+02	0.000E+00	0.0
	-5	1	9	9	0	501	2.2375175406E+01	1.3908332434E+01	5.3567645672E+00	2.7207673773E+01	4.1800000000E+00	0.000E+00	0.0
	5	1	9	9	501	0	-1.5967997362E+02	1.7566199613E+00	2.1170252760E+01	1.6114103044E+02	4.1800000000E+00	0.000E+00	0.0
</event>
<event>
    11  -1  1.0000000E+00  1.0000000E+00  -1.0000000E+00  -1.0000000E+00
	2212	-1	0	0	0	0	0.0000000000E+00	0.0000000000E+00	6.5000000000E+03	6.5000000000E+03	9.3827000000E-01	0.000E+00	0.0
	2212	-1	0	0	0	0	0.0000000000E+00	0.0000000000E+00	-6.5000000000E+03	6.5000000000E+03	9.3827000000E-01	0.000E+00	0.0
	2212	1	0	0	0	0	0.0000000000E+00	0.0000000000E+00	6.3260076014E+03	6.3260076014E+03	9.3827000000E-01	0.000E+00	0.0
	2212	1	0	0	0	0	0.0000000000E+00	0.0000000000E+00	-4.9135772554E+03	4.9135772554E+03	9.3827000000E-01	0.000E+00	0.0
	51	2	1	2	0	0	-1.6659766229E+01	-1.2358182944E+02	-1.3205063280E+03	1.6921551267E+03	1.0507625773E+03	0.000E+00	0.0
	1000022	2	5	5	0	0	1.6659766229E+01	1.2358182944E+02	-1.2649095496E+03	1.5302375918E+03	8.5210380963E+02	0.000E+00	0.0
	14	1	6	6	0	0	-2.8424383272E+01	-4.4152100374E+00	-1.0884715827E+03	1.1363198608E+03	3.2500000000E+02	0.000E+00	0.0
	-14	1	6	6	0	0	4.5084149501E+01	1.2799703948E+02	-1.7643796684E+02	3.9391773100E+02	3.2500000000E+02	0.000E+00	0.0
	25	2	5	5	0	0	-1.6659766229E+01	-1.2358182944E+02	-1.4752079642E+02	2.3017755135E+02	1.2517708811E+02	0.000E+00	0.0
	-5	1	9	9	0	501	1.6407628159E+01	-9.4793391407E+01	-1.5788470484E+02	1.8493255457E+02	4.1800000000E+00	0.000E+00	0.0
	5	1	9	9	501	0	-3.3067394388E+01	-2.8788438032E+01	1.0363908417E+01	4.5244996780E+01	4.1800000000E+00	0.000E+00	0.0
</event>
<event>
    11  -1  1.0000000E+00  1.0000000E+00  -1.0000000E+00  -1.0000000E+00
	2212	-1	0	0	0	0	0.0000000000E+00	0.0000000000E+00	6.5000000000E+03	6.5000000000E+03	9.3827000000E-01	0.000E+00	0.0
	2212	-1	0	0	0	0	0.0000000000E+00	0.0000000000E+00	-6.5000000000E+03	6.5000000000E+03	9.3827000000E-01	0.000E+00	0.0
	2212	1	0	0	0	0	0.0000000000E+00	0.0000000000E+00	5.4276550069E+03	5.4276550069E+03	9.3827000000E-01	0.000E+00	0.0
	2212	1	0	0	0	0	0.0000000000E+00	0.0000000000E+00	-6.2426420703E+03	6.2426420703E+03	9.3827000000E-01	0.000E+00	0.0
	51	2	1	2	0	0	9.0502837214E+01	7.7196320709E+01	9.2404126962E+02	1.4042465071E+03	1.0506692863E+03	0.000E+00	0.0
	1000022	2	5	5	0	0	-9.0502837214E+01	-7.7196320709E+01	5.6580196942E+02	1.0265269350E+03	8.4821910154E+02	0.000E+00	0.0
	14	1	6	6	0	0	-2.8809625933E+01	1.4250800579E+02	5.1512195800E+02	6.2619019305E+02	3.2500000000E+02	0.000E+00	0.0
	-14	1	6	6	0	0	-6.1693211281E+01	-2.1970432650E+02	5.0680011414E+01	4.0033674195E+02	3.2500000000E+02	0.000E+00	0.0
	25	2	5	5	0	0	9.0502837214E+01	7.7196320709E+01	2.4918509399E+02	3.0317598775E+02	1.2518958824E+02	0.000E+00	0.0
	-5	1	9	9	0	501	5.5453206175E+01	-1.9713843339E+01	1.4513812605E+02	1.5667240257E+02	4.1800000000E+00	0.000E+00	0.0
	5	1	9	9	501	0	3.5049631039E+01	9.6910164048E+01	1.0404696794E+02	1.4650358518E+02	4.1800000000E+00	0.000E+00	0.0
</event>
<event>
    11  -1  1.0000000E+00  1.0000000E+00  -1.0000000E+00  -1.0000000E+00
	2212	-1	0	0	0	0	0.0000000000E+00	0.0000000000E+00	6.5000000000E+03	6.5000000000E+03	9.3827000000E-01	0.000E+00	0.0
	2212	-1	0	0	0	0	0.0000000000E+00	0.0000000000E+00	-6.5000000000E+03	6.5000000000E+03	9.3827000000E-01	0.000E+00	0.0
	2212	1	0	0	0	0	0.0000000000E+00	0.0000000000E+00	6.0589879277E+03	6.0589879277E+03	9.3827000000E-01	0.000E+00	0.0
	2212	1	0	0	0	0	0.0000000000E+00	0.0000000000E+00	-5.8745563748E+03	5.8745563748E+03	9.3827000000E-01	0.000E+00	0.0
	51	2	1	2	0	0	1.2225713977E+02	5.1685787282E+00	-2.2323239860E+02	1.0807955325E+03	1.0503869558E+03	0.000E+00	0.0
	1000022	2	5	5	0	0	-1.2225713977E+02	-5.1685787282E+00	-1.1558032481E+02	8.7835274548E+02	8.6207378546E+02	0.000E+00	0.0
	14	1	6	6	0	0	1.0222603356E+02	-2.3046270303E+02	-1.0026788818E+02	4.2336965978E+02	3.2500000000E+02	0.000E+00	0.0
	-14	1	6	6	0	0	-2.2448317333E+02	2.2529412430E+02	-1.5312436621E+01	4.5498308570E+02	3.2500000000E+02	0.000E+00	0.0
	25	2	5	5	0	0	1.2225713977E+02	5.1685787282E+00	-6.8851228082E+01	1.8810295198E+02	1.2517470392E+02	0.000E+00	0.0
	-5	1	9	9	0	501	1.5710714206E+01	-2.4770281734E+01	-7.1419455426E+01	7.7321435652E+01	4.1800000000E+00	0.000E+00	0.0
	5	1	9	9	501	0	1.0654642557E+02	2.9938860463E+01	2.5682273438E+00	1.1078151632E+02	4.1800000000E+00	0.000E+00	0.0
</event>
<event>
    11  -1  1.0000000E+00  1.0000000E+00  -1.0000000E+00  -1.0000000E+00
	2212	-1	0	0	0	0	0.0000000000E+00	0.0000000000E+00	6.5000000000E+03	6.5000000000E+03	9.3827000000E-01	0.000E+00	0.0
	2212	-1	0	0	0	0	0.0000000000E+00	0.0000000000E+00	-6.5000000000E+03	6.5000000000E+03	9.3827000000E-01	0.000E+00	0.0
	2212	1	0	0	0	0	0.0000000000E+00	0.0000000000E+00	6.2599822037E+03	6.2599822037E+03	9.3827000000E-01	0.000E+00	0.0
	2212	1	0	0	0	0	0.0000000000E+00	0.0000000000E+00	-5.3390178435E+03	5.3390178435E+03	9.3827000000E-01	0.000E+00	0.0
	51	2	1	2	0	0	8.2355850980E+01	4.2931036117E+01	-1.0608237321E+03	1.4995326157E+03	1.0557582653E+03	0.000E+00	0.0
	1000022	2	5	5	0	0	-8.2355850980E+01	-4.2931036117E+01	-6.2734809322E+02	1.0685674647E+03	8.6002629989E+02	0.000E+00	0.0
	14	1	6	6	0	0	5.1687895113E+01	-2.7866686410E+02	-3.9961679738E+02	5.8791618824E+02	3.2500000000E+02	0.000E+00	0.0
	-14	1	6	6	0	0	-1.3404374609E+02	2.3573582798E+02	-2.2773129585E+02	4.8065127647E+02	3.2500000000E+02	0.000E+00	0.0
	25	2	5	5	0	0	8.2355850980E+01	4.2931036117E+01	-2.9361626701E+02	3.3243248804E+02	1.2520098560E+02	0.000E+00	0.0
	-5	1	9	9	0	501	1.9225580958E+01	2.1773971888E+01	-2.5221725476E+02	2.5391877602E+02	4.1800000000E+00	0.000E+00	0.0
	5	1	9	9	501	0	6.3130270022E+01	2.1157064230E+01	-4.1399012252E+01	7.8513712021E+01	4.1800000000E+00	0.000E+00	0.0
</event>
<event>
    11  -1  1.0000000E+00  1.0000000E+00  -1.0000000E+00  -1.0000000E+00
	2212	-1	0	0	0	0	0.0000000000E+00	0.0000000000E+00	6.5000000000E+03	6.5000000000E+03	9.3827000000E-01	0.000E+00	0.0
	2212	-1	0	0	0	0	0.0000000000E+00	0.0000000000E+00	-6.5000000000E+03	6.5000000000E+03	9.3827000000E-01	0.000E+00	0.0
	2212	1	0	0	0	0	0.0000000000E+00	0.0000000000E+00	6.1482460506E+03	6.1482460506E+03	9.3827000000E-01	0.000E+00	0.0
	2212	1	0	0	0	0	0.0000000000E+00	0.0000000000E+00	-5.7081783421E+03	5.7081783421E+03	9.3827000000E-01	0.000E+00	0.0
	51	2	1	2	0	0	-4.4409498222E+01	-1.6068575047E+02	-4.4624888029E+02	1.1580309834E+03	1.0555119997E+03	0.000E+00	0.0
	1000022	2	5	5	0	0	4.4409498222E+01	1.6068575047E+02	-3.5243389531E+02	9.1745449867E+02	8.3049442661E+02	0.000E+00	0.0
	14	1	6	6	0	0	1.4180259124E+02	-1.5112693576E+02	-1.8052894456E+02	4.2563250043E+02	3.2500000000E+02	0.000E+00	0.0
	-14	1	6	6	0	0	-9.7393093015E+01	3.1181268623E+02	-1.7190495075E+02	4.9182199824E+02	3.2500000000E+02	0.000E+00	0.0
	25	2	5	5	0	0	-4.4409498222E+01	-1.6068575047E+02	-8.7633813186E+01	2.2612110859E+02	1.2513575268E+02	0.000E+00	0.0
	-5	1	9	9	0	501	-7.1302494749E+01	-9.3349280989E+01	-9.7642764406E+01	1.5280613816E+02	4.1800000000E+00	0.000E+00	0.0
	5	1	9	9	501	0	2.6892996527E+01	-6.7336469478E+01	1.0008951220E+01	7.3314970426E+01	4.1800000000E+00	0.000E+00	0.0
</event>
<event>
    11  -1  1.0000000E+00  1.0000000E+00  -1.0000000E+00  -1.0000000E+00
	2212	-1	0	0	0	0	0.0000000000E+00	0.0000000000E+00	6.5000000000E+03	6.5000000000E+03	9.3827000000E-01	0.000E+00	0.0
	2212	-1	0	0	0	0	0.0000000000E+00	0.0000000000E+00	-6.5000000000E+03	6.5000000000E+03	9.3827000000E-01	0.000E+00	0.0
	2212	1	0	0	0	0	0.0000000000E+00	0.0000000000E+00	4.9211974109E+03	4.9211974109E+03	9.3827000000E-01	0.000E+00	0.0
	2212	1	0	0	0	0	0.0000000000E+00	0.0000000000E+00	-6.2782734002E+03	6.2782734002E+03	9.3827000000E-01	0.000E+00	0.0
	51	2	1	2	0	0	-2.3102183158E+02	1.3031717138E+02	1.3711570512E+03	1.8304850260E+03	1.1833216467E+03	0.000E+00	0.0
	1000022	2	5	5	0	0	2.3102183158E+02	-1.3031717138E+02	1.0400526837E+03	1.3686383412E+03	8.4918058872E+02	0.000E+00	0.0
	14	1	6	6	0	0	-1.3782378611E+02	-4.4648237669E+01	2.5254485698E+02	4.3634019518E+02	3.2500000000E+02	0.000E+00	0.0
	-14	1	6	6	0	0	3.6884561769E+02	-8.5668933710E+01	7.8750782669E+02	9.3229814597E+02	3.2500000000E+02	0.000E+00	0.0
	25	2	5	5	0	0	-2.3102183158E+02	1.3031717138E+02	3.1702330558E+02	4.3189084774E+02	1.2518896222E+02	0.000E+00	0.0
	-5	1	9	9	0	501	-8.4894421020E+01	1.1582998516E+02	1.2739664630E+02	1.9201829618E+02	4.1800000000E+00	0.000E+00	0.0
	5	1	9	9	501	0	-1.4612741056E+02	1.4487186224E+01	1.8962665929E+02	2.3987255156E+02	4.1800000000E+00	0.000E+00	0.0
</event>
<event>
    11  -1  1.0000000E+00  1.0000000E+00  -1.0000000E+00  -1.0000000E+00
	2212	-1	0	0	0	0	0.0000000000E+00	0.0000000000E+00	6.5000000000E+03	6.5000000000E+03	9.3827000000E-01	0.000E+00	0.0
	2212	-1	0	0	0	0	0.0000000000E+00	0.0000000000E+00	-6.5000000000E+03	6.5000000000E+03	9.3827000000E-01	0.000E+00	0.0
	2212	1	0	0	0	0	0.0000000000E+00	0.0000000000E+00	5.8573304156E+03	5.8573304156E+03	9.3827000000E-01	0.000E+00	0.0
	2212	1	0	0	0	0	0.0000000000E+00	0.0000000000E+00	-6.0669271688E+03	6.0669271688E+03	9.3827000000E-01	0.000E+00	0.0
	51	2	1	2	0	0	2.0909852021E+02	6.1644917457E-01	1.4160001788E+02	1.0849258417E+03	1.0551260331E+03	0.000E+00	0.0
	1000022	2	5	5	0	0	-2.0909852021E+02	-6.1644917457E-01	2.3170343823E+02	8.3103113592E+02	7.7019717892E+02	0.000E+00	0.0
	14	1	6	6	0	0	-2.8325443194E+02	-7.7924441979E+01	4.2878926201E+01	4.4019188337E+02	3.2500000000E+02	0.000E+00	0.0
	-14	1	6	6	0	0	7.4155911722E+01	7.7307992804E+01	1.8882451203E+02	3.9083925256E+02	3.2500000000E+02	0.000E+00	0.0
	25	2	5	5	0	0	2.0909852021E+02	6.1644917457E-01	-2.2106685112E+01	2.4471127968E+02	1.2518919167E+02	0.000E+00	0.0
	-5	1	9	9	0	501	2.0827459468E+02	-1.9155659899E+01	-4.5189754484E+01	2.1402063547E+02	4.1800000000E+00	0.000E+00	0.0
	5	1	9	9	501	0	8.2392553210E-01	1.9772109073E+01	2.3083069372E+01	3.0690644212E+01	4.1800000000E+00	0.000E+00	0.0
</event>
<event>
    11  -1  1.0000000E+00  1.0000000E+00  -1.0000000E+00  -1.0000000E+00
	2212	-1	0	0	0	0	0.0000000000E+00	0.0000000000E+00	6.5000000000E+03	6.5000000000E+03	9.3827000000E-01	0.000E+00	0.0
	2212	-1	0	0	0	0	0.0000000000E+00	0.0000000000E+00	-6.5000000000E+03	6.5000000000E+03	9.3827000000E-01	0.000E+00	0.0
	2212	1	0	0	0	0	0.0000000000E+00	0.0000000000E+00	4.8818558977E+03	4.8818558977E+03	9.3827000000E-01	0.000E+00	0.0
	2212	1	0	0	0	0	0.0000000000E+00	0.0000000000E+00	-6.3302521632E+03	6.3302521632E+03	9.3827000000E-01	0.000E+00	0.0
	51	2	1	2	0	0	-9.4011743923E+01	-1.8902256681E+01	1.2890997629E+03	1.6642354238E+03	1.0481917019E+03	0.000E+00	0.0
	1000022	2	5	5	0	0	9.4011743923E+01	1.8902256681E+01	1.3617748569E+03	1.6079888128E+03	8.4970686589E+02	0.000E+00	0.0
	14	1	6	6	0	0	1.0584240206E+02	-1.1270676776E+02	1.1338916409E+03	1.1896388876E+03	3.2500000000E+02	0.000E+00	0.0
	-14	1	6	6	0	0	-1.1830658135E+01	1.3160902444E+02	2.2788321597E+02	4.1834992519E+02	3.2500000000E+02	0.000E+00	0.0
	25	2	5	5	0	0	-9.4011743923E+01	-1.8902256681E+01	8.6621408597E+01	1.7990312626E+02	1.2516534307E+02	0.000E+00	0.0
	-5	1	9	9	0	501	-1.0358396557E+02	2.4473113514E+01	8.3193771109E+01	1.3515638039E+02	4.1800000000E+00	0.000E+00	0.0
	5	1	9	9	501	0	9.5722216509E+00	-4.3375370194E+01	3.4276374878E+00	4.4746745866E+01	4.1800000000E+00	0.000E+00	0.0
</event>
<event>
    11  -1  1.0000000E+00  1.0000000E+00  -1.0000000E+00  -1.0000000E+00
	2212	-1	0	0	0	0	0.0000000000E+00	0.0000000000E+00	6.5000000000E+03	6.5000000000E+03	9.3827000000E-01	0.000E+00	0.0
	2212	-1	0	0	0	0	0.0000000000E+00	0.0000000000E+00	-6.5000000000E+03	6.5000000000E+03	9.3827000000E-01	0.000E+00	0.0
	2212	1	0	0	0	0	0.0000000000E+00	0.0000000000E+00	5.6583073379E+03	5.6583073379E+03	9.3827000000E-01	0.000E+00	0.0
	2212	1	0	0	0	0	0.0000000000E+00	0.0000000000E+00	-6.1690020801E+03	6.1690020801E+03	9.3827000000E-01	0.000E+00	0.0
	51	2	1	2	0	0	-6.5722125081E-01	-1.3326873846E+02	4.5789497807E+02	1.1583707874E+03	1.0556486544E+03	0.000E+00	0.0
	1000022	2	5	5	0	0	6.5722125081E-01	1.3326873846E+02	4.7624574929E+02	9.8666408918E+02	8.5377691616E+02	0.000E+00	0.0
	14	1	6	6	0	0	-1.5502031728E+02	8.6289154033E+01	-2.0890819702E+01	3.7086189238E+02	3.2500000000E+02	0.000E+00	0.0
	-14	1	6	6	0	0	1.5567753853E+02	4.6979584428E+01	4.9713656899E+02	6.1580219680E+02	3.2500000000E+02	0.000E+00	0.0
	25	2	5	5	0	0	-6.5722125081E-01	-1.3326873846E+02	3.4448992912E+01	1.8602649291E+02	1.2513246725E+02	0.000E+00	0.0
	-5	1	9	9	0	501	1.2139594943E+01	-4.0847696049E+01	7.3285590990E+01	8.4877289569E+01	4.1800000000E+00	0.000E+00	0.0
	5	1	9	9	501	0	-1.2796816194E+01	-9.2421042413E+01	-3.8836598077E+01	1.0114920334E+02	4.1800000000E+00	0.000E+00	0.0
</event>
<event>
    11  -1  1.0000000E+00  1.0000000E+00  -1.0000000E+00  -1.0000000E+00
	2212	-1	0	0	0	0	0.0000000000E+00	0.0000000000E+00	6.5000000000E+03	6.5000000000E+03	9.3827000000E-01	0.000E+00	0.0
	2212	-1	0	0	0	0	0.0000000000E+00	0.0000000000E+00	-6.5000000000E+03	6.5000000000E+03	9.3827000000E-01	0.000E+00	0.0
	2212	1	0	0	0	0	0.0000000000E+00	0.0000000000E+00	4.9316699692E+03	4.9316699692E+03	9.3827000000E-01	0.000E+00	0.0
	2212	1	0	0	0	0	0.0000000000E+00	0.0000000000E+00	-6.3382445165E+03	6.3382445165E+03	9.3827000000E-01	0.000E+00	0.0
	51	2	1	2	0	0	-1.1657985500E+00	-3.9112259702E+01	1.5660535524E+03	1.8624711506E+03	1.0073449904E+03	0.000E+00	0.0
	1000022	2	5	5	0	0	1.1657985500E+00	3.9112259702E+01	1.0322837472E+03	1.3334815502E+03	8.4322724231E+02	0.000E+00	0.0
	14	1	6	6	0	0	-1.6158545956E+02	1.4079262331E+02	8.0161317852E+02	8.9114595409E+02	3.2500000000E+02	0.000E+00	0.0
	-14	1	6	6	0	0	1.6275125811E+02	-1.0168036361E+02	2.3067056864E+02	4.4233559612E+02	3.2500000000E+02	0.000E+00	0.0
	25	2	5	5	0	0	-1.1657985500E+00	-3.9112259702E+01	3.7429080013E+02	3.9660396409E+02	1.2517976402E+02	0.000E+00	0.0
	-5	1	9	9	0	501	4.3406058690E+01	-3.5699962122E+01	7.4212495514E+01	9.3185514523E+01	4.1800000000E+00	0.000E+00	0.0
	5	1	9	9	501	0	-4.4571857240E+01	-3.4122975794E+00	3.0007830462E+02	3.0341844956E+02	4.1800000000E+00	0.000E+00	0.0
</event>
<event>
    11  -1  1.0000000E+00  1.0000000E+00  -1.0000000E+00  -1.0000000E+00
	2212	-1	0	0	0	0	0.0000000000E+00	0.0000000000E+00	6.5000000000E+03	6.5000000000E+03	9.3827000000E-01	0.000E+00	0.0
	2212	-1	0	0	0	0	0.0000000000E+00	0.0000000000E+00	-6.5000000000E+03	6.5000000000E+03	9.3827000000E-01	0.000E+00	0.0
	2212	1	0	0	0	0	0.0000000000E+00	0.0000000000E+00	5.6615404962E+03	5.6615404962E+03	9.3827000000E-01	0.000E+00	0.0
	2212	1	0	0	0	0	0.0000000000E+00	0.0000000000E+00	-6.1710096477E+03	6.1710096477E+03	9.3827000000E-01	0.000E+00	0.0
	51	2	1	2	0	0	-9.9564579286E+01	5.2564760800E+01	6.1805713487E+02	1.2239489905E+03	1.0504191306E+03	0.000E+00	0.0
	1000022	2	5	5	0	0	9.9564579286E+01	-5.2564760800E+01	3.1243820735E+02	9.0828345199E+02	8.4539046377E+02	0.000E+00	0.0
	14	1	6	6	0	0	1.1716084138E+02	2.0156558514E+02	2.9129406392E+02	4.9480559773E+02	3.2500000000E+02	0.000E+00	0.0
	-14	1	6	6	0	0	-1.7596262097E+01	-2.5413034594E+02	2.1144143437E+01	4.1347785427E+02	3.2500000000E+02	0.000E+00	0.0
	25	2	5	5	0	0	-9.9564579286E+01	5.2564760800E+01	1.9703094414E+02	2.5916640401E+02	1.2517936128E+02	0.000E+00	0.0
	-5	1	9	9	0	501	-7.6491806221E+01	-1.5867173140E+01	4.3655509725E+01	8.9588166248E+01	4.1800000000E+00	0.000E+00	0.0
	5	1	9	9	501	0	-2.3072773065E+01	6.8431933940E+01	1.5337543442E+02	1.6957823776E+02	4.1800000000E+00	0.000E+00	0.0
</event>
<event>
    11  -1  1.0000000E+00  1.0000000E+00  -1.0000000E+00  -1.0000000E+00
	2212	-1	0	0	0	0	0.0000000000E+00	0.0000000000E+00	6.5000000000E+03	6.5000000000E+03	9.3827000000E-01	0.000E+00	0.0
	2212	-1	0	0	0	0	0.0000000000E+00	0.0000000000E+00	-6.5000000000E+03	6.5000000000E+03	9.3827000000E-01	0.000E+00	0.0
	2212	1	0	0	0	0	0.0000000000E+00	0.0000000000E+00	6.2659839694E+03	6.2659839694E+03	9.3827000000E-01	0.000E+00	0.0
	2212	1	0	0	0	0	0.0000000000E+00	0.0000000000E+00	-5.3190581505E+03	5.3190581505E+03	9.3827000000E-01	0.000E+00	0.0
	51	2	1	2	0	0	-4.2163608178E+01	6.4049944454E+01	-1.1066760410E+03	1.5284139887E+03	1.0513977820E+03	0.000E+00	0.0
	1000022	2	5	5	0	0	4.2163608178E+01	-6.4049944454E+01	-6.2839486540E+02	1.0642413202E+03	8.5548192005E+02	0.000E+00	0.0
	14	1	6	6	0	0	-1.7493417757E+02	7.6112332476E+01	-9.5655687945E+01	3.8880594681E+02	3.2500000000E+02	0.000E+00	0.0
	-14	1	6	6	0	0	2.1709778574E+02	-1.4016227693E+02	-5.3273917746E+02	6.7543537340E+02	3.2500000000E+02	0.000E+00	0.0
	25	2	5	5	0	0	-4.2163608178E+01	6.4049944454E+01	-3.1853095352E+02	3.5071655989E+02	1.2513980899E+02	0.000E+00	0.0
	-5	1	9	9	0	501	-8.2818015478E+01	2.4952785575E+01	-1.5321951409E+02	1.7599760536E+02	4.1800000000E+00	0.000E+00	0.0
	5	1	9	9	501	0	4.0654407300E+01	3.9097158879E+01	-1.6531143943E+02	1.7471895453E+02	4.1800000000E+00	0.000E+00	0.0
</event>
<event>
    11  -1  1.0000000E+00  1.0000000E+00  -1.0000000E+00  -1.0000000E+00
	2212	-1	0	0	0	0	0.0000000000E+00	0.0000000000E+00	6.5000000000E+03	6.5000000000E+03	9.3827000000E-01	0.000E+00	0.0
	2212	-1	0	0	0	0	0.0000000000E+00	0.0000000000E+00	-6.5000000000E+03	6.5000000000E+03	9.3827000000E-01	0.000E+00	0.0
	2212	1	0	0	0	0	0.0000000000E+00	0.0000000000E+00	5.9648131131E+03	5.9648131131E+03	9.3827000000E-01	0.000E+00	0.0
	2212	1	0	0	0	0	0.0000000000E+00	0.0000000000E+00	-5.9878232478E+03	5.9878232478E+03	9.3827000000E-01	0.000E+00	0.0
	51	2	1	2	0	0	9.8442299192E+01	-3.7519215107E+01	-6.7012448246E+01	1.0545285071E+03	1.0471108471E+03	0.000E+00	0.0
	1000022	2	5	5	0	0	-9.8442299192E+01	3.7519215107E+01	1.0912821529E+02	8.6247561360E+02	8.4903276669E+02	0.000E+00	0.0
	14	1	6	6	0	0	-4.0770440540E+01	2.9191388776E+02	5.0864453817E+01	4.4168783020E+02	3.2500000000E+02	0.000E+00	0.0
	-14	1	6	6	0	0	-5.7671858652E+01	-2.5439467265E+02	5.8263761469E+01	4.2078778339E+02	3.2500000000E+02	0.000E+00	0.0
	25	2	5	5	0	0	9.8442299192E+01	-3.7519215107E+01	-8.6118080590E+01	1.8488802550E+02	1.2517459965E+02	0.000E+00	0.0
	-5	1	9	9	0	501	1.7990065333E+01	3.9401772497E+01	-5.3218804709E+01	6.8744859453E+01	4.1800000000E+00	0.000E+00	0.0
	5	1	9	9	501	0	8.0452233859E+01	-7.6920987604E+01	-3.2899275881E+01	1.1614316605E+02	4.1800000000E+00	0.000E+00	0.0
</event>
<event>
    11  -1  1.0000000E+00  1.0000000E+00  -1.0000000E+00  -1.0000000E+00
	2212	-1	0	0	0	0	0.0000000000E+00	0.0000000000E+00	6.5000000000E+03	6.5000000000E+03	9.3827000000E-01	0.000E+00	0.0
	2212	-1	0	0	0	0	0.0000000000E+00	0.0000000000E+00	-6.5000000000E+03	6.5000000000E+03	9.3827000000E-01	0.000E+00	0.0
	2212	1	0	0	0	0	0.0000000000E+00	0.0000000000E+00	4.9111336594E+03	4.9111336594E+03	9.3827000000E-01	0.000E+00	0.0
	2212	1	0	0	0	0	0.0000000000E+00	0.0000000000E+00	-6.3225603228E+03	6.3225603228E+03	9.3827000000E-01	0.000E+00	0.0
	51	2	1	2	0	0	-7.8406592023E+01	7.7278252582E+01	1.2408355525E+03	1.6369190916E+03	1.0619377205E+03	0.000E+00	0.0
	1000022	2	5	5	0	0	7.8406592023E+01	-7.7278252582E+01	1.3305881949E+03	1.5810456507E+03	8.4682990221E+02	0.000E+00	0.0
	14	1	6	6	0	0	1.3822858427E+02	-2.7770156886E+02	8.7502419936E+02	9.8362475179E+02	3.2500000000E+02	0.000E+00	0.0
	-14	1	6	6	0	0	-5.9821992250E+01	2.0042331628E+02	4.5556399556E+02	5.9742089896E+02	3.2500000000E+02	0.000E+00	0.0
	25	2	5	5	0	0	-7.8406592023E+01	7.7278252582E+01	8.0838468475E+01	1.8526036700E+02	1.2516798153E+02	0.000E+00	0.0
	-5	1	9	9	0	501	-2.3041338043E+01	8.9892010224E+01	8.6127474775E+00	9.3290559973E+01	4.1800000000E+00	0.000E+00	0.0
	5	1	9	9	501	0	-5.5365253980E+01	-1.2613757643E+01	7.2225720997E+01	9.1969807022E+01	4.1800000000E+00	0.000E+00	0.0
</event>
<event>
    11  -1  1.0000000E+00  1.0000000E+00  -1.0000000E+00  -1.0000000E+00
	2212	-1	0	0	0	0	0.0000000000E+00	0.0000000000E+00	6.5000000000E+03	6.5000000000E+03	9.3827000000E-01	0.000E+00	0.0
	2212	-1	0	0	0	0	0.0000000000E+00	0.0000000000E+00	-6.5000000000E+03	6.5000000000E+03	9.3827000000E-01	0.000E+00	0.0
	2212	1	0	0	0	0	0.0000000000E+00	0.0000000000E+00	5.1401622627E+03	5.1401622627E+03	9.3827000000E-01	0.000E+00	0.0
	2212	1	0	0	0	0	0.0000000000E+00	0.0000000000E+00	-6.3101008866E+03	6.3101008866E+03	9.3827000000E-01	0.000E+00	0.0
	51	2	1	2	0	0	-8.6709146270E+01	1.1803898502E+01	1.2078187717E+03	1.5809528507E+03	1.0163306169E+03	0.000E+00	0.0
	1000022	2	5	5	0	0	8.6709146270E+01	-1.1803898502E+01	9.5904470375E+02	1.2893414620E+03	8.5730791073E+02	0.000E+00	0.0
	14	1	6	6	0	0	-1.5010460388E+02	1.4909630528E+02	6.5134251428E+02	7.5804562611E+02	3.2500000000E+02	0.000E+00	0.0
	-14	1	6	6	0	0	2.3681375015E+02	-1.6090020378E+02	3.0770218946E+02	5.3129583589E+02	3.2500000000E+02	0.000E+00	0.0
	25	2	5	5	0	0	-8.6709146270E+01	1.1803898502E+01	2.1089392016E+02	2.6039538876E+02	1.2518668004E+02	0.000E+00	0.0
	-5	1	9	9	0	501	1.6722186742E+01	1.6846641354E+01	-1.4124964063E+00	2.4143496028E+01	4.1800000000E+00	0.000E+00	0.0
	5	1	9	9	501	0	-1.0343133301E+02	-5.0427428522E+00	2.1230641657E+02	2.3625189273E+02	4.1800000000E+00	0.000E+00	0.0
</event>
<event>
    11  -1  1.0000000E+00  1.0000000E+00  -1.0000000E+00  -1.0000000E+00
	2212	-1	0	0	0	0	0.0000000000E+00	0.0000000000E+00	6.5000000000E+03	6.5000000000E+03	9.3827000000E-01	0.000E+00	0.0
	2212	-1	0	0	0	0	0.0000000000E+00	0.0000000000E+00	-6.5000000000E+03	6.5000000000E+03	9.3827000000E-01	0.000E+00	0.0
	2212	1	0	0	0	0	0.0000000000E+00	0.0000000000E+00	5.3315777714E+03	5.3315777714E+03	9.3827000000E-01	0.000E+00	0.0
	2212	1	0	0	0	0	0.0000000000E+00	0.0000000000E+00	-6.2656847770E+03	6.2656847770E+03	9.3827000000E-01	0.000E+00	0.0
	51	2	1	2	0	0	-8.7874441420E+01	-4.6768316338E+01	8.0175083631E+02	1.3220552397E+03	1.0464781222E+03	0.000E+00	0.0
	1000022	2	5	5	0	0	8.7874441420E+01	4.6768316338E+01	9.0441174323E+02	1.2400689437E+03	8.4255634294E+02	0.000E+00	0.0
	14	1	6	6	0	0	2.7822091499E+02	9.6287893815E+01	3.1929231633E+02	5.4244890939E+02	3.2500000000E+02	0.000E+00	0.0
	-14	1	6	6	0	0	-1.9034647358E+02	-4.9519577476E+01	5.8511942691E+02	6.9762003433E+02	3.2500000000E+02	0.000E+00	0.0
	25	2	5	5	0	0	-8.7874441420E+01	-4.6768316338E+01	2.9695262366E+01	1.6266850792E+02	1.2518003832E+02	0.000E+00	0.0
	-5	1	9	9	0	501	-1.0313151039E+02	-3.3303657631E+01	6.1500789849E+01	1.2467983637E+02	4.1800000000E+00	0.000E+00	0.0
	5	1	9	9	501	0	1.5257068966E+01	-1.3464658707E+01	-3.1805527483E+01	3.7988671549E+01	4.1800000000E+00	0.000E+00	0.0
</event>
<event>
    11  -1  1.0000000E+00  1.0000000E+00  -1.0000000E+00  -1.0000000E+00
	2212	-1	0	0	0	0	0.0000000000E+00	0.0000000000E+00	6.5000000000E+03	6.5000000000E+03	9.3827000000E-01	0.000E+00	0.0
	2212	-1	0	0	0	0	0.0000000000E+00	0.0000000000E+00	-6.5000000000E+03	6.5000000000E+03	9.3827000000E-01	0.000E+00	0.0
	2212	1	0	0	0	0	0.0000000000E+00	0.0000000000E+00	6.3263820566E+03	6.3263820566E+03	9.3827000000E-01	0.000E+00	0.0
	2212	1	0	0	0	0	0.0000000000E+00	0.0000000000E+00	-4.9346891202E+03	4.9346891202E+03	9.3827000000E-01	0.000E+00	0.0
	51	2	1	2	0	0	2.6186667356E+01	4.7541738064E+01	-1.6033547372E+03	1.9133103759E+03	1.0426237207E+03	0.000E+00	0.0
	1000022	2	5	5	0	0	-2.6186667356E+01	-4.7541738064E+01	-9.4836619060E+02	1.2750805069E+03	8.5057974886E+02	0.000E+00	0.0
	14	1	6	6	0	0	1.1468601481E+02	-1.1416761734E+02	-8.1244256091E+02	8.8987360992E+02	3.2500000000E+02	0.000E+00	0.0
	-14	1	6	6	0	0	-1.4087268216E+02	6.6625879280E+01	-1.3592362968E+02	3.8520689697E+02	3.2500000000E+02	0.000E+00	0.0
	25	2	5	5	0	0	2.6186667356E+01	4.7541738064E+01	-4.4332674583E+02	4.6384831634E+02	1.2518266093E+02	0.000E+00	0.0
	-5	1	9	9	0	501	-1.9199030371E+01	7.4011732071E+01	-1.8540266957E+02	2.0059402168E+02	4.1800000000E+00	0.000E+00	0.0
	5	1	9	9	501	0	4.5385697727E+01	-2.6469994007E+01	-2.5792407626E+02	2.6325429466E+02	4.1800000000E+00	0.000E+00	0.0
</event>
<event>
    11  -1  1.0000000E+00  1.0000000E+00  -1.0000000E+00  -1.0000000E+00
	2212	-1	0	0	0	0	0.0000000000E+00	0.0000000000E+00	6.5000000000E+03	6.5000000000E+03	9.3827000000E-01	0.000E+00	0.0
	2212	-1	0	0	0	0	0.0000000000E+00	0.0000000000E+00	-6.5000000000E+03	6.5000000000E+03	9.3827000000E-01	0.000E+00	0.0
	2212	1	0	0	0	0	0.0000000000E+00	0.0000000000E+00	6.0578378438E+03	6.0578378438E+03	9.3827000000E-01	0.000E+00	0.0
	2212	1	0	0	0	0	0.0000000000E+00	0.0000000000E+00	-5.9010507463E+03	5.9010507463E+03	9.3827000000E-01	0.000E+00	0.0
	51	2	1	2	0	0	-4.0697063706E+01	-1.0156649022E+02	-1.7621626448E+02	1.0499309257E+03	1.0292379578E+03	0.000E+00	0.0
	1000022	2	5	5	0	0	4.0697063706E+01	1.0156649022E+02	-1.1278716831E+02	8.6913496850E+02	8.5481146763E+02	0.000E+00	0.0
	14	1	6	6	0	0	6.3380674711E+01	5.1718599358E-01	-3.2778933937E+02	4.6592727803E+02	3.2500000000E+02	0.000E+00	0.0
	-14	1	6	6	0	0	-2.2683611005E+01	1.0104930423E+02	2.1500217106E+02	4.0320769047E+02	3.2500000000E+02	0.000E+00	0.0
	25	2	5	5	0	0	-4.0697063706E+01	-1.0156649022E+02	-4.3999929146E+01	1.7197644138E+02	1.2517148116E+02	0.000E+00	0.0
	-5	1	9	9	0	501	3.6579931854E+01	-1.1022503577E+00	-2.3021898565E+01	4.3437156719E+01	4.1800000000E+00	0.000E+00	0.0
	5	1	9	9	501	0	-7.7276995559E+01	-1.0046423986E+02	-2.0978030581E+01	1.2853928466E+02	4.1800000000E+00	0.000E+00	0.0
</event>
<event>
    11  -1  1.0000000E+00  1.0000000E+00  -1.0000000E+00  -1.0000000E+00
	2212	-1	0	0	0	0	0.0000000000E+00	0.0000000000E+00	6.5000000000E+03	6.5000000000E+03	9.3827000000E-01	0.000E+00	0.0
	2212	-1	0	0	0	0	0.0000000000E+00	0.0000000000E+00	-6.5000000000E+03	6.5000000000E+03	9.3827000000E-01	0.000E+00	0.0
	2212	1	0	0	0	0	0.0000000000E+00	0.0000000000E+00	6.0021427909E+03	6.0021427909E+03	9.3827000000E-01	0.000E+00	0.0
	2212	1	0	0	0	0	0.0000000000E+00	0.0000000000E+00	-5.9448229114E+03	5.9448229114E+03	9.3827000000E-01	0.000E+00	0.0
	51	2	1	2	0	0	1.0557700806E+02	8.9663201128E+01	-7.2973541928E+01	1.0630648125E+03	1.0514730922E+03	0.000E+00	0.0
	1000022	2	5	5	0	0	-1.0557700806E+02	-8.9663201128E+01	-3.1956331171E+01	8.6462163986E+02	8.5285601291E+02	0.000E+00	0.0
	14	1	6	6	0	0	-2.3583001155E+02	1.2277478426E+02	-1.3725922109E+02	4.4176298597E+02	3.2500000000E+02	0.000E+00	0.0
	-14	1	6	6	0	0	1.3025300348E+02	-2.1243798539E+02	1.0530288992E+02	4.2285865390E+02	3.2500000000E+02	0.000E+00	0.0
	25	2	5	5	0	0	1.0557700806E+02	8.9663201128E+01	-2.5363548361E+01	1.8841265785E+02	1.2517997357E+02	0.000E+00	0.0
	-5	1	9	9	0	501	-5.1257283288E+00	1.6788143788E+01	-5.0342253547E+01	5.3478311070E+01	4.1800000000E+00	0.000E+00	0.0
	5	1	9	9	501	0	1.1070273639E+02	7.2875057341E+01	2.4978705185E+01	1.3493434678E+02	4.1800000000E+00	0.000E+00	0.0
</event>
<event>
    11  -1  1.0000000E+00  1.0000000E+00  -1.0000000E+00  -1.0000000E+00
	2212	-1	0	0	0	0	0.0000000000E+00	0.0000000000E+00	6.5000000000E+03	6.5000000000E+03	9.3827000000E-01	0.000E+00	0.0
	2212	-1	0	0	0	0	0.0000000000E+00	0.0000000000E+00	-6.5000000000E+03	6.5000000000E+03	9.3827000000E-01	0.000E+00	0.0
	2212	1	0	0	0	0	0.0000000000E+00	0.0000000000E+00	6.1953267191E+03	6.1953267191E+03	9.3827000000E-01	0.000E+00	0.0
	2212	1	0	0	0	0	0.0000000000E+00	0.0000000000E+00	-5.5844845508E+03	5.5844845508E+03	9.3827000000E-01	0.000E+00	0.0
	51	2	1	2	0	0	-9.4316349736E+01	-4.3812176493E+01	-5.0550988543E+02	1.1756222639E+03	1.0562823404E+03	0.000E+00	0.0
	1000022	2	5	5	0	0	9.4316349736E+01	4.3812176493E+01	-6.1239630934E+02	1.0574530065E+03	8.5578183000E+02	0.000E+00	0.0
	14	1	6	6	0	0	1.4662450571E+02	-1.6751822055E+02	-8.8721309766E+01	4.0380387652E+02	3.2500000000E+02	0.000E+00	0.0
	-14	1	6	6	0	0	-5.2308155973E+01	2.1133039704E+02	-5.2367499957E+02	6.5364912994E+02	3.2500000000E+02	0.000E+00	0.0
	25	2	5	5	0	0	-9.4316349736E+01	-4.3812176493E+01	1.5541410079E+00	1.6273572368E+02	1.2516157465E+02	0.000E+00	0.0
	-5	1	9	9	0	501	-1.0565114998E+02	7.7769750771E+00	1.7387482057E+01	1.0743576576E+02	4.1800000000E+00	0.000E+00	0.0
	5	1	9	9	501	0	1.1334800243E+01	-5.1589151571E+01	-1.5833341049E+01	5.5299957912E+01	4.1800000000E+00	0.000E+00	0.0
</event>
<event>
    11  -1  1.0000000E+00  1.0000000E+00  -1.0000000E+00  -1.0000000E+00
	2212	-1	0	0	0	0	0.0000000000E+00	0.0000000000E+00	6.5000000000E+03	6.5000000000E+03	9.3827000000E-01	0.000E+00	0.0
	2212	-1	0	0	0	0	0.0000000000E+00	0.0000000000E+00	-6.5000000000E+03	6.5000000000E+03	9.3827000000E-01	0.000E+00	0.0
	2212	1	0	0	0	0	0.0000000000E+00	0.0000000000E+00	6.0855489087E+03	6.0855489087E+03	9.3827000000E-01	0.000E+00	0.0
	2212	1	0	0	0	0	0.0000000000E+00	0.0000000000E+00	-5.8296014381E+03	5.8296014381E+03	9.3827000000E-01	0.000E+00	0.0
	51	2	1	2	0	0	1.3955451862E+02	-4.5533796989E+01	-3.0381102001E+02	1.1069054108E+03	1.0542246735E+03	0.000E+00	0.0
	1000022	2	5	5	0	0	-1.3955451862E+02	4.5533796989E+01	-1.6274041177E+02	8.7060254284E+02	8.4256486732E+02	0.000E+00	0.0
	14	1	6	6	0	0	-2.3008957020E+02	2.4088850179E+02	-8.6654840431E+01	4.7339469999E+02	3.2500000000E+02	0.000E+00	0.0
	-14	1	6	6	0	0	9.0535051588E+01	-1.9535470480E+02	-7.6085571334E+01	3.9720784285E+02	3.2500000000E+02	0.000E+00	0.0
	25	2	5	5	0	0	1.3955451862E+02	-4.5533796989E+01	-9.3207058899E+01	2.1424711034E+02	1.2516180779E+02	0.000E+00	0.0
	-5	1	9	9	0	501	-1.4390140077E+01	-2.7497185289E+01	3.4947323525E+00	3.1509631614E+01	4.1800000000E+00	0.000E+00	0.0
	5	1	9	9	501	0	1.5394465869E+02	-1.8036611700E+01	-9.6701791252E+01	1.8273747873E+02	4.1800000000E+00	0.000E+00	0.0
</event>
<event>
    11  -1  1.0000000E+00  1.0000000E+00  -1.0000000E+00  -1.0000000E+00
	2212	-1	0	0	0	0	0.0000000000E+00	0.0000000000E+00	6.5000000000E+03	6.5000000000E+03	9.3827000000E-01	0.000E+00	0.0
	2212	-1	0	0	0	0	0.0000000000E+00	0.0000000000E+00	-6.5000000000E+03	6.5000000000E+03	9.3827000000E-01	0.000E+00	0.0
	2212	1	0	0	0	0	0.0000000000E+00	0.0000000000E+00	6.3153559961E+03	6.3153559961E+03	9.3827000000E-01	0.000E+00	0.0
	2212	1	0	0	0	0	0.0000000000E+00	0.0000000000E+00	-5.0298443832E+03	5.0298443832E+03	9.3827000000E-01	0.000E+00	0.0
	51	2	1	2	0	0	5.6883856866E+01	-3.2327604749E+01	-1.4367804162E+03	1.7760744605E+03	1.0420276761E+03	0.000E+00	0.0
	1000022	2	5	5	0	0	-5.6883856866E+01	3.2327604749E+01	-9.3459874058E+02	1.2765291019E+03	8.6704722768E+02	0.000E+00	0.0
	14	1	6	6	0	0	1.1824247804E+01	6.9137081278E+01	-5.6855053380E+01	3.3730882873E+02	3.2500000000E+02	0.000E+00	0.0
	-14	1	6	6	0	0	-6.8708104670E+01	-3.6809476529E+01	-8.7774368720E+02	9.3922027322E+02	3.2500000000E+02	0.000E+00	0.0
	25	2	5	5	0	0	5.6883856866E+01	-3.2327604749E+01	-3.5091287231E+02	3.7827051872E+02	1.2517145911E+02	0.000E+00	0.0
	-5	1	9	9	0	501	-3.9618729619E+01	-1.7303056278E+01	-1.1271214709E+02	1.2079130761E+02	4.1800000000E+00	0.000E+00	0.0
	5	1	9	9	501	0	9.6502586486E+01	-1.5024548471E+01	-2.3820072523E+02	2.5747921111E+02	4.1800000000E+00	0.000E+00	0.0
</event>
<event>
    11  -1  1.0000000E+00  1.0000000E+00  -1.0000000E+00  -1.0000000E+00
	2212	-1	0	0	0	0	0.0000000000E+00	0.0000000000E+00	6.5000000000E+03	6.5000000000E+03	9.3827000000E-01	0.000E+00	0.0
	2212	-1	0	0	0	0	0.0000000000E+00	0.0000000000E+00	-6.5000000000E+03	6.5000000000E+03	9.3827000000E-01	0.000E+00	0.0
	2212	1	0	0	0	0	0.0000000000E+00	0.0000000000E+00	6.0537636206E+03	6.0537636206E+03	9.3827000000E-01	0.000E+00	0.0
	2212	1	0	0	0	0	0.0000000000E+00	0.0000000000E+00	-5.8587187454E+03	5.8587187454E+03	9.3827000000E-01	0.000E+00	0.0
	51	2	1	2	0	0	3.6696463208E+01	8.6793733621E+01	-6.5754908127E+01	1.0760369843E+03	1.0698841531E+03	0.000E+00	0.0
	1000022	2	5	5	0	0	-3.6696463208E+01	-8.6793733621E+01	-2.8946365323E+02	9.0456593655E+02	8.5180428763E+02	0.000E+00	0.0
	14	1	6	6	0	0	1.8256904024E+02	-4.2697396207E+01	-3.4060278610E+02	5.0674429449E+02	3.2500000000E+02	0.000E+00	0.0
	-14	1	6	6	0	0	-2.1926550345E+02	-4.4096337414E+01	5.1139132879E+01	3.9782164206E+02	3.2500000000E+02	0.000E+00	0.0
	25	2	5	5	0	0	3.6696463208E+01	8.6793733621E+01	9.4418778080E+01	1.8295169749E+02	1.2520637105E+02	0.000E+00	0.0
	-5	1	9	9	0	501	-3.2102181154E+01	6.5154550762E+01	1.2657567906E+01	7.3846814049E+01	4.1800000000E+00	0.000E+00	0.0
	5	1	9	9	501	0	6.8798644363E+01	2.1639182859E+01	8.1761210175E+01	1.0910488344E+02	4.1800000000E+00	0.000E+00	0.0
</event>
<event>
    11  -1  1.0000000E+00  1.0000000E+00  -1.0000000E+00  -1.0000000E+00
	2212	-1	0	0	0	0	0.0000000000E+00	0.0000000000E+00	6.5000000000E+03	6.5000000000E+03	9.3827000000E-01	0.000E+00	0.0
	2212	-1	0	0	0	0	0.0000000000E+00	0.0000000000E+00	-6.5000000000E+03	6.5000000000E+03	9.3827000000E-01	0.000E+00	0.0
	2212	1	0	0	0	0	0.0000000000E+00	0.0000000000E+00	5.6643226577E+03	5.6643226577E+03	9.3827000000E-01	0.000E+00	0.0
	2212	1	0	0	0	0	0.0000000000E+00	0.0000000000E+00	-6.1878746582E+03	6.1878746582E+03	9.3827000000E-01	0.000E+00	0.0
	51	2	1	2	0	0	2.1841060684E+01	8.7944976407E+01	5.7413424509E+02	1.1752386084E+03	1.0214422668E+03	0.000E+00	0.0
	1000022	2	5	5	0	0	-2.1841060684E+01	-8.7944976407E+01	3.9329461455E+02	9.4569195950E+02	8.5524340256E+02	0.000E+00	0.0
	14	1	6	6	0	0	-1.1827617242E+02	-2.7155222527E+02	3.4137208535E+02	5.5667743323E+02	3.2500000000E+02	0.000E+00	0.0
	-14	1	6	6	0	0	9.6435111738E+01	1.8360724886E+02	5.1922529200E+01	3.8901452627E+02	3.2500000000E+02	0.000E+00	0.0
	25	2	5	5	0	0	2.1841060684E+01	8.7944976407E+01	1.3025738598E+02	2.0211072460E+02	1.2518149860E+02	0.000E+00	0.0
	-5	1	9	9	0	501	2.5519881819E+01	-2.0450488081E+01	7.1392427625E+01	7.8637382669E+01	4.1800000000E+00	0.000E+00	0.0
	5	1	9	9	501	0	-3.6788211356E+00	1.0839546449E+02	5.8864958350E+01	1.2347334193E+02	4.1800000000E+00	0.000E+00	0.0
</event>
<event>
    11  -1  1.0000000E+00  1.0000000E+00  -1.0000000E+00  -1.0000000E+00
	2212	-1	0	0	0	0	0.0000000000E+00	0.0000000000E+00	6.5000000000E+03	6.5000000000E+03	9.3827000000E-01	0.000E+00	0.0
	2212	-1	0	0	0	0	0.0000000000E+00	0.0000000000E+00	-6.5000000000E+03	6.5000000000E+03	9.3827000000E-01	0.000E+00	0.0
	2212	1	0	0	0	0	0.0000000000E+00	0.0000000000E+00	6.2819879001E+03	6.2819879001E+03	9.3827000000E-01	0.000E+00	0.0
	2212	1	0	0	0	0	0.0000000000E+00	0.0000000000E+00	-5.3360444849E+03	5.3360444849E+03	9.3827000000E-01	0.000E+00	0.0
	51	2	1	2	0	0	2.4126391632E+01	-1.3703331938E+01	-1.0727160057E+03	1.4719086375E+03	1.0074847613E+03	0.000E+00	0.0
	1000022	2	5	5	0	0	-2.4126391632E+01	1.3703331938E+01	-6.7645989803E+02	1.0835343342E+03	8.4597801134E+02	0.000E+00	0.0
	14	1	6	6	0	0	-4.1170157278E+01	-2.0630875551E+02	-1.2572394135E+02	4.0705011225E+02	3.2500000000E+02	0.000E+00	0.0
	-14	1	6	6	0	0	1.7043765646E+01	2.2001208745E+02	-5.5073595669E+02	6.7648422196E+02	3.2500000000E+02	0.000E+00	0.0
	25	2	5	5	0	0	2.4126391632E+01	-1.3703331938E+01	-2.6948351713E+02	2.9843328083E+02	1.2518463572E+02	0.000E+00	0.0
	-5	1	9	9	0	501	1.4180829373E+01	5.5458848642E+01	-1.3843777668E+02	1.4986417259E+02	4.1800000000E+00	0.000E+00	0.0
	5	1	9	9	501	0	9.9455622586E+00	-6.9162180580E+01	-1.3104574045E+02	1.4856910823E+02	4.1800000000E+00	0.000E+00	0.0
</event>
<event>
    11  -1  1.0000000E+00  1.0000000E+00  -1.0000000E+00  -1.0000000E+00
	2212	-1	0	0	0	0	0.0000000000E+00	0.0000000000E+00	6.5000000000E+03	6.5000000000E+03	9.3827000000E-01	0.000E+00	0.0
	2212	-1	0	0	0	0	0.0000000000E+00	0.0000000000E+00	-6.5000000000E+03	6.5000000000E+03	9.3827000000E-01	0.000E+00	0.0
	2212	1	0	0	0	0	0.0000000000E+00	0.0000000000E+00	5.5058309565E+03	5.5058309565E+03	9.3827000000E-01	0.000E+00	0.0
	2212	1	0	0	0	0	0.0000000000E+00	0.0000000000E+00	-6.2264280448E+03	6.2264280448E+03	9.3827000000E-01	0.000E+00	0.0
	51	2	1	2	0	0	-3.0625263722E+01	-1.5229185653E+00	7.2457691456E+02	1.2703775058E+03	1.0430278406E+03	0.000E+00	0.0
	1000022	2	5	5	0	0	3.0625263722E+01	1.5229185653E+00	6.2786702915E+02	1.1089668791E+03	9.1359198037E+02	0.000E+00	0.0
	14	1	6	6	0	0	5.8553370075E+01	2.4395964825E+02	6.6504285854E+01	4.1592382374E+02	3.2500000000E+02	0.000E+00	0.0
	-14	1	6	6	0	0	-2.7928106352E+01	-2.4243672968E+02	5.6136274330E+02	6.9304305536E+02	3.2500000000E+02	0.000E+00	0.0
	25	2	5	5	0	0	-3.0625263722E+01	-1.5229185653E+00	9.2730059184E+01	1.5877411964E+02	1.2518039435E+02	0.000E+00	0.0
	-5	1	9	9	0	501	4.3797640615E+01	-7.6252609955E+00	6.5312248147E+01	7.9117255303E+01	4.1800000000E+00	0.000E+00	0.0
	5	1	9	9	501	0	-7.4422904338E+01	6.1023424302E+00	2.7417811038E+01	7.9656864332E+01	4.1800000000E+00	0.000E+00	0.0
</event>
<event>
    11  -1  1.0000000E+00  1.0000000E+00  -1.0000000E+00  -1.0000000E+00
	2212	-1	0	0	0	0	0.0000000000E+00	0.0000000000E+00	6.5000000000E+03	6.5000000000E+03	9.3827000000E-01	0.000E+00	0.0
	2212	-1	0	0	0	0	0.0000000000E+00	0.0000000000E+00	-6.5000000000E+03	6.5000000000E+03	9.3827000000E-01	0.000E+00	0.0
	2212	1	0	0	0	0	0.0000000000E+00	0.0000000000E+00	6.3208769746E+03	6.3208769746E+03	9.3827000000E-01	0.000E+00	0.0
	2212	1	0	0	0	0	0.0000000000E+00	0.0000000000E+00	-4.9804714509E+03	4.9804714509E+03	9.3827000000E-01	0.000E+00	0.0
	51	2	1	2	0	0	-4.7576989113E+01	-1.1327665155E+02	-1.4617985479E+03	1.8001889811E+03	1.0434223514E+03	0.000E+00	0.0
	1000022	2	5	5	0	0	4.7576989113E+01	1.1327665155E+02	-9.8981952429E+02	1.3066654928E+03	8.4411897837E+02	0.000E+00	0.0
	14	1	6	6	0	0	1.1515686784E+02	2.3777578509E+02	-2.5385951953E+02	4.8976329368E+02	3.2500000000E+02	0.000E+00	0.0
	-14	1	6	6	0	0	-6.7579878724E+01	-1.2449913354E+02	-7.3596000476E+02	8.1690219908E+02	3.2500000000E+02	0.000E+00	0.0
	25	2	5	5	0	0	-4.7576989113E+01	-1.1327665155E+02	-3.5058599949E+02	3.9198608172E+02	1.2508947015E+02	0.000E+00	0.0
	-5	1	9	9	0	501	-2.1221351539E+01	-5.1908274212E+01	-3.0703756744E+02	3.1214476595E+02	4.1800000000E+00	0.000E+00	0.0
	5	1	9	9	501	0	-2.6355637574E+01	-6.1368377341E+01	-4.3548432053E+01	7.9841315769E+01	4.1800000000E+00	0.000E+00	0.0
</event>
<event>
    11  -1  1.0000000E+00  1.0000000E+00  -1.0000000E+00  -1.0000000E+00
	2212	-1	0	0	0	0	0.0000000000E+00	0.0000000000E+00	6.5000000000E+03	6.5000000000E+03	9.3827000000E-01	0.000E+00	0.0
	2212	-1	0	0	0	0	0.0000000000E+00	0.0000000000E+00	-6.5000000000E+03	6.5000000000E+03	9.3827000000E-01	0.000E+00	0.0
	2212	1	0	0	0	0	0.0000000000E+00	0.0000000000E+00	5.6350516387E+03	5.6350516387E+03	9.3827000000E-01	0.000E+00	0.0
	2212	1	0	0	0	0	0.0000000000E+00	0.0000000000E+00	-6.2042873808E+03	6.2042873808E+03	9.3827000000E-01	0.000E+00	0.0
	51	2	1	2	0	0	-4.4548574731E+01	-1.8315831276E+01	5.9867308972E+02	1.1763647798E+03	1.0114863230E+03	0.000E+00	0.0
	1000022	2	5	5	0	0	4.4548574731E+01	1.8315831276E+01	4.6383945783E+02	9.9007833693E+02	8.7337736714E+02	0.000E+00	0.0
	14	1	6	6	0	0	-1.2467346951E+02	2.4691960009E+02	3.2498119046E+02	5.3642384087E+02	3.2500000000E+02	0.000E+00	0.0
	-14	1	6	6	0	0	1.6922204424E+02	-2.2860376881E+02	1.3885826737E+02	4.5365449605E+02	3.2500000000E+02	0.000E+00	0.0
	25	2	5	5	0	0	-4.4548574731E+01	-1.8315831276E+01	1.0539628427E+02	1.7058264360E+02	1.2517993600E+02	0.000E+00	0.0
	-5	1	9	9	0	501	-7.7421408428E+01	-4.3537288120E+01	5.2508824053E+01	1.0326770523E+02	4.1800000000E+00	0.000E+00	0.0
	5	1	9	9	501	0	3.2872833697E+01	2.5221456844E+01	5.2887460214E+01	6.7314938375E+01	4.1800000000E+00	0.000E+00	0.0
</event>
<event>
    11  -1  1.0000000E+00  1.0000000E+00  -1.0000000E+00  -1.0000000E+00
	2212	-1	0	0	0	0	0.0000000000E+00	0.0000000000E+00	6.5000000000E+03	6.5000000000E+03	9.3827000000E-01	0.000E+00	0.0
	2212	-1	0	0	0	0	0.0000000000E+00	0.0000000000E+00	-6.5000000000E+03	6.5000000000E+03	9.3827000000E-01	0.000E+00	0.0
	2212	1	0	0	0	0	0.0000000000E+00	0.0000000000E+00	5.6297218586E+03	5.6297218586E+03	9.3827000000E-01	0.000E+00	0.0
	2212	1	0	0	0	0	0.0000000000E+00	0.0000000000E+00	-6.1807411099E+03	6.1807411099E+03	9.3827000000E-01	0.000E+00	0.0
	51	2	1	2	0	0	5.9132435333E+01	9.9268687451E+01	6.5681219523E+02	1.2474491216E+03	1.0542182573E+03	0.000E+00	0.0
	1000022	2	5	5	0	0	-5.9132435333E+01	-9.9268687451E+01	3.4996110590E+02	9.2596699968E+02	8.4946523863E+02	0.000E+00	0.0
	14	1	6	6	0	0	1.9391202218E+02	7.0042434091E+00	5.4217273204E+00	3.7855690048E+02	3.2500000000E+02	0.000E+00	0.0
	-14	1	6	6	0	0	-2.5304445752E+02	-1.0627293086E+02	3.4453937858E+02	5.4741009920E+02	3.2500000000E+02	0.000E+00	0.0
	25	2	5	5	0	0	5.9132435333E+01	9.9268687451E+01	2.0105814545E+02	2.6357003181E+02	1.2527516354E+02	0.000E+00	0.0
	-5	1	9	9	0	501	7.6751787344E+01	1.2158832418E+01	1.2109542007E+02	1.4394529249E+02	4.1800000000E+00	0.000E+00	0.0
	5	1	9	9	501	0	-1.7619352011E+01	8.7109855033E+01	7.9962725377E+01	1.1962473933E+02	4.1800000000E+00	0.000E+00	0.0
</event>
<event>
    11  -1  1.0000000E+00  1.0000000E+00  -1.0000000E+00  -1.0000000E+00
	2212	-1	0	0	0	0	0.0000000000E+00	0.0000000000E+00	6.5000000000E+03	6.5000000000E+03	9.3827000000E-01	0.000E+00	0.0
	2212	-1	0	0	0	0	0.0000000000E+00	0.0000000000E+00	-6.5000000000E+03	6.5000000000E+03	9.3827000000E-01	0.000E+00	0.0
	2212	1	0	0	0	0	0.0000000000E+00	0.0000000000E+00	6.3062937282E+03	6.3062937282E+03	9.3827000000E-01	0.000E+00	0.0
	2212	1	0	0	0	0	0.0000000000E+00	0.0000000000E+00	-5.0663292430E+03	5.0663292430E+03	9.3827000000E-01	0.000E+00	0.0
	51	2	1	2	0	0	1.0301992975E+02	-4.2787515718E+01	-1.1207093302E+03	1.5424906319E+03	1.0539658768E+03	0.000E+00	0.0
	1000022	2	5	5	0	0	-1.0301992975E+02	4.2787515718E+01	-1.1493123240E+03	1.4367729994E+03	8.5495845301E+02	0.000E+00	0.0
	14	1	6	6	0	0	-8.4929919958E+01	1.3284444096E+02	-1.6688498480E+02	3.9791498457E+02	3.2500000000E+02	0.000E+00	0.0
	-14	1	6	6	0	0	-1.8090009792E+01	-9.0056925241E+01	-9.8242733916E+02	1.0388580148E+03	3.2500000000E+02	0.000E+00	0.0
	25	2	5	5	0	0	1.0301992975E+02	-4.2787515718E+01	-9.0652161216E+01	1.9060402940E+02	1.2517269775E+02	0.000E+00	0.0
	-5	1	9	9	0	501	3.8852423516E+01	1.5690245051E+01	2.2641683055E+01	4.7810174800E+01	4.1800000000E+00	0.000E+00	0.0
	5	1	9	9	501	0	6.4167506233E+01	-5.8477760769E+01	-1.1329384427E+02	1.4279385460E+02	4.1800000000E+00	0.000E+00	0.0
</event>
<event>
    11  -1  1.0000000E+00  1.0000000E+00  -1.0000000E+00  -1.0000000E+00
	2212	-1	0	0	0	0	0.0000000000E+00	0.0000000000E+00	6.5000000000E+03	6.5000000000E+03	9.3827000000E-01	0.000E+00	0.0
	2212	-1	0	0	0	0	0.0000000000E+00	0.0000000000E+00	-6.5000000000E+03	6.5000000000E+03	9.3827000000E-01	0.000E+00	0.0
	2212	1	0	0	0	0	0.0000000000E+00	0.0000000000E+00	6.1806160914E+03	6.1806160914E+03	9.3827000000E-01	0.000E+00	0.0
	2212	1	0	0	0	0	0.0000000000E+00	0.0000000000E+00	-5.6416925298E+03	5.6416925298E+03	9.3827000000E-01	0.000E+00	0.0
	51	2	1	2	0	0	1.0774349134E+02	-8.4620127121E+01	-5.2636378485E+02	1.1799773041E+03	1.0471477347E+03	0.000E+00	0.0
	1000022	2	5	5	0	0	-1.0774349134E+02	8.4620127121E+01	-4.6029783351E+02	9.7614086280E+02	8.4982801946E+02	0.000E+00	0.0
	14	1	6	6	0	0	-2.8972135572E+02	1.3550805817E+02	-3.7563626878E+02	5.9078634396E+02	3.2500000000E+02	0.000E+00	0.0
	-14	1	6	6	0	0	1.8197786437E+02	-5.0887931052E+01	-8.4661564736E+01	3.8535451884E+02	3.2500000000E+02	0.000E+00	0.0
	25	2	5	5	0	0	1.0774349134E+02	-8.4620127121E+01	-7.8625728061E+01	2.0155051593E+02	1.2518538061E+02	0.000E+00	0.0
	-5	1	9	9	0	501	5.4470158546E+01	-8.3772226159E+01	-1.0232949864E+02	1.4308592782E+02	4.1800000000E+00	0.000E+00	0.0
	5	1	9	9	501	0	5.3273332799E+01	-8.4790096172E-01	2.3703770578E+01	5.8464588112E+01	4.1800000000E+00	0.000E+00	0.0
</event>
<event>
    11  -1  1.0000000E+00  1.0000000E+00  -1.0000000E+00  -1.0000000E+00
	2212	-1	0	0	0	0	0.0000000000E+00	0.0000000000E+00	6.5000000000E+03	6.5000000000E+03	9.3827000000E-01	0.000E+00	0.0
	2212	-1	0	0	0	0	0.0000000000E+00	0.0000000000E+00	-6.5000000000E+03	6.5000000000E+03	9.3827000000E-01	0.000E+00	0.0
	2212	1	0	0	0	0	0.0000000000E+00	0.0000000000E+00	5.4778675862E+03	5.4778675862E+03	9.3827000000E-01	0.000E+00	0.0
	2212	1	0	0	0	0	0.0000000000E+00	0.0000000000E+00	-6.2270724006E+03	6.2270724006E+03	9.3827000000E-01	0.000E+00	0.0
	51	2	1	2	0	0	3.7210423516E+01	-9.5229819455E+01	8.8361093736E+02	1.3809758167E+03	1.0563487036E+03	0.000E+00	0.0
	1000022	2	5	5	0	0	-3.7210423516E+01	9.5229819455E+01	4.8564136832E+02	9.8588552055E+02	8.5186230512E+02	0.000E+00	0.0
	14	1	6	6	0	0	4.0730437600E+01	-1.5649642318E+02	4.3166084252E+02	5.6400902651E+02	3.2500000000E+02	0.000E+00	0.0
	-14	1	6	6	0	0	-7.7940861116E+01	2.5172624264E+02	5.3980525803E+01	4.2187649405E+02	3.2500000000E+02	0.000E+00	0.0
	25	2	5	5	0	0	3.7210423516E+01	-9.5229819455E+01	2.6356344611E+02	3.0917449260E+02	1.2517924194E+02	0.000E+00	0.0
	-5	1	9	9	0	501	-1.3662337094E+01	-1.7273293619E+01	1.8765148958E+02	1.8898566101E+02	4.1800000000E+00	0.000E+00	0.0
	5	1	9	9	501	0	5.0872760610E+01	-7.7956525836E+01	7.5911956534E+01	1.2018883158E+02	4.1800000000E+00	0.000E+00	0.0
</event>
<event>
    11  -1  1.0000000E+00  1.0000000E+00  -1.0000000E+00  -1.0000000E+00
	2212	-1	0	0	0	0	0.0000000000E+00	0.0000000000E+00	6.5000000000E+03	6.5000000000E+03	9.3827000000E-01	0.000E+00	0.0
	2212	-1	0	0	0	0	0.0000000000E+00	0.0000000000E+00	-6.5000000000E+03	6.5000000000E+03	9.3827000000E-01	0.000E+00	0.0
	2212	1	0	0	0	0	0.0000000000E+00	0.0000000000E+00	6.2198586798E+03	6.2198586798E+03	9.3827000000E-01	0.000E+00	0.0
	2212	1	0	0	0	0	0.0000000000E+00	0.0000000000E+00	-5.5200517512E+03	5.5200517512E+03	9.3827000000E-01	0.000E+00	0.0
	51	2	1	2	0	0	-1.4191925043E+01	-1.4749448590E+02	-7.2464926708E+02	1.2826412511E+03	1.0479007513E+03	0.000E+00	0.0
	1000022	2	5	5	0	0	1.4191925043E+01	1.4749448590E+02	-5.5205419311E+02	1.0162224027E+03	8.4023098342E+02	0.000E+00	0.0
	14	1	6	6	0	0	2.5513055494E+02	7.3405245324E+01	-1.6338032314E+02	4.5033105610E+02	3.2500000000E+02	0.000E+00	0.0
	-14	1	6	6	0	0	-2.4093862989E+02	7.4089240581E+01	-3.8867386997E+02	5.6589134658E+02	3.2500000000E+02	0.000E+00	0.0
	25	2	5	5	0	0	-1.4191925043E+01	-1.4749448590E+02	-1.4775273553E+02	2.4386716630E+02	1.2523693478E+02	0.000E+00	0.0
	-5	1	9	9	0	501	-3.8865398701E+01	3.1730702428E+00	-1.6735064267E+01	4.2639446138E+01	4.1800000000E+00	0.000E+00	0.0
	5	1	9	9	501	0	2.4673473657E+01	-1.5066755615E+02	-1.3101767126E+02	2.0122772016E+02	4.1800000000E+00	0.000E+00	0.0
</event>
<event>
    11  -1  1.0000000E+00  1.0000000E+00  -1.0000000E+00  -1.0000000E+00
	2212	-1	0	0	0	0	0.0000000000E+00	0.0000000000E+00	6.5000000000E+03	6.5000000000E+03	9.3827000000E-01	0.000E+00	0.0
	2212	-1	0	0	0	0	0.0000000000E+00	0.0000000000E+00	-6.5000000000E+03	6.5000000000E+03	9.3827000000E-01	0.000E+00	0.0
	2212	1	0	0	0	0	0.0000000000E+00	0.0000000000E+00	5.7495604585E+03	5.7495604585E+03	9.3827000000E-01	0.000E+00	0.0
	2212	1	0	0	0	0	0.0000000000E+00	0.0000000000E+00	-6.1276993583E+03	6.1276993583E+03	9.3827000000E-01	0.000E+00	0.0
	51	2	1	2	0	0	9.5508440986E+01	-5.9271760975E+01	4.8844260748E+02	1.1699434500E+03	1.0571454448E+03	0.000E+00	0.0
	1000022	2	5	5	0	0	-9.5508440986E+01	5.9271760975E+01	2.0163847772E+02	8.7899085542E+02	8.4813433149E+02	0.000E+00	0.0
	14	1	6	6	0	0	-2.3514043685E+02	9.9101855616E+01	2.9890244990E+02	5.0998027157E+02	3.2500000000E+02	0.000E+00	0.0
	-14	1	6	6	0	0	1.3963199587E+02	-3.9830094640E+01	-9.7263972181E+01	3.6901058385E+02	3.2500000000E+02	0.000E+00	0.0
	25	2	5	5	0	0	9.5508440986E+01	-5.9271760975E+01	1.7650042208E+02	2.4374932778E+02	1.2500532728E+02	0.000E+00	0.0
	-5	1	9	9	0	501	8.7034094148E+01	8.7546111991E+00	5.2791476752E+01	1.0225453134E+02	4.1800000000E+00	0.000E+00	0.0
	5	1	9	9	501	0	8.4743468378E+00	-6.8026372175E+01	1.2370894533E+02	1.4149479644E+02	4.1800000000E+00	0.000E+00	0.0
</event>
<event>
    11  -1  1.0000000E+00  1.0000000E+00  -1.0000000E+00  -1.0000000E+00
	2212	-1	0	0	0	0	0.0000000000E+00	0.0000000000E+00	6.5000000000E+03	6.5000000000E+03	9.3827000000E-01	0.000E+00	0.0
	2212	-1	0	0	0	0	0.0000000000E+00	0.0000000000E+00	-6.5000000000E+03	6.5000000000E+03	9.3827000000E-01	0.000E+00	0.0
	2212	1	0	0	0	0	0.0000000000E+00	0.0000000000E+00	5.5215670647E+03	5.5215670647E+03	9.3827000000E-01	0.000E+00	0.0
	2212	1	0	0	0	0	0.0000000000E+00	0.0000000000E+00	-6.2081519546E+03	6.2081519546E+03	9.3827000000E-01	0.000E+00	0.0
	51	2	1	2	0	0	4.6877033090E+01	1.4944313096E+02	7.6468242228E+02	1.3234367651E+03	1.0687445713E+03	0.000E+00	0.0
	1000022	2	5	5	0	0	-4.6877033090E+01	-1.4944313096E+02	4.8262333192E+02	9.8425861226E+02	8.4339138582E+02	0.000E+00	0.0
	14	1	6	6	0	0	1.4713886604E+02	1.1140307286E+02	1.0190688630E+02	3.8738934422E+02	3.2500000000E+02	0.000E+00	0.0
	-14	1	6	6	0	0	-1.9401589913E+02	-2.6084620383E+02	3.8071644562E+02	5.9686926804E+02	3.2500000000E+02	0.000E+00	0.0
	25	2	5	5	0	0	4.6877033090E+01	1.4944313096E+02	2.0396155797E+02	2.8602236835E+02	1.2521091184E+02	0.000E+00	0.0
	-5	1	9	9	0	501	2.8990200528E+01	1.1318186734E+00	-4.3666800055E+00	2.9635334222E+01	4.1800000000E+00	0.000E+00	0.0
	5	1	9	9	501	0	1.7886832562E+01	1.4831131229E+02	2.0832823797E+02	2.5638703413E+02	4.1800000000E+00	0.000E+00	0.0
</event>
<event>
    11  -1  1.0000000E+00  1.0000000E+00  -1.0000000E+00  -1.0000000E+00
	2212	-1	0	0	0	0	0.0000000000E+00	0.0000000000E+00	6.5000000000E+03	6.5000000000E+03	9.3827000000E-01	0.000E+00	0.0
	2212	-1	0	0	0	0	0.0000000000E+00	0.0000000000E+00	-6.5000000000E+03	6.5000000000E+03	9.3827000000E-01	0.000E+00	0.0
	2212	1	0	0	0	0	0.0000000000E+00	0.0000000000E+00	6.2042036172E+03	6.2042036172E+03	9.3827000000E-01	0.000E+00	0.0
	2212	1	0	0	0	0	0.0000000000E+00	0.0000000000E+00	-5.5770652410E+03	5.5770652410E+03	9.3827000000E-01	0.000E+00	0.0
	51	2	1	2	0	0	-8.8314418480E+01	5.9562916095E+01	-7.2275836755E+02	1.2750411321E+03	1.0449894990E+03	0.000E+00	0.0
	1000022	2	5	5	0	0	8.8314418480E+01	-5.9562916095E+01	-4.2737420532E+02	9.6003558609E+02	8.5303718424E+02	0.000E+00	0.0
	14	1	6	6	0	0	9.2161586791E+01	-2.0032907349E+02	-4.5939405222E+02	6.0439506201E+02	3.2500000000E+02	0.000E+00	0.0
	-14	1	6	6	0	0	-3.8471683106E+00	1.4076615740E+02	3.2019846900E+01	3.5564052408E+02	3.2500000000E+02	0.000E+00	0.0
	25	2	5	5	0	0	-8.8314418480E+01	5.9562916095E+01	-1.9976417091E+02	2.5869555573E+02	1.2518182412E+02	0.000E+00	0.0
	-5	1	9	9	0	501	-1.7668994216E+01	-3.6510772966E+01	-2.7662069280E+01	4.9273647886E+01	4.1800000000E+00	0.000E+00	0.0
	5	1	9	9	501	0	-7.0645424264E+01	9.6073689061E+01	-1.7210210163E+02	2.0942190785E+02	4.1800000000E+00	0.000E+00	0.0
</event>
<event>
    11  -1  1.0000000E+00  1.0000000E+00  -1.0000000E+00  -1.0000000E+00
	2212	-1	0	0	0	0	0.0000000000E+00	0.0000000000E+00	6.5000000000E+03	6.5000000000E+03	9.3827000000E-01	0.000E+00	0.0
	2212	-1	0	0	0	0	0.0000000000E+00	0.0000000000E+00	-6.5000000000E+03	6.5000000000E+03	9.3827000000E-01	0.000E+00	0.0
	2212	1	0	0	0	0	0.0000000000E+00	0.0000000000E+00	6.2851782212E+03	6.2851782212E+03	9.3827000000E-01	0.000E+00	0.0
	2212	1	0	0	0	0	0.0000000000E+00	0.0000000000E+00	-5.2364421854E+03	5.2364421854E+03	9.3827000000E-01	0.000E+00	0.0
	51	2	1	2	0	0	4.8503219600E+01	7.1534526164E+01	-1.2009374064E+03	1.5923188608E+03	1.0419975765E+03	0.000E+00	0.0
	1000022	2	5	5	0	0	-4.8503219600E+01	-7.1534526164E+01	-7.2113443800E+02	1.1171825723E+03	8.4887706493E+02	0.000E+00	0.0
	14	1	6	6	0	0	3.3072639212E+01	1.8325623347E+02	-5.4400009973E+02	6.6048297107E+02	3.2500000000E+02	0.000E+00	0.0
	-14	1	6	6	0	0	-8.1575858811E+01	-2.5479075964E+02	-1.7713433827E+02	4.5669960120E+02	3.2500000000E+02	0.000E+00	0.0
	25	2	5	5	0	0	4.8503219600E+01	7.1534526164E+01	-3.2760159782E+02	3.6119702118E+02	1.2518278824E+02	0.000E+00	0.0
	-5	1	9	9	0	501	2.5264811522E+01	-3.3362038023E+00	-1.5979663491E+00	2.5874057538E+01	4.1800000000E+00	0.000E+00	0.0
	5	1	9	9	501	0	2.3238408078E+01	7.4870729966E+01	-3.2600363147E+02	3.3532296365E+02	4.1800000000E+00	0.000E+00	0.0
</event>
<event>
    11  -1  1.0000000E+00  1.0000000E+00  -1.0000000E+00  -1.0000000E+00
	2212	-1	0	0	0	0	0.0000000000E+00	0.0000000000E+00	6.5000000000E+03	6.5000000000E+03	9.3827000000E-01	0.000E+00	0.0
	2212	-1	0	0	0	0	0.0000000000E+00	0.0000000000E+00	-6.5000000000E+03	6.5000000000E+03	9.3827000000E-01	0.000E+00	0.0
	2212	1	0	0	0	0	0.0000000000E+00	0.0000000000E+00	5.6464392718E+03	5.6464392718E+03	9.3827000000E-01	0.000E+00	0.0
	2212	1	0	0	0	0	0.0000000000E+00	0.0000000000E+00	-6.1750983771E+03	6.1750983771E+03	9.3827000000E-01	0.000E+00	0.0
	51	2	1	2	0	0	-1.9251472485E+01	1.5692895885E+02	5.3675921912E+02	1.1926444733E+03	1.0532298245E+03	0.000E+00	0.0
	1000022	2	5	5	0	0	1.9251472485E+01	-1.5692895885E+02	4.2526182790E+02	9.5184821283E+02	8.3676166301E+02	0.000E+00	0.0
	14	1	6	6	0	0	2.0957359712E+02	6.3614620921E+01	9.1606348284E+01	4.0247314898E+02	3.2500000000E+02	0.000E+00	0.0
	-14	1	6	6	0	0	-1.9032212463E+02	-2.2054357977E+02	3.3365547961E+02	5.4937506385E+02	3.2500000000E+02	0.000E+00	0.0
	25	2	5	5	0	0	-1.9251472485E+01	1.5692895885E+02	1.0339727740E+02	2.2661413819E+02	1.2516250769E+02	0.000E+00	0.0
	-5	1	9	9	0	501	-4.5526765269E+01	9.0926534063E+01	1.1602865587E+02	1.5433872597E+02	4.1800000000E+00	0.000E+00	0.0
	5	1	9	9	501	0	2.6275292784E+01	6.6002424791E+01	-1.2631378461E+01	7.2275412216E+01	4.1800000000E+00	0.000E+00	0.0
</event>
<event>
    11  -1  1.0000000E+00  1.0000000E+00  -1.0000000E+00  -1.0000000E+00
	2212	-1	0	0	0	0	0.0000000000E+00	0.0000000000E+00	6.5000000000E+03	6.5000000000E+03	9.3827000000E-01	0.000E+00	0.0
	2212	-1	0	0	0	0	0.0000000000E+00	0.0000000000E+00	-6.5000000000E+03	6.5000000000E+03	9.3827000000E-01	0.000E+00	0.0
	2212	1	0	0	0	0	0.0000000000E+00	0.0000000000E+00	6.2653369032E+03	6.2653369032E+03	9.3827000000E-01	0.000E+00	0.0
	2212	1	0	0	0	0	0.0000000000E+00	0.0000000000E+00	-5.3306326590E+03	5.3306326590E+03	9.3827000000E-01	0.000E+00	0.0
	51	2	1	2	0	0	-1.3259566215E+02	-2.6341621966E+01	-9.1388933224E+02	1.3968173283E+03	1.0476781215E+03	0.000E+00	0.0
	1000022	2	5	5	0	0	1.3259566215E+02	2.6341621966E+01	-7.9762546604E+02	1.1740695449E+03	8.5085687489E+02	0.000E+00	0.0
	14	1	6	6	0	0	-1.7210871270E+02	1.0182850138E+02	-2.1918323200E+02	4.4006447467E+02	3.2500000000E+02	0.000E+00	0.0
	-14	1	6	6	0	0	3.0470437484E+02	-7.5486879418E+01	-5.7844223404E+02	7.3400507024E+02	3.2500000000E+02	0.000E+00	0.0
	25	2	5	5	0	0	-1.3259566215E+02	-2.6341621966E+01	-1.3707877810E+02	2.2996089291E+02	1.2576140185E+02	0.000E+00	0.0
	-5	1	9	9	0	501	-1.5226789125E+02	-3.9048989696E+01	-1.3272548805E+02	2.0577624226E+02	4.1800000000E+00	0.000E+00	0.0
	5	1	9	9	501	0	1.9672229103E+01	1.2707367730E+01	-4.3532900465E+00	2.4184650644E+01	4.1800000000E+00	0.000E+00	0.0
</event>
<event>
    11  -1  1.0000000E+00  1.0000000E+00  -1.0000000E+00  -1.0000000E+00
	2212	-1	0	0	0	0	0.0000000000E+00	0.0000000000E+00	6.5000000000E+03	6.5000000000E+03	9.3827000000E-01	0.000E+00	0.0
	2212	-1	0	0	0	0	0.0000000000E+00	0.0000000000E+00	-6.5000000000E+03	6.5000000000E+03	9.3827000000E-01	0.000E+00	0.0
	2212	1	0	0	0	0	0.0000000000E+00	0.0000000000E+00	4.9884094113E+03	4.9884094113E+03	9.3827000000E-01	0.000E+00	0.0
	2212	1	0	0	0	0	0.0000000000E+00	0.0000000000E+00	-6.3190731519E+03	6.3190731519E+03	9.3827000000E-01	0.000E+00	0.0
	51	2	1	2	0	0	-5.0967407588E+01	-7.8587941251E+01	1.3912519246E+03	1.7430734185E+03	1.0459203044E+03	0.000E+00	0.0
	1000022	2	5	5	0	0	5.0967407588E+01	7.8587941251E+01	1.0726061810E+03	1.3907932965E+03	8.8036823711E+02	0.000E+00	0.0
	14	1	6	6	0	0	-2.2043973900E+02	2.0557268202E+02	5.3194955476E+02	6.9242265628E+02	3.2500000000E+02	0.000E+00	0.0
	-14	1	6	6	0	0	2.7140714659E+02	-1.2698474077E+02	5.4065662623E+02	6.9837064021E+02	3.2500000000E+02	0.000E+00	0.0
	25	2	5	5	0	0	-5.0967407588E+01	-7.8587941251E+01	2.5805755964E+02	3.0172414032E+02	1.2517991698E+02	0.000E+00	0.0
	-5	1	9	9	0	501	-4.1743272714E+01	-1.1271890274E+02	2.0852856710E+02	2.4072741337E+02	4.1800000000E+00	0.000E+00	0.0
	5	1	9	9	501	0	-9.2241348742E+00	3.4130961485E+01	4.9528992538E+01	6.0996726944E+01	4.1800000000E+00	0.000E+00	0.0
</event>
<event>
    11  -1  1.0000000E+00  1.0000000E+00  -1.0000000E+00  -1.0000000E+00
	2212	-1	0	0	0	0	0.0000000000E+00	0.0000000000E+00	6.5000000000E+03	6.5000000000E+03	9.3827000000E-01	0.000E+00	0.0
	2212	-1	0	0	0	0	0.0000000000E+00	0.0000000000E+00	-6.5000000000E+03	6.5000000000E+03	9.3827000000E-01	0.000E+00	0.0
	2212	1	0	0	0	0	0.0000000000E+00	0.0000000000E+00	5.9242788672E+03	5.9242788672E+03	9.3827000000E-01	0.000E+00	0.0
	2212	1	0	0	0	0	0.0000000000E+00	0.0000000000E+00	-6.0105936050E+03	6.0105936050E+03	9.3827000000E-01	0.000E+00	0.0
	51	2	1	2	0	0	-6.8460666778E+01	-1.3963151532E+02	8.1575722851E+01	1.0760505742E+03	1.0616244236E+03	0.000E+00	0.0
	1000022	2	5	5	0	0	6.8460666778E+01	1.3963151532E+02	7.5738572941E+01	8.6521451280E+02	8.4774760321E+02	0.000E+00	0.0
	14	1	6	6	0	0	1.1266480230E+02	1.2422244198E+02	-2.1705355842E+02	4.2527852049E+02	3.2500000000E+02	0.000E+00	0.0
	-14	1	6	6	0	0	-4.4204135522E+01	1.5409073336E+01	2.9279213136E+02	4.3993599230E+02	3.2500000000E+02	0.000E+00	0.0
	25	2	5	5	0	0	-6.8460666778E+01	-1.3963151532E+02	1.0576164856E+01	1.9991301509E+02	1.2517801473E+02	0.000E+00	0.0
	-5	1	9	9	0	501	-6.3049542345E+01	-5.7162241873E+00	1.6952498308E+01	6.5671756545E+01	4.1800000000E+00	0.000E+00	0.0
	5	1	9	9	501	0	-5.4111244330E+00	-1.3391529113E+02	-6.3763334524E+00	1.3424125854E+02	4.1800000000E+00	0.000E+00	0.0
</event>
<event>
    11  -1  1.0000000E+00  1.0000000E+00  -1.0000000E+00  -1.0000000E+00
	2212	-1	0	0	0	0	0.0000000000E+00	0.0000000000E+00	6.5000000000E+03	6.5000000000E+03	9.3827000000E-01	0.000E+00	0.0
	2212	-1	0	0	0	0	0.0000000000E+00	0.0000000000E+00	-6.5000000000E+03	6.5000000000E+03	9.3827000000E-01	0.000E+00	0.0
	2212	1	0	0	0	0	0.0000000000E+00	0.0000000000E+00	6.1813037205E+03	6.1813037205E+03	9.3827000000E-01	0.000E+00	0.0
	2212	1	0	0	0	0	0.0000000000E+00	0.0000000000E+00	-5.6482633162E+03	5.6482633162E+03	9.3827000000E-01	0.000E+00	0.0
	51	2	1	2	0	0	-1.2032514462E+02	-2.9522383642E+00	-6.1805528839E+02	1.2174811886E+03	1.0420082769E+03	0.000E+00	0.0
	1000022	2	5	5	0	0	1.2032514462E+02	2.9522383642E+00	-3.5675600566E+02	9.2297807550E+02	8.4269023024E+02	0.000E+00	0.0
	14	1	6	6	0	0	7.9976234773E+01	2.1787670886E+02	-9.4681993785E+00	3.9947603832E+02	3.2500000000E+02	0.000E+00	0.0
	-14	1	6	6	0	0	4.0348909851E+01	-2.1492447050E+02	-3.4728780628E+02	5.2350203718E+02	3.2500000000E+02	0.000E+00	0.0
	25	2	5	5	0	0	-1.2032514462E+02	-2.9522383642E+00	-1.7628439866E+02	2.4745488784E+02	1.2518337015E+02	0.000E+00	0.0
	-5	1	9	9	0	501	1.9503643691E+01	1.1260503368E+01	-6.2523714161E+01	6.6587373321E+01	4.1800000000E+00	0.000E+00	0.0
	5	1	9	9	501	0	-1.3982878832E+02	-1.4212741732E+01	-1.1376068450E+02	1.8086751452E+02	4.1800000000E+00	0.000E+00	0.0
</event>
<event>
    11  -1  1.0000000E+00  1.0000000E+00  -1.0000000E+00  -1.0000000E+00
	2212	-1	0	0	0	0	0.0000000000E+00	0.0000000000E+00	6.5000000000E+03	6.5000000000E+03	9.3827000000E-01	0.000E+00	0.0
	2212	-1	0	0	0	0	0.0000000000E+00	0.0000000000E+00	-6.5000000000E+03	6.5000000000E+03	9.3827000000E-01	0.000E+00	0.0
	2212	1	0	0	0	0	0.0000000000E+00	0.0000000000E+00	6.1124577968E+03	6.1124577968E+03	9.3827000000E-01	0.000E+00	0.0
	2212	1	0	0	0	0	0.0000000000E+00	0.0000000000E+00	-5.7795843928E+03	5.7795843928E+03	9.3827000000E-01	0.000E+00	0.0
	51	2	1	2	0	0	-1.1751697464E+02	-8.0156786417E+01	-3.6785276799E+02	1.1279702191E+03	1.0567714069E+03	0.000E+00	0.0
	1000022	2	5	5	0	0	1.1751697464E+02	8.0156786417E+01	-2.4058465446E+02	8.9719305973E+02	8.5254856796E+02	0.000E+00	0.0
	14	1	6	6	0	0	2.1137696469E+02	-2.1557533570E+01	-3.5476555387E+02	5.2595489034E+02	3.2500000000E+02	0.000E+00	0.0
	-14	1	6	6	0	0	-9.3859990046E+01	1.0171431999E+02	1.1418089942E+02	3.7123816939E+02	3.2500000000E+02	0.000E+00	0.0
	25	2	5	5	0	0	-1.1751697464E+02	-8.0156786417E+01	-9.2288749568E+01	2.1076475065E+02	1.2517674337E+02	0.000E+00	0.0
	-5	1	9	9	0	501	1.5767540696E+01	-6.8020658018E+00	-4.9662646955E+01	5.2713701648E+01	4.1800000000E+00	0.000E+00	0.0
	5	1	9	9	501	0	-1.3328451534E+02	-7.3354720615E+01	-4.2626102612E+01	1.5805104900E+02	4.1800000000E+00	0.000E+00	0.0
</event>
<event>
    11  -1  1.0000000E+00  1.0000000E+00  -1.0000000E+00  -1.0000000E+00
	2212	-1	0	0	0	0	0.0000000000E+00	0.0000000000E+00	6.5000000000E+03	6.5000000000E+03	9.3827000000E-01	0.000E+00	0.0
	2212	-1	0	0	0	0	0.0000000000E+00	0.0000000000E+00	-6.5000000000E+03	6.5000000000E+03	9.3827000000E-01	0.000E+00	0.0
	2212	1	0	0	0	0	0.0000000000E+00	0.0000000000E+00	5.8641900396E+03	5.8641900396E+03	9.3827000000E-01	0.000E+00	0.0
	2212	1	0	0	0	0	0.0000000000E+00	0.0000000000E+00	-6.0659357881E+03	6.0659357881E+03	9.3827000000E-01	0.000E+00	0.0
	51	2	1	2	0	0	-1.9441633644E+01	3.6377358680E+01	3.4890012773E+02	1.1078637037E+03	1.0506804450E+03	0.000E+00	0.0
	1000022	2	5	5	0	0	1.9441633644E+01	-3.6377358680E+01	1.9315287302E+01	8.4481269851E+02	8.4358409533E+02	0.000E+00	0.0
	14	1	6	6	0	0	1.4683569209E+01	2.2137694621E+01	2.7546308564E+02	4.2686133144E+02	3.2500000000E+02	0.000E+00	0.0
	-14	1	6	6	0	0	4.7580644350E+00	-5.8515053300E+01	-2.5614779834E+02	4.1795136707E+02	3.2500000000E+02	0.000E+00	0.0
	25	2	5	5	0	0	-1.9441633644E+01	3.6377358680E+01	1.8243046122E+02	2.2506147379E+02	1.2518188552E+02	0.000E+00	0.0
	-5	1	9	9	0	501	5.8769291476E+00	1.0880394775E+00	-1.8270414340E+01	1.9672380798E+01	4.1800000000E+00	0.000E+00	0.0
	5	1	9	9	501	0	-2.5318562792E+01	3.5289319202E+01	2.0070087556E+02	2.0538909299E+02	4.1800000000E+00	0.000E+00	0.0
</event>
<event>
    11  -1  1.0000000E+00  1.0000000E+00  -1.0000000E+00  -1.0000000E+00
	2212	-1	0	0	0	0	0.0000000000E+00	0.0000000000E+00	6.5000000000E+03	6.5000000000E+03	9.3827000000E-01	0.000E+00	0.0
	2212	-1	0	0	0	0	0.0000000000E+00	0.0000000000E+00	-6.5000000000E+03	6.5000000000E+03	9.3827000000E-01	0.000E+00	0.0
	2212	1	0	0	0	0	0.0000000000E+00	0.0000000000E+00	5.3396992644E+03	5.3396992644E+03	9.3827000000E-01	0.000E+00	0.0
	2212	1	0	0	0	0	0.0000000000E+00	0.0000000000E+00	-6.2634994349E+03	6.2634994349E+03	9.3827000000E-01	0.000E+00	0.0
	51	2	1	2	0	0	3.7994579321E+01	-3.9149320570E+01	7.6120539162E+02	1.2961701371E+03	1.0476865556E+03	0.000E+00	0.0
	1000022	2	5	5	0	0	-3.7994579321E+01	3.9149320570E+01	9.2945439674E+02	1.2601357254E+03	8.4916447960E+02	0.000E+00	0.0
	14	1	6	6	0	0	2.2229213203E+01	1.5481989052E+02	1.2323990166E+02	3.8115142631E+02	3.2500000000E+02	0.000E+00	0.0
	-14	1	6	6	0	0	-6.0223792524E+01	-1.1567056995E+02	8.0621449508E+02	8.7898429907E+02	3.2500000000E+02	0.000E+00	0.0
	25	2	5	5	0	0	3.7994579321E+01	-3.9149320570E+01	-5.6542263162E+00	1.3666557533E+02	1.2517688224E+02	0.000E+00	0.0
	-5	1	9	9	0	501	3.4600016589E+01	1.0477774701E+01	-5.5340447446E+01	6.6234299529E+01	4.1800000000E+00	0.000E+00	0.0
	5	1	9	9	501	0	3.3945627323E+00	-4.9627095270E+01	4.9686221130E+01	7.0431275803E+01	4.1800000000E+00	0.000E+00	0.0
</event>
<event>
    11  -1  1.0000000E+00  1.0000000E+00  -1.0000000E+00  -1.0000000E+00
	2212	-1	0	0	0	0	0.0000000000E+00	0.0000000000E+00	6.5000000000E+03	6.5000000000E+03	9.3827000000E-01	0.000E+00	0.0
	2212	-1	0	0	0	0	0.0000000000E+00	0.0000000000E+00	-6.5000000000E+03	6.5000000000E+03	9.3827000000E-01	0.000E+00	0.0
	2212	1	0	0	0	0	0.0000000000E+00	0.0000000000E+00	6.2912831135E+03	6.2912831135E+03	9.3827000000E-01	0.000E+00	0.0
	2212	1	0	0	0	0	0.0000000000E+00	0.0000000000E+00	-5.1791092582E+03	5.1791092582E+03	9.3827000000E-01	0.000E+00	0.0
	51	2	1	2	0	0	-1.0058475032E+02	-9.6381340933E+01	-1.1476636850E+03	1.5618282238E+03	1.0501279979E+03	0.000E+00	0.0
	1000022	2	5	5	0	0	1.0058475032E+02	9.6381340933E+01	-8.8736282998E+02	1.2370076472E+03	8.5051071263E+02	0.000E+00	0.0
	14	1	6	6	0	0	3.0307008459E+02	-1.3224239971E+01	-3.3811871466E+02	5.5854777942E+02	3.2500000000E+02	0.000E+00	0.0
	-14	1	6	6	0	0	-2.0248533427E+02	1.0960558090E+02	-5.4924411532E+02	6.7845986777E+02	3.2500000000E+02	0.000E+00	0.0
	25	2	5	5	0	0	-1.0058475032E+02	-9.6381340933E+01	-2.2481102533E+02	2.9259998109E+02	1.2517226908E+02	0.000E+00	0.0
	-5	1	9	9	0	501	-1.2252131242E+01	2.2977169000E+01	-8.3533106854E+01	8.7597473456E+01	4.1800000000E+00	0.000E+00	0.0
	5	1	9	9	501	0	-8.8332619079E+01	-1.1935850993E+02	-1.4127791847E+02	2.0500250763E+02	4.1800000000E+00	0.000E+00	0.0
</event>
<event>
    11  -1  1.0000000E+00  1.0000000E+00  -1.0000000E+00  -1.0000000E+00
	2212	-1	0	0	0	0	0.0000000000E+00	0.0000000000E+00	6.5000000000E+03	6.5000000000E+03	9.3827000000E-01	0.000E+00	0.0
	2212	-1	0	0	0	0	0.0000000000E+00	0.0000000000E+00	-6.5000000000E+03	6.5000000000E+03	9.3827000000E-01	0.000E+00	0.0
	2212	1	0	0	0	0	0.0000000000E+00	0.0000000000E+00	5.6403545396E+03	5.6403545396E+03	9.3827000000E-01	0.000E+00	0.0
	2212	1	0	0	0	0	0.0000000000E+00	0.0000000000E+00	-6.1817564623E+03	6.1817564623E+03	9.3827000000E-01	0.000E+00	0.0
	51	2	1	2	0	0	5.6476836207E+01	-8.5473946038E+01	4.5965220624E+02	1.1472061842E+03	1.0460910332E+03	0.000E+00	0.0
	1000022	2	5	5	0	0	-5.6476836207E+01	8.5473946038E+01	5.3463662138E+02	1.0159960909E+03	8.5785564717E+02	0.000E+00	0.0
	14	1	6	6	0	0	-2.5915628271E+02	-1.1534716217E+02	2.5947696990E+02	5.0340862587E+02	3.2500000000E+02	0.000E+00	0.0
	-14	1	6	6	0	0	2.0267944650E+02	2.0082110821E+02	2.7515965148E+02	5.1258746506E+02	3.2500000000E+02	0.000E+00	0.0
	25	2	5	5	0	0	5.6476836207E+01	-8.5473946038E+01	6.7653013208E+00	1.6189290711E+02	1.2517234355E+02	0.000E+00	0.0
	-5	1	9	9	0	501	-2.1706487540E+01	-4.9783796541E+01	4.2130828472E+01	6.8862741066E+01	4.1800000000E+00	0.000E+00	0.0
	5	1	9	9	501	0	7.8183323748E+01	-3.5690149497E+01	-3.5365527151E+01	9.3030166043E+01	4.1800000000E+00	0.000E+00	0.0
</event>
<event>
    11  -1  1.0000000E+00  1.0000000E+00  -1.0000000E+00  -1.0000000E+00
	2212	-1	0	0	0	0	0.0000000000E+00	0.0000000000E+00	6.5000000000E+03	6.5000000000E+03	9.3827000000E-01	0.000E+00	0.0
	2212	-1	0	0	0	0	0.0000000000E+00	0.0000000000E+00	-6.5000000000E+03	6.5000000000E+03	9.3827000000E-01	0.000E+00	0.0
	2212	1	0	0	0	0	0.0000000000E+00	0.0000000000E+00	5.3186536739E+03	5.3186536739E+03	9.3827000000E-01	0.000E+00	0.0
	2212	1	0	0	0	0	0.0000000000E+00	0.0000000000E+00	-6.2634052942E+03	6.2634052942E+03	9.3827000000E-01	0.000E+00	0.0
	51	2	1	2	0	0	1.0347107245E+02	1.0086675330E+02	9.8191639715E+02	1.4501866507E+03	1.0573557330E+03	0.000E+00	0.0
	1000022	2	5	5	0	0	-1.0347107245E+02	-1.0086675330E+02	7.4466892845E+02	1.1411782390E+03	8.5256999449E+02	0.000E+00	0.0
	14	1	6	6	0	0	4.1263913285E+01	1.5291125783E+01	6.8864579491E+02	7.6275458695E+02	3.2500000000E+02	0.000E+00	0.0
	-14	1	6	6	0	0	-1.4473498573E+02	-1.1615787909E+02	5.6023133537E+01	3.7842365209E+02	3.2500000000E+02	0.000E+00	0.0
	25	2	5	5	0	0	1.0347107245E+02	1.0086675330E+02	2.0008269184E+02	2.7676279290E+02	1.2523655697E+02	0.000E+00	0.0
	-5	1	9	9	0	501	-1.6889432684E+01	5.9469199819E+01	8.4492893770E+01	1.0477767015E+02	4.1800000000E+00	0.000E+00	0.0
	5	1	9	9	501	0	1.2036050513E+02	4.1397553485E+01	1.1558979807E+02	1.7198512275E+02	4.1800000000E+00	0.000E+00	0.0
</event>
<event>
    11  -1  1.0000000E+00  1.0000000E+00  -1.0000000E+00  -1.0000000E+00
	2212	-1	0	0	0	0	0.0000000000E+00	0.0000000000E+00	6.5000000000E+03	6.5000000000E+03	9.3827000000E-01	0.000E+00	0.0
	2212	-1	0	0	0	0	0.0000000000E+00	0.0000000000E+00	-6.5000000000E+03	6.5000000000E+03	9.3827000000E-01	0.000E+00	0.0
	2212	1	0	0	0	0	0.0000000000E+00	0.0000000000E+00	5.5995005530E+03	5.5995005530E+03	9.3827000000E-01	0.000E+00	0.0
	2212	1	0	0	0	0	0.0000000000E+00	0.0000000000E+00	-6.1971854132E+03	6.1971854132E+03	9.3827000000E-01	0.000E+00	0.0
	51	2	1	2	0	0	1.0560394812E+02	-3.5071119818E+01	7.0466046262E+02	1.2647790387E+03	1.0443837761E+03	0.000E+00	0.0
	1000022	2	5	5	0	0	-1.0560394812E+02	3.5071119818E+01	3.8792740378E+02	9.3491916396E+02	8.4332911442E+02	0.000E+00	0.0
	14	1	6	6	0	0	-2.3480292987E+02	-4.9752085771E+01	4.0837729656E+02	5.7446035743E+02	3.2500000000E+02	0.000E+00	0.0
	-14	1	6	6	0	0	1.2919898174E+02	8.4823205589E+01	-2.0449892783E+01	3.6045880653E+02	3.2500000000E+02	0.000E+00	0.0
	25	2	5	5	0	0	1.0560394812E+02	-3.5071119818E+01	2.0975745645E+02	2.6839486984E+02	1.2512169401E+02	0.000E+00	0.0
	-5	1	9	9	0	501	7.7341851581E+01	-6.1090869524E+01	6.3970734849E+01	1.1757373713E+02	4.1800000000E+00	0.000E+00	0.0
	5	1	9	9	501	0	2.8262096542E+01	2.6019749705E+01	1.4578672160E+02	1.5082113271E+02	4.1800000000E+00	0.000E+00	0.0
</event>
<event>
    11  -1  1.0000000E+00  1.0000000E+00  -1.0000000E+00  -1.0000000E+00
	2212	-1	0	0	0	0	0.0000000000E+00	0.0000000000E+00	6.5000000000E+03	6.5000000000E+03	9.3827000000E-01	0.000E+00	0.0
	2212	-1	0	0	0	0	0.0000000000E+00	0.0000000000E+00	-6.5000000000E+03	6.5000000000E+03	9.3827000000E-01	0.000E+00	0.0
	2212	1	0	0	0	0	0.0000000000E+00	0.0000000000E+00	6.1413510425E+03	6.1413510425E+03	9.3827000000E-01	0.000E+00	0.0
	2212	1	0	0	0	0	0.0000000000E+00	0.0000000000E+00	-5.7366666777E+03	5.7366666777E+03	9.3827000000E-01	0.000E+00	0.0
	51	2	1	2	0	0	-3.2543034575E+01	-5.0147908029E+01	-5.2237832829E+02	1.1711224448E+03	1.0464582175E+03	0.000E+00	0.0
	1000022	2	5	5	0	0	3.2543034575E+01	5.0147908029E+01	-2.2197612077E+02	8.9259084481E+02	8.6247965556E+02	0.000E+00	0.0
	14	1	6	6	0	0	7.4576883650E+01	-1.6642581878E+02	-3.1608944872E+02	4.8866839914E+02	3.2500000000E+02	0.000E+00	0.0
	-14	1	6	6	0	0	-4.2033849075E+01	2.1657372681E+02	9.4113327946E+01	4.0392244566E+02	3.2500000000E+02	0.000E+00	0.0
	25	2	5	5	0	0	-3.2543034575E+01	-5.0147908029E+01	-1.8270824403E+02	2.2939143498E+02	1.2515696635E+02	0.000E+00	0.0
	-5	1	9	9	0	501	2.5912970530E+01	-3.8584192297E+01	-1.5800083111E+02	1.6474816226E+02	4.1800000000E+00	0.000E+00	0.0
	5	1	9	9	501	0	-5.8456005105E+01	-1.1563715732E+01	-2.4707412915E+01	6.4643272715E+01	4.1800000000E+00	0.000E+00	0.0
</event>
<event>
    11  -1  1.0000000E+00  1.0000000E+00  -1.0000000E+00  -1.0000000E+00
	2212	-1	0	0	0	0	0.0000000000E+00	0.0000000000E+00	6.5000000000E+03	6.5000000000E+03	9.3827000000E-01	0.000E+00	0.0
	2212	-1	0	0	0	0	0.0000000000E+00	0.0000000000E+00	-6.5000000000E+03	6.5000000000E+03	9.3827000000E-01	0.000E+00	0.0
	2212	1	0	0	0	0	0.0000000000E+00	0.0000000000E+00	6.3319093941E+03	6.3319093941E+03	9.3827000000E-01	0.000E+00	0.0
	2212	1	0	0	0	0	0.0000000000E+00	0.0000000000E+00	-4.8473660706E+03	4.8473660706E+03	9.3827000000E-01	0.000E+00	0.0
	51	2	1	2	0	0	-3.7195673277E+01	1.4521989573E+02	-1.5947545849E+03	1.9175201372E+03	1.0541199905E+03	0.000E+00	0.0
	1000022	2	5	5	0	0	3.7195673277E+01	-1.4521989573E+02	-1.1058173191E+03	1.3946078737E+03	8.3643699215E+02	0.000E+00	0.0
	14	1	6	6	0	0	2.7862938597E+02	-1.1595253791E+02	-5.9676063305E+02	7.4352375815E+02	3.2500000000E+02	0.000E+00	0.0
	-14	1	6	6	0	0	-2.4143371269E+02	-2.9267357821E+01	-5.0905668607E+02	6.5108411553E+02	3.2500000000E+02	0.000E+00	0.0
	25	2	5	5	0	0	-3.7195673277E+01	1.4521989573E+02	-3.7872600440E+02	4.2611666169E+02	1.2517861932E+02	0.000E+00	0.0
	-5	1	9	9	0	501	3.6322271531E+01	6.2746318414E+00	-5.6868378790E+01	6.7898183482E+01	4.1800000000E+00	0.000E+00	0.0
	5	1	9	9	501	0	-7.3517944809E+01	1.3894526389E+02	-3.2185762561E+02	3.5821847821E+02	4.1800000000E+00	0.000E+00	0.0
</event>
<event>
    11  -1  1.0000000E+00  1.0000000E+00  -1.0000000E+00  -1.0000000E+00
	2212	-1	0	0	0	0	0.0000000000E+00	0.0000000000E+00	6.5000000000E+03	6.5000000000E+03	9.3827000000E-01	0.000E+00	0.0
	2212	-1	0	0	0	0	0.0000000000E+00	0.0000000000E+00	-6.5000000000E+03	6.5000000000E+03	9.3827000000E-01	0.000E+00	0.0
	2212	1	0	0	0	0	0.0000000000E+00	0.0000000000E+00	5.4642931736E+03	5.4642931736E+03	9.3827000000E-01	0.000E+00	0.0
	2212	1	0	0	0	0	0.0000000000E+00	0.0000000000E+00	-6.2298161901E+03	6.2298161901E+03	9.3827000000E-01	0.000E+00	0.0
	51	2	1	2	0	0	2.6659151909E+01	6.1603958668E+01	6.1008077825E+02	1.2231227164E+03	1.0579815051E+03	0.000E+00	0.0
	1000022	2	5	5	0	0	-2.6659151909E+01	-6.1603958668E+01	7.8812989380E+02	1.1620573304E+03	8.5130649679E+02	0.000E+00	0.0
	14	1	6	6	0	0	-2.8150247369E+02	8.3246038717E+00	4.6212131628E+02	6.3126385346E+02	3.2500000000E+02	0.000E+00	0.0
	-14	1	6	6	0	0	2.5484332179E+02	-6.9928562540E+01	3.2600857752E+02	5.3079347691E+02	3.2500000000E+02	0.000E+00	0.0
	25	2	5	5	0	0	2.6659151909E+01	6.1603958668E+01	-2.2606877348E+01	1.4383330589E+02	1.2518462715E+02	0.000E+00	0.0
	-5	1	9	9	0	501	5.5290021651E+01	4.0468294497E+01	-6.0630178975E+01	9.1586900571E+01	4.1800000000E+00	0.000E+00	0.0
	5	1	9	9	501	0	-2.8630869742E+01	2.1135664172E+01	3.8023301627E+01	5.2246405319E+01	4.1800000000E+00	0.000E+00	0.0
</event>
<event>
    11  -1  1.0000000E+00  1.0000000E+00  -1.0000000E+00  -1.0000000E+00
	2212	-1	0	0	0	0	0.0000000000E+00	0.0000000000E+00	6.5000000000E+03	6.5000000000E+03	9.3827000000E-01	0.000E+00	0.0
	2212	-1	0	0	0	0	0.0000000000E+00	0.0000000000E+00	-6.5000000000E+03	6.5000000000E+03	9.3827000000E-01	0.000E+00	0.0
	2212	1	0	0	0	0	0.0000000000E+00	0.0000000000E+00	4.9902871405E+03	4.9902871405E+03	9.3827000000E-01	0.000E+00	0.0
	2212	1	0	0	0	0	0.0000000000E+00	0.0000000000E+00	-6.3174346840E+03	6.3174346840E+03	9.3827000000E-01	0.000E+00	0.0
	51	2	1	2	0	0	8.3285893781E+01	-3.2577070401E+01	1.4893869427E+03	1.8244878986E+03	1.0499927720E+03	0.000E+00	0.0
	1000022	2	5	5	0	0	-8.3285893781E+01	3.2577070401E+01	9.4691492514E+02	1.2820999864E+03	8.5972943065E+02	0.000E+00	0.0
	14	1	6	6	0	0	-2.5292101142E+02	-1.7558152056E+01	7.6681234479E+02	8.7057653244E+02	3.2500000000E+02	0.000E+00	0.0
	-14	1	6	6	0	0	1.6963511764E+02	5.0135222457E+01	1.8010258036E+02	4.1152345391E+02	3.2500000000E+02	0.000E+00	0.0
	25	2	5	5	0	0	8.3285893781E+01	-3.2577070401E+01	3.8023261829E+02	4.1017818916E+02	1.2518585077E+02	0.000E+00	0.0
	-5	1	9	9	0	501	9.3203989679E+01	-6.8608048229E+01	2.9976990780E+02	3.2136197347E+02	4.1800000000E+00	0.000E+00	0.0
	5	1	9	9	501	0	-9.9180958981E+00	3.6030977828E+01	8.0462710489E+01	8.8816215685E+01	4.1800000000E+00	0.000E+00	0.0
</event>
<event>
    11  -1  1.0000000E+00  1.0000000E+00  -1.0000000E+00  -1.0000000E+00
	2212	-1	0	0	0	0	0.0000000000E+00	0.0000000000E+00	6.5000000000E+03	6.5000000000E+03	9.3827000000E-01	0.000E+00	0.0
	2212	-1	0	0	0	0	0.0000000000E+00	0.0000000000E+00	-6.5000000000E+03	6.5000000000E+03	9.3827000000E-01	0.000E+00	0.0
	2212	1	0	0	0	0	0.0000000000E+00	0.0000000000E+00	5.2935121449E+03	5.2935121449E+03	9.3827000000E-01	0.000E+00	0.0
	2212	1	0	0	0	0	0.0000000000E+00	0.0000000000E+00	-6.2712195309E+03	6.2712195309E+03	9.3827000000E-01	0.000E+00	0.0
	51	2	1	2	0	0	2.8726118974E+02	-1.4875583520E+02	9.5177630352E+02	1.4541694713E+03	1.0507537436E+03	0.000E+00	0.0
	1000022	2	5	5	0	0	-2.8726118974E+02	1.4875583520E+02	7.2360584162E+02	1.0052810332E+03	6.1833425592E+02	0.000E+00	0.0
	14	1	6	6	0	0	0.0000000000E+00	0.0000000000E+00	0.0000000000E+00	0.0000000000E+00	0.0000000000E+00	0.000E+00	0.0
	-14	1	6	6	0	0	0.0000000000E+00	0.0000000000E+00	0.0000000000E+00	0.0000000000E+00	0.0000000000E+00	0.000E+00	0.0
	25	2	5	5	0	0	2.8726118974E+02	-1.4875583520E+02	2.5410154440E+02	4.2998729098E+02	1.2519658899E+02	0.000E+00	0.0
	-5	1	9	9	0	501	3.5224928236E+01	1.7949252279E+01	5.5849652124E+01	6.8553827530E+01	4.1800000000E+00	0.000E+00	0.0
	5	1	9	9	501	0	2.5203626151E+02	-1.6670508748E+02	1.9825189228E+02	3.6143346345E+02	4.1800000000E+00	0.000E+00	0.0
</event>
<event>
    11  -1  1.0000000E+00  1.0000000E+00  -1.0000000E+00  -1.0000000E+00
	2212	-1	0	0	0	0	0.0000000000E+00	0.0000000000E+00	6.5000000000E+03	6.5000000000E+03	9.3827000000E-01	0.000E+00	0.0
	2212	-1	0	0	0	0	0.0000000000E+00	0.0000000000E+00	-6.5000000000E+03	6.5000000000E+03	9.3827000000E-01	0.000E+00	0.0
	2212	1	0	0	0	0	0.0000000000E+00	0.0000000000E+00	6.0506466886E+03	6.0506466886E+03	9.3827000000E-01	0.000E+00	0.0
	2212	1	0	0	0	0	0.0000000000E+00	0.0000000000E+00	-5.8873432538E+03	5.8873432538E+03	9.3827000000E-01	0.000E+00	0.0
	51	2	1	2	0	0	3.4858531650E+01	2.0873548451E+01	-2.0303413740E+01	1.0503620335E+03	1.0493795074E+03	0.000E+00	0.0
	1000022	2	5	5	0	0	-3.4858531650E+01	-2.0873548451E+01	-2.7770760258E+02	8.8769087331E+02	8.4215363905E+02	0.000E+00	0.0
	14	1	6	6	0	0	-6.3184952748E+01	2.5290434401E+02	-1.5430542515E+02	4.4428381661E+02	3.2500000000E+02	0.000E+00	0.0
	-14	1	6	6	0	0	2.8326421098E+01	-2.7377789246E+02	-1.2340217744E+02	4.4340705670E+02	3.2500000000E+02	0.000E+00	0.0
	25	2	5	5	0	0	3.4858531650E+01	2.0873548451E+01	1.1440416774E+02	1.7431918424E+02	1.2509213462E+02	0.000E+00	0.0
	-5	1	9	9	0	501	4.9782211603E+01	-3.4908027967E+01	2.1064703297E+01	6.4482812700E+01	4.1800000000E+00	0.000E+00	0.0
	5	1	9	9	501	0	-1.4923679953E+01	5.5781576419E+01	9.3339464438E+01	1.0983637154E+02	4.1800000000E+00	0.000E+00	0.0
</event>
<event>
    11  -1  1.0000000E+00  1.0000000E+00  -1.0000000E+00  -1.0000000E+00
	2212	-1	0	0	0	0	0.0000000000E+00	0.0000000000E+00	6.5000000000E+03	6.5000000000E+03	9.3827000000E-01	0.000E+00	0.0
	2212	-1	0	0	0	0	0.0000000000E+00	0.0000000000E+00	-6.5000000000E+03	6.5000000000E+03	9.3827000000E-01	0.000E+00	0.0
	2212	1	0	0	0	0	0.0000000000E+00	0.0000000000E+00	6.1563995163E+03	6.1563995163E+03	9.3827000000E-01	0.000E+00	0.0
	2212	1	0	0	0	0	0.0000000000E+00	0.0000000000E+00	-5.7045674602E+03	5.7045674602E+03	9.3827000000E-01	0.000E+00	0.0
	51	2	1	2	0	0	2.4306931685E+01	-1.2862314805E+02	-5.0348550919E+02	1.1678511981E+03	1.0455831013E+03	0.000E+00	0.0
	1000022	2	5	5	0	0	-2.4306931685E+01	1.2862314805E+02	-3.2357085374E+02	9.1709274751E+02	8.4807208951E+02	0.000E+00	0.0
	14	1	6	6	0	0	-1.4881211052E+02	-1.2056693886E+02	-3.1093276121E+02	4.8886154786E+02	3.2500000000E+02	0.000E+00	0.0
	-14	1	6	6	0	0	1.2450517883E+02	2.4919008691E+02	-1.2638092531E+01	4.2823119965E+02	3.2500000000E+02	0.000E+00	0.0
	25	2	5	5	0	0	2.4306931685E+01	-1.2862314805E+02	-1.2826120231E+02	2.2194027601E+02	1.2518709582E+02	0.000E+00	0.0
	-5	1	9	9	0	501	-3.3182055678E+01	-2.7255234037E+01	6.6110470736E+00	4.3647164225E+01	4.1800000000E+00	0.000E+00	0.0
	5	1	9	9	501	0	5.7488987363E+01	-1.0136791401E+02	-1.3487224938E+02	1.7829311179E+02	4.1800000000E+00	0.000E+00	0.0
</event>
<event>
    11  -1  1.0000000E+00  1.0000000E+00  -1.0000000E+00  -1.0000000E+00
	2212	-1	0	0	0	0	0.0000000000E+00	0.0000000000E+00	6.5000000000E+03	6.5000000000E+03	9.3827000000E-01	0.000E+00	0.0
	2212	-1	0	0	0	0	0.0000000000E+00	0.0000000000E+00	-6.5000000000E+03	6.5000000000E+03	9.3827000000E-01	0.000E+00	0.0
	2212	1	0	0	0	0	0.0000000000E+00	0.0000000000E+00	6.3056240957E+03	6.3056240957E+03	9.3827000000E-01	0.000E+00	0.0
	2212	1	0	0	0	0	0.0000000000E+00	0.0000000000E+00	-5.0833040755E+03	5.0833040755E+03	9.3827000000E-01	0.000E+00	0.0
	51	2	1	2	0	0	-1.1299856470E+02	-1.3098298010E+01	-1.3675645001E+03	1.7276165977E+03	1.0495171299E+03	0.000E+00	0.0
	1000022	2	5	5	0	0	1.1299856470E+02	1.3098298010E+01	-8.6677363901E+02	1.2173398560E+03	8.4715969132E+02	0.000E+00	0.0
	14	1	6	6	0	0	-2.2259791339E+01	3.5418169546E+00	-7.9332228265E+02	8.5760905250E+02	3.2500000000E+02	0.000E+00	0.0
	-14	1	6	6	0	0	1.3525835604E+02	9.5564810558E+00	-7.3451356356E+01	3.5973080346E+02	3.2500000000E+02	0.000E+00	0.0
	25	2	5	5	0	0	-1.1299856470E+02	-1.3098298010E+01	-3.5554638119E+02	3.9373197289E+02	1.2518544748E+02	0.000E+00	0.0
	-5	1	9	9	0	501	-1.2615862957E+01	-2.3336813478E+01	-3.0199269736E+00	2.7025159026E+01	4.1800000000E+00	0.000E+00	0.0
	5	1	9	9	501	0	-1.0038270174E+02	1.0238515468E+01	-3.5252645422E+02	3.6670681386E+02	4.1800000000E+00	0.000E+00	0.0
</event>
<event>
    11  -1  1.0000000E+00  1.0000000E+00  -1.0000000E+00  -1.0000000E+00
	2212	-1	0	0	0	0	0.0000000000E+00	0.0000000000E+00	6.5000000000E+03	6.5000000000E+03	9.3827000000E-01	0.000E+00	0.0
	2212	-1	0	0	0	0	0.0000000000E+00	0.0000000000E+00	-6.5000000000E+03	6.5000000000E+03	9.3827000000E-01	0.000E+00	0.0
	2212	1	0	0	0	0	0.0000000000E+00	0.0000000000E+00	6.2421211757E+03	6.2421211757E+03	9.3827000000E-01	0.000E+00	0.0
	2212	1	0	0	0	0	0.0000000000E+00	0.0000000000E+00	-5.3952047386E+03	5.3952047386E+03	9.3827000000E-01	0.000E+00	0.0
	51	2	1	2	0	0	-4.9281541219E+01	-3.7664070318E+01	-1.0385243948E+03	1.4906352281E+03	1.0675266799E+03	0.000E+00	0.0
	1000022	2	5	5	0	0	4.9281541219E+01	3.7664070318E+01	-5.0565579526E+02	9.9392432970E+02	8.5343455367E+02	0.000E+00	0.0
	14	1	6	6	0	0	-2.5988389129E+01	-1.5813601326E+02	-4.8651424173E+02	6.0663292234E+02	3.2500000000E+02	0.000E+00	0.0
	-14	1	6	6	0	0	7.5269930348E+01	1.9580008358E+02	-1.9141553528E+01	3.8729140736E+02	3.2500000000E+02	0.000E+00	0.0
	25	2	5	5	0	0	-4.9281541219E+01	-3.7664070318E+01	-3.4126064189E+02	3.6874975601E+02	1.2518108625E+02	0.000E+00	0.0
	-5	1	9	9	0	501	-3.9976019193E+01	3.3016387079E+01	-6.4166693856E+01	8.2601458381E+01	4.1800000000E+00	0.000E+00	0.0
	5	1	9	9	501	0	-9.3055220266E+00	-7.0680457397E+01	-2.7709394803E+02	2.8614829763E+02	4.1800000000E+00	0.000E+00	0.0
</event>
<event>
    11  -1  1.0000000E+00  1.0000000E+00  -1.0000000E+00  -1.0000000E+00
	2212	-1	0	0	0	0	0.0000000000E+00	0.0000000000E+00	6.5000000000E+03	6.5000000000E+03	9.3827000000E-01	0.000E+00	0.0
	2212	-1	0	0	0	0	0.0000000000E+00	0.0000000000E+00	-6.5000000000E+03	6.5000000000E+03	9.3827000000E-01	0.000E+00	0.0
	2212	1	0	0	0	0	0.0000000000E+00	0.0000000000E+00	5.9998845168E+03	5.9998845168E+03	9.3827000000E-01	0.000E+00	0.0
	2212	1	0	0	0	0	0.0000000000E+00	0.0000000000E+00	-5.9501851507E+03	5.9501851507E+03	9.3827000000E-01	0.000E+00	0.0
	51	2	1	2	0	0	-3.3596432608E+01	-9.8754757310E+01	4.0958711303E+01	1.0547239043E+03	1.0487533914E+03	0.000E+00	0.0
	1000022	2	5	5	0	0	3.3596432608E+01	9.8754757310E+01	-1.3194516528E+02	8.6742209833E+02	8.5095848762E+02	0.000E+00	0.0
	14	1	6	6	0	0	-1.3993185481E+01	-1.5497532892E+01	2.0367610084E+02	3.8411578569E+02	3.2500000000E+02	0.000E+00	0.0
	-14	1	6	6	0	0	4.7589618088E+01	1.1425229020E+02	-3.3562126612E+02	4.8330631264E+02	3.2500000000E+02	0.000E+00	0.0
	25	2	5	5	0	0	-3.3596432608E+01	-9.8754757310E+01	8.2245799187E+01	1.8250823409E+02	1.2515455107E+02	0.000E+00	0.0
	-5	1	9	9	0	501	-4.1661073053E+00	-1.1925278620E+02	8.4586073407E+01	1.4632450130E+02	4.1800000000E+00	0.000E+00	0.0
	5	1	9	9	501	0	-2.9430325302E+01	2.0498028886E+01	-2.3402742198E+00	3.6183732796E+01	4.1800000000E+00	0.000E+00	0.0
</event>
<event>
    11  -1  1.0000000E+00  1.0000000E+00  -1.0000000E+00  -1.0000000E+00
	2212	-1	0	0	0	0	0.0000000000E+00	0.0000000000E+00	6.5000000000E+03	6.5000000000E+03	9.3827000000E-01	0.000E+00	0.0
	2212	-1	0	0	0	0	0.0000000000E+00	0.0000000000E+00	-6.5000000000E+03	6.5000000000E+03	9.3827000000E-01	0.000E+00	0.0
	2212	1	0	0	0	0	0.0000000000E+00	0.0000000000E+00	5.8332411209E+03	5.8332411209E+03	9.3827000000E-01	0.000E+00	0.0
	2212	1	0	0	0	0	0.0000000000E+00	0.0000000000E+00	-6.0946654835E+03	6.0946654835E+03	9.3827000000E-01	0.000E+00	0.0
	51	2	1	2	0	0	9.3020291480E+00	1.1355462044E+02	1.8814962519E+02	1.0627431546E+03	1.0397314805E+03	0.000E+00	0.0
	1000022	2	5	5	0	0	-9.3020291480E+00	-1.1355462044E+02	2.9053783643E+02	9.0033963142E+02	8.4452237266E+02	0.000E+00	0.0
	14	1	6	6	0	0	-2.5327210143E+02	4.0916370970E+01	1.0181452662E+02	4.2639430649E+02	3.2500000000E+02	0.000E+00	0.0
	-14	1	6	6	0	0	2.4397007228E+02	-1.5447099141E+02	1.8872330981E+02	4.7394532493E+02	3.2500000000E+02	0.000E+00	0.0
	25	2	5	5	0	0	9.3020291480E+00	1.1355462044E+02	-2.9113473775E+01	1.7175376422E+02	1.2518219362E+02	0.000E+00	0.0
	-5	1	9	9	0	501	1.1231047601E+01	2.4657994046E+01	4.7146768563E+01	5.4538456951E+01	4.1800000000E+00	0.000E+00	0.0
	5	1	9	9	501	0	-1.9290184531E+00	8.8896626396E+01	-7.6260242338E+01	1.1721530727E+02	4.1800000000E+00	0.000E+00	0.0
</event>
<event>
    11  -1  1.0000000E+00  1.0000000E+00  -1.0000000E+00  -1.0000000E+00
	2212	-1	0	0	0	0	0.0000000000E+00	0.0000000000E+00	6.5000000000E+03	6.5000000000E+03	9.3827000000E-01	0.000E+00	0.0
	2212	-1	0	0	0	0	0.0000000000E+00	0.0000000000E+00	-6.5000000000E+03	6.5000000000E+03	9.3827000000E-01	0.000E+00	0.0
	2212	1	0	0	0	0	0.0000000000E+00	0.0000000000E+00	5.9080478787E+03	5.9080478787E+03	9.3827000000E-01	0.000E+00	0.0
	2212	1	0	0	0	0	0.0000000000E+00	0.0000000000E+00	-6.0368278861E+03	6.0368278861E+03	9.3827000000E-01	0.000E+00	0.0
	51	2	1	2	0	0	7.8517165967E+01	1.6435995868E+01	2.6681683993E+02	1.0836646967E+03	1.0472358194E+03	0.000E+00	0.0
	1000022	2	5	5	0	0	-7.8517165967E+01	-1.6435995868E+01	-3.2550876786E+01	8.3573024872E+02	8.3123426405E+02	0.000E+00	0.0
	14	1	6	6	0	0	4.4322093646E+01	6.3324016334E+01	-2.5081461760E+02	4.1774077061E+02	3.2500000000E+02	0.000E+00	0.0
	-14	1	6	6	0	0	-1.2283925961E+02	-7.9760012202E+01	2.1826374082E+02	4.1798947810E+02	3.2500000000E+02	0.000E+00	0.0
	25	2	5	5	0	0	7.8517165967E+01	1.6435995868E+01	1.6133088415E+02	2.1939398649E+02	1.2518378417E+02	0.000E+00	0.0
	-5	1	9	9	0	501	3.3214356616E+01	-5.3886516093E+01	8.5081564194E+01	1.0612867222E+02	4.1800000000E+00	0.000E+00	0.0
	5	1	9	9	501	0	4.5302809350E+01	7.0322511961E+01	7.6249319955E+01	1.1326531427E+02	4.1800000000E+00	0.000E+00	0.0
</event>
<event>
    11  -1  1.0000000E+00  1.0000000E+00  -1.0000000E+00  -1.0000000E+00
	2212	-1	0	0	0	0	0.0000000000E+00	0.0000000000E+00	6.5000000000E+03	6.5000000000E+03	9.3827000000E-01	0.000E+00	0.0
	2212	-1	0	0	0	0	0.0000000000E+00	0.0000000000E+00	-6.5000000000E+03	6.5000000000E+03	9.3827000000E-01	0.000E+00	0.0
	2212	1	0	0	0	0	0.0000000000E+00	0.0000000000E+00	6.1264783568E+03	6.1264783568E+03	9.3827000000E-01	0.000E+00	0.0
	2212	1	0	0	0	0	0.0000000000E+00	0.0000000000E+00	-5.7655109591E+03	5.7655109591E+03	9.3827000000E-01	0.000E+00	0.0
	51	2	1	2	0	0	2.6807885714E+02	1.5267454046E+02	-4.5926863321E+02	1.1846913861E+03	1.0475639427E+03	0.000E+00	0.0
	1000022	2	5	5	0	0	-2.6807885714E+02	-1.5267454046E+02	-1.6114901204E+02	7.1971711159E+02	6.2995867141E+02	0.000E+00	0.0
	14	1	6	6	0	0	0.0000000000E+00	0.0000000000E+00	0.0000000000E+00	0.0000000000E+00	0.0000000000E+00	0.000E+00	0.0
	-14	1	6	6	0	0	0.0000000000E+00	0.0000000000E+00	0.0000000000E+00	0.0000000000E+00	0.0000000000E+00	0.000E+00	0.0
	25	2	5	5	0	0	2.6807885714E+02	1.5267454046E+02	-1.9981838565E+02	3.8829357256E+02	1.2517476701E+02	0.000E+00	0.0
	-5	1	9	9	0	501	5.0853222325E+01	-1.9782626767E+01	-2.3151575756E+01	5.9421127578E+01	4.1800000000E+00	0.000E+00	0.0
	5	1	9	9	501	0	2.1722563482E+02	1.7245716723E+02	-1.7666680990E+02	3.2887244498E+02	4.1800000000E+00	0.000E+00	0.0
</event>
<event>
    11  -1  1.0000000E+00  1.0000000E+00  -1.0000000E+00  -1.0000000E+00
	2212	-1	0	0	0	0	0.0000000000E+00	0.0000000000E+00	6.5000000000E+03	6.5000000000E+03	9.3827000000E-01	0.000E+00	0.0
	2212	-1	0	0	0	0	0.0000000000E+00	0.0000000000E+00	-6.5000000000E+03	6.5000000000E+03	9.3827000000E-01	0.000E+00	0.0
	2212	1	0	0	0	0	0.0000000000E+00	0.0000000000E+00	6.3097291051E+03	6.3097291051E+03	9.3827000000E-01	0.000E+00	0.0
	2212	1	0	0	0	0	0.0000000000E+00	0.0000000000E+00	-5.0748642145E+03	5.0748642145E+03	9.3827000000E-01	0.000E+00	0.0
	51	2	1	2	0	0	-1.0873488312E+02	-4.9457681830E+01	-1.2486277437E+03	1.6303337157E+03	1.0414640874E+03	0.000E+00	0.0
	1000022	2	5	5	0	0	1.0873488312E+02	4.9457681830E+01	-1.0239947669E+03	1.3426308683E+03	8.6012965814E+02	0.000E+00	0.0
	14	1	6	6	0	0	-1.6373513998E+02	-1.5527040131E+02	-5.1069607855E+02	6.4602908467E+02	3.2500000000E+02	0.000E+00	0.0
	-14	1	6	6	0	0	2.7247002310E+02	2.0472808314E+02	-5.1329868837E+02	6.9660178366E+02	3.2500000000E+02	0.000E+00	0.0
	25	2	5	5	0	0	-1.0873488312E+02	-4.9457681830E+01	-2.1087012365E+02	2.7277581214E+02	1.2518425437E+02	0.000E+00	0.0
	-5	1	9	9	0	501	2.5970693197E+01	-1.4947836004E+01	-1.8817438084E+01	3.5629806095E+01	4.1800000000E+00	0.000E+00	0.0
	5	1	9	9	501	0	-1.3470557632E+02	-3.4509845825E+01	-1.9205268557E+02	2.3714600605E+02	4.1800000000E+00	0.000E+00	0.0
</event>
<event>
    11  -1  1.0000000E+00  1.0000000E+00  -1.0000000E+00  -1.0000000E+00
	2212	-1	0	0	0	0	0.0000000000E+00	0.0000000000E+00	6.5000000000E+03	6.5000000000E+03	9.3827000000E-01	0.000E+00	0.0
	2212	-1	0	0	0	0	0.0000000000E+00	0.0000000000E+00	-6.5000000000E+03	6.5000000000E+03	9.3827000000E-01	0.000E+00	0.0
	2212	1	0	0	0	0	0.0000000000E+00	0.0000000000E+00	5.8947270768E+03	5.8947270768E+03	9.3827000000E-01	0.000E+00	0.0
	2212	1	0	0	0	0	0.0000000000E+00	0.0000000000E+00	-6.0232621091E+03	6.0232621091E+03	9.3827000000E-01	0.000E+00	0.0
	51	2	1	2	0	0	1.6437028215E+02	3.4254470078E+01	1.3693846128E+02	1.0959786713E+03	1.0743491739E+03	0.000E+00	0.0
	1000022	2	5	5	0	0	-1.6437028215E+02	-3.4254470078E+01	9.6624819535E+01	8.7016231891E+02	8.4832490658E+02	0.000E+00	0.0
	14	1	6	6	0	0	1.9421812410E+02	1.0118423208E+01	3.7566814558E+01	3.8060389879E+02	3.2500000000E+02	0.000E+00	0.0
	-14	1	6	6	0	0	-3.5858840626E+02	-4.4372893286E+01	5.9058004977E+01	4.8955842012E+02	3.2500000000E+02	0.000E+00	0.0
	25	2	5	5	0	0	1.6437028215E+02	3.4254470078E+01	3.1910212738E+01	2.1184849525E+02	1.2518212686E+02	0.000E+00	0.0
	-5	1	9	9	0	501	1.6609300568E+02	6.3235372258E+01	1.6029126457E+01	1.7849370895E+02	4.1800000000E+00	0.000E+00	0.0
	5	1	9	9	501	0	-1.7227235237E+00	-2.8980902180E+01	1.5881086280E+01	3.3354786297E+01	4.1800000000E+00	0.000E+00	0.0
</event>
<event>
    11  -1  1.0000000E+00  1.0000000E+00  -1.0000000E+00  -1.0000000E+00
	2212	-1	0	0	0	0	0.0000000000E+00	0.0000000000E+00	6.5000000000E+03	6.5000000000E+03	9.3827000000E-01	0.000E+00	0.0
	2212	-1	0	0	0	0	0.0000000000E+00	0.0000000000E+00	-6.5000000000E+03	6.5000000000E+03	9.3827000000E-01	0.000E+00	0.0
	2212	1	0	0	0	0	0.0000000000E+00	0.0000000000E+00	6.3313156380E+03	6.3313156380E+03	9.3827000000E-01	0.000E+00	0.0
	2212	1	0	0	0	0	0.0000000000E+00	0.0000000000E+00	-4.8735400452E+03	4.8735400452E+03	9.3827000000E-01	0.000E+00	0.0
	51	2	1	2	0	0	-1.1081031432E+02	1.1167677841E+01	-1.3101832737E+03	1.6811951976E+03	1.0475845736E+03	0.000E+00	0.0
	1000022	2	5	5	0	0	1.1081031432E+02	-1.1167677841E+01	-1.3518545111E+03	1.5969101733E+03	8.4273829843E+02	0.000E+00	0.0
	14	1	6	6	0	0	8.5652184161E+01	-2.6795045820E+02	-7.7639941459E+02	8.8744284079E+02	3.2500000000E+02	0.000E+00	0.0
	-14	1	6	6	0	0	2.5158130164E+01	2.5678278036E+02	-5.7545509655E+02	7.0946733254E+02	3.2500000000E+02	0.000E+00	0.0
	25	2	5	5	0	0	-1.1081031432E+02	1.1167677841E+01	-1.0592108167E+02	1.9823414337E+02	1.2519527654E+02	0.000E+00	0.0
	-5	1	9	9	0	501	1.7994316414E+01	-1.7989083051E+01	4.3326551606E+00	2.6146640950E+01	4.1800000000E+00	0.000E+00	0.0
	5	1	9	9	501	0	-1.2880463074E+02	2.9156760893E+01	-1.1025373683E+02	1.7208750242E+02	4.1800000000E+00	0.000E+00	0.0
</event>
<event>
    11  -1  1.0000000E+00  1.0000000E+00  -1.0000000E+00  -1.0000000E+00
	2212	-1	0	0	0	0	0.0000000000E+00	0.0000000000E+00	6.5000000000E+03	6.5000000000E+03	9.3827000000E-01	0.000E+00	0.0
	2212	-1	0	0	0	0	0.0000000000E+00	0.0000000000E+00	-6.5000000000E+03	6.5000000000E+03	9.3827000000E-01	0.000E+00	0.0
	2212	1	0	0	0	0	0.0000000000E+00	0.0000000000E+00	6.3079691286E+03	6.3079691286E+03	9.3827000000E-01	0.000E+00	0.0
	2212	1	0	0	0	0	0.0000000000E+00	0.0000000000E+00	-5.0685283895E+03	5.0685283895E+03	9.3827000000E-01	0.000E+00	0.0
	51	2	1	2	0	0	2.9352004134E+01	-1.2453178238E+02	-1.1632358386E+03	1.5713160993E+03	1.0485928489E+03	0.000E+00	0.0
	1000022	2	5	5	0	0	-2.9352004134E+01	1.2453178238E+02	-1.1048267596E+03	1.3995441773E+03	8.4953636215E+02	0.000E+00	0.0
	14	1	6	6	0	0	-2.0757508350E+02	2.2455482712E+02	-7.7079618432E+02	8.9065371690E+02	3.2500000000E+02	0.000E+00	0.0
	-14	1	6	6	0	0	1.7822307937E+02	-1.0002304474E+02	-3.3403057530E+02	5.0889046044E+02	3.2500000000E+02	0.000E+00	0.0
	25	2	5	5	0	0	2.9352004134E+01	-1.2453178238E+02	-1.3461397954E+02	2.2395830454E+02	1.2516666374E+02	0.000E+00	0.0
	-5	1	9	9	0	501	4.5375272435E+01	-9.6299187814E+01	-1.5298446495E+02	1.8642469750E+02	4.1800000000E+00	0.000E+00	0.0
	5	1	9	9	501	0	-1.6023268301E+01	-2.8232594568E+01	1.8370485407E+01	3.7533607036E+01	4.1800000000E+00	0.000E+00	0.0
</event>
<event>
    11  -1  1.0000000E+00  1.0000000E+00  -1.0000000E+00  -1.0000000E+00
	2212	-1	0	0	0	0	0.0000000000E+00	0.0000000000E+00	6.5000000000E+03	6.5000000000E+03	9.3827000000E-01	0.000E+00	0.0
	2212	-1	0	0	0	0	0.0000000000E+00	0.0000000000E+00	-6.5000000000E+03	6.5000000000E+03	9.3827000000E-01	0.000E+00	0.0
	2212	1	0	0	0	0	0.0000000000E+00	0.0000000000E+00	5.7243269854E+03	5.7243269854E+03	9.3827000000E-01	0.000E+00	0.0
	2212	1	0	0	0	0	0.0000000000E+00	0.0000000000E+00	-6.1660063439E+03	6.1660063439E+03	9.3827000000E-01	0.000E+00	0.0
	51	2	1	2	0	0	3.6449763374E+01	-2.4325464910E+01	3.4273089653E+02	1.0750182535E+03	1.0179781258E+03	0.000E+00	0.0
	1000022	2	5	5	0	0	-3.6449763374E+01	2.4325464910E+01	4.7262414310E+02	9.7346396540E+02	8.4990481691E+02	0.000E+00	0.0
	14	1	6	6	0	0	9.5498689250E+01	-2.2491033426E+02	3.1814001997E+02	5.1627776479E+02	3.2500000000E+02	0.000E+00	0.0
	-14	1	6	6	0	0	-1.3194845262E+02	2.4923579916E+02	1.5448412313E+02	4.5718620062E+02	3.2500000000E+02	0.000E+00	0.0
	25	2	5	5	0	0	3.6449763374E+01	-2.4325464910E+01	-3.0944784617E+01	1.3620270537E+02	1.2519298608E+02	0.000E+00	0.0
	-5	1	9	9	0	501	6.1971950747E+01	-5.9636710197E+01	-7.2014746240E+00	8.6408295431E+01	4.1800000000E+00	0.000E+00	0.0
	5	1	9	9	501	0	-2.5522187374E+01	3.5311245287E+01	-2.3743309993E+01	4.9794409942E+01	4.1800000000E+00	0.000E+00	0.0
</event>
<event>
    11  -1  1.0000000E+00  1.0000000E+00  -1.0000000E+00  -1.0000000E+00
	2212	-1	0	0	0	0	0.0000000000E+00	0.0000000000E+00	6.5000000000E+03	6.5000000000E+03	9.3827000000E-01	0.000E+00	0.0
	2212	-1	0	0	0	0	0.0000000000E+00	0.0000000000E+00	-6.5000000000E+03	6.5000000000E+03	9.3827000000E-01	0.000E+00	0.0
	2212	1	0	0	0	0	0.0000000000E+00	0.0000000000E+00	6.2343975004E+03	6.2343975004E+03	9.3827000000E-01	0.000E+00	0.0
	2212	1	0	0	0	0	0.0000000000E+00	0.0000000000E+00	-5.4973979887E+03	5.4973979887E+03	9.3827000000E-01	0.000E+00	0.0
	51	2	1	2	0	0	-1.6572865579E+02	4.3522995058E+00	-6.5373056813E+02	1.2328921230E+03	1.0320728663E+03	0.000E+00	0.0
	1000022	2	5	5	0	0	1.6572865579E+02	-4.3522995058E+00	-6.7350424850E+02	1.0509698807E+03	7.8958519967E+02	0.000E+00	0.0
	14	1	6	6	0	0	1.3460659144E+02	1.7285755843E+02	-5.1475900744E+02	6.4699343560E+02	3.2500000000E+02	0.000E+00	0.0
	-14	1	6	6	0	0	3.1122064350E+01	-1.7720985793E+02	-1.5874524106E+02	4.0397644510E+02	3.2500000000E+02	0.000E+00	0.0
	25	2	5	5	0	0	-1.6572865579E+02	4.3522995058E+00	-6.3495263215E+01	2.1723463024E+02	1.2519706972E+02	0.000E+00	0.0
	-5	1	9	9	0	501	-1.5245545721E+02	3.7821867481E+01	-8.1223975635E+01	1.7688404877E+02	4.1800000000E+00	0.000E+00	0.0
	5	1	9	9	501	0	-1.3273198577E+01	-3.3469567975E+01	1.7728712419E+01	4.0350581470E+01	4.1800000000E+00	0.000E+00	0.0
</event>
<event>
    11  -1  1.0000000E+00  1.0000000E+00  -1.0000000E+00  -1.0000000E+00
	2212	-1	0	0	0	0	0.0000000000E+00	0.0000000000E+00	6.5000000000E+03	6.5000000000E+03	9.3827000000E-01	0.000E+00	0.0
	2212	-1	0	0	0	0	0.0000000000E+00	0.0000000000E+00	-6.5000000000E+03	6.5000000000E+03	9.3827000000E-01	0.000E+00	0.0
	2212	1	0	0	0	0	0.0000000000E+00	0.0000000000E+00	6.2979481246E+03	6.2979481246E+03	9.3827000000E-01	0.000E+00	0.0
	2212	1	0	0	0	0	0.0000000000E+00	0.0000000000E+00	-5.1342391993E+03	5.1342391993E+03	9.3827000000E-01	0.000E+00	0.0
	51	2	1	2	0	0	-2.0332504531E+01	-1.0760721283E+02	-1.2777027919E+03	1.6578103849E+03	1.0506274909E+03	0.000E+00	0.0
	1000022	2	5	5	0	0	2.0332504531E+01	1.0760721283E+02	-8.5856138906E+02	1.2202822290E+03	8.6021412257E+02	0.000E+00	0.0
	14	1	6	6	0	0	1.2506940779E+02	2.9516476346E+02	-5.9491637743E+02	7.4987671686E+02	3.2500000000E+02	0.000E+00	0.0
	-14	1	6	6	0	0	-1.0473690326E+02	-1.8755755063E+02	-2.6364501163E+02	4.7040551215E+02	3.2500000000E+02	0.000E+00	0.0
	25	2	5	5	0	0	-2.0332504531E+01	-1.0760721283E+02	-3.0514753619E+02	3.4753044707E+02	1.2517855171E+02	0.000E+00	0.0
	-5	1	9	9	0	501	-1.6397336261E+01	-1.3372621931E+02	-2.8030114068E+02	3.1102697027E+02	4.1800000000E+00	0.000E+00	0.0
	5	1	9	9	501	0	-3.9351682706E+00	2.6119006485E+01	-2.4846395505E+01	3.6503476802E+01	4.1800000000E+00	0.000E+00	0.0
</event>
<event>
    11  -1  1.0000000E+00  1.0000000E+00  -1.0000000E+00  -1.0000000E+00
	2212	-1	0	0	0	0	0.0000000000E+00	0.0000000000E+00	6.5000000000E+03	6.5000000000E+03	9.3827000000E-01	0.000E+00	0.0
	2212	-1	0	0	0	0	0.0000000000E+00	0.0000000000E+00	-6.5000000000E+03	6.5000000000E+03	9.3827000000E-01	0.000E+00	0.0
	2212	1	0	0	0	0	0.0000000000E+00	0.0000000000E+00	5.3216799161E+03	5.3216799161E+03	9.3827000000E-01	0.000E+00	0.0
	2212	1	0	0	0	0	0.0000000000E+00	0.0000000000E+00	-6.2666242978E+03	6.2666242978E+03	9.3827000000E-01	0.000E+00	0.0
	51	2	1	2	0	0	-1.0922031185E+02	1.0385372266E+00	9.6225248644E+02	1.4275241191E+03	1.0487922138E+03	0.000E+00	0.0
	1000022	2	5	5	0	0	1.0922031185E+02	-1.0385372266E+00	7.8288148217E+02	1.1796116206E+03	8.7558552135E+02	0.000E+00	0.0
	14	1	6	6	0	0	2.2305050724E+02	2.3591879971E+02	3.4719407879E+02	5.7582804480E+02	3.2500000000E+02	0.000E+00	0.0
	-14	1	6	6	0	0	-1.1383019540E+02	-2.3695733693E+02	4.3568740338E+02	6.0378357577E+02	3.2500000000E+02	0.000E+00	0.0
	25	2	5	5	0	0	-1.0922031185E+02	1.0385372266E+00	1.6206289955E+02	2.3208416545E+02	1.2517396440E+02	0.000E+00	0.0
	-5	1	9	9	0	501	-5.3617545044E+01	-4.4941159292E+01	1.3992717411E+02	1.5649803638E+02	4.1800000000E+00	0.000E+00	0.0
	5	1	9	9	501	0	-5.5602766802E+01	4.5979696518E+01	2.2135725435E+01	7.5586129074E+01	4.1800000000E+00	0.000E+00	0.0
</event>
<event>
    11  -1  1.0000000E+00  1.0000000E+00  -1.0000000E+00  -1.0000000E+00
	2212	-1	0	0	0	0	0.0000000000E+00	0.0000000000E+00	6.5000000000E+03	6.5000000000E+03	9.3827000000E-01	0.000E+00	0.0
	2212	-1	0	0	0	0	0.0000000000E+00	0.0000000000E+00	-6.5000000000E+03	6.5000000000E+03	9.3827000000E-01	0.000E+00	0.0
	2212	1	0	0	0	0	0.0000000000E+00	0.0000000000E+00	5.6720448099E+03	5.6720448099E+03	9.3827000000E-01	0.000E+00	0.0
	2212	1	0	0	0	0	0.0000000000E+00	0.0000000000E+00	-6.1639919839E+03	6.1639919839E+03	9.3827000000E-01	0.000E+00	0.0
	51	2	1	2	0	0	1.0976409997E+02	8.8272159879E+01	4.4602339245E+02	1.1539390460E+03	1.0548925648E+03	0.000E+00	0.0
	1000022	2	5	5	0	0	-1.0976409997E+02	-8.8272159879E+01	4.5224134782E+02	9.7138489573E+02	8.4807207660E+02	0.000E+00	0.0
	14	1	6	6	0	0	2.1810929068E+02	-5.5060013245E+01	2.3775115039E+02	4.6125250921E+02	3.2500000000E+02	0.000E+00	0.0
	-14	1	6	6	0	0	-3.2787339065E+02	-3.3212146635E+01	2.1449019743E+02	5.1013238652E+02	3.2500000000E+02	0.000E+00	0.0
	25	2	5	5	0	0	1.0976409997E+02	8.8272159879E+01	3.9705826255E+01	1.9257831048E+02	1.2517875688E+02	0.000E+00	0.0
	-5	1	9	9	0	501	3.3964762175E+01	-1.1724506693E+01	5.5284249599E+01	6.6067312496E+01	4.1800000000E+00	0.000E+00	0.0
	5	1	9	9	501	0	7.5799337799E+01	9.9996666572E+01	-1.5578423344E+01	1.2651099798E+02	4.1800000000E+00	0.000E+00	0.0
</event>
<event>
    11  -1  1.0000000E+00  1.0000000E+00  -1.0000000E+00  -1.0000000E+00
	2212	-1	0	0	0	0	0.0000000000E+00	0.0000000000E+00	6.5000000000E+03	6.5000000000E+03	9.3827000000E-01	0.000E+00	0.0
	2212	-1	0	0	0	0	0.0000000000E+00	0.0000000000E+00	-6.5000000000E+03	6.5000000000E+03	9.3827000000E-01	0.000E+00	0.0
	2212	1	0	0	0	0	0.0000000000E+00	0.0000000000E+00	5.5737782046E+03	5.5737782046E+03	9.3827000000E-01	0.000E+00	0.0
	2212	1	0	0	0	0	0.0000000000E+00	0.0000000000E+00	-6.2054421827E+03	6.2054421827E+03	9.3827000000E-01	0.000E+00	0.0
	51	2	1	2	0	0	9.6363478790E+01	-7.6609136480E+00	7.4736022393E+02	1.2880975877E+03	1.0446547188E+03	0.000E+00	0.0
	1000022	2	5	5	0	0	-9.6363478790E+01	7.6609136480E+00	4.0982826694E+02	9.4833217031E+02	8.4972353575E+02	0.000E+00	0.0
	14	1	6	6	0	0	-1.9277816413E+02	2.6917514215E+01	4.6982088315E+02	6.0352683071E+02	3.2500000000E+02	0.000E+00	0.0
	-14	1	6	6	0	0	9.6414685342E+01	-1.9256600567E+01	-5.9992616216E+01	3.4480533960E+02	3.2500000000E+02	0.000E+00	0.0
	25	2	5	5	0	0	9.6363478790E+01	-7.6609136480E+00	2.2183571116E+02	2.7244744239E+02	1.2518752524E+02	0.000E+00	0.0
	-5	1	9	9	0	501	1.0021733004E+02	-3.5081303370E+00	2.3609611226E+02	2.5654369383E+02	4.1800000000E+00	0.000E+00	0.0
	5	1	9	9	501	0	-3.8538512520E+00	-4.1527833109E+00	-1.4260401099E+01	1.5903748559E+01	4.1800000000E+00	0.000E+00	0.0
</event>
<event>
    11  -1  1.0000000E+00  1.0000000E+00  -1.0000000E+00  -1.0000000E+00
	2212	-1	0	0	0	0	0.0000000000E+00	0.0000000000E+00	6.5000000000E+03	6.5000000000E+03	9.3827000000E-01	0.000E+00	0.0
	2212	-1	0	0	0	0	0.0000000000E+00	0.0000000000E+00	-6.5000000000E+03	6.5000000000E+03	9.3827000000E-01	0.000E+00	0.0
	2212	1	0	0	0	0	0.0000000000E+00	0.0000000000E+00	5.9981846638E+03	5.9981846638E+03	9.3827000000E-01	0.000E+00	0.0
	2212	1	0	0	0	0	0.0000000000E+00	0.0000000000E+00	-5.9465841479E+03	5.9465841479E+03	9.3827000000E-01	0.000E+00	0.0
	51	2	1	2	0	0	-7.1839322294E+01	-1.7232453064E+01	-1.8814744805E+02	1.0731763860E+03	1.0539688077E+03	0.000E+00	0.0
	1000022	2	5	5	0	0	7.1839322294E+01	1.7232453064E+01	9.4134095166E+01	8.4939784526E+02	8.4092664721E+02	0.000E+00	0.0
	14	1	6	6	0	0	1.1995401862E+01	2.7392747510E+02	3.2745125308E+01	4.2647086010E+02	3.2500000000E+02	0.000E+00	0.0
	-14	1	6	6	0	0	5.9843920432E+01	-2.5669502204E+02	6.1388969858E+01	4.2292698516E+02	3.2500000000E+02	0.000E+00	0.0
	25	2	5	5	0	0	-7.1839322294E+01	-1.7232453064E+01	-1.4573461101E+02	2.0583334307E+02	1.2518363554E+02	0.000E+00	0.0
	-5	1	9	9	0	501	3.4750432151E+01	-7.2676430631E+00	-5.4158748919E+01	6.4892631745E+01	4.1800000000E+00	0.000E+00	0.0
	5	1	9	9	501	0	-1.0658975445E+02	-9.9648100013E+00	-9.1575862089E+01	1.4094071132E+02	4.1800000000E+00	0.000E+00	0.0
</event>
<event>
    11  -1  1.0000000E+00  1.0000000E+00  -1.0000000E+00  -1.0000000E+00
	2212	-1	0	0	0	0	0.0000000000E+00	0.0000000000E+00	6.5000000000E+03	6.5000000000E+03	9.3827000000E-01	0.000E+00	0.0
	2212	-1	0	0	0	0	0.0000000000E+00	0.0000000000E+00	-6.5000000000E+03	6.5000000000E+03	9.3827000000E-01	0.000E+00	0.0
	2212	1	0	0	0	0	0.0000000000E+00	0.0000000000E+00	6.3043741387E+03	6.3043741387E+03	9.3827000000E-01	0.000E+00	0.0
	2212	1	0	0	0	0	0.0000000000E+00	0.0000000000E+00	-5.0865766805E+03	5.0865766805E+03	9.3827000000E-01	0.000E+00	0.0
	51	2	1	2	0	0	-7.7173716864E+01	1.3036582744E+02	-1.2706624676E+03	1.6563643184E+03	1.0516694429E+03	0.000E+00	0.0
	1000022	2	5	5	0	0	7.7173716864E+01	-1.3036582744E+02	-9.4830398721E+02	1.2755075889E+03	8.3945704210E+02	0.000E+00	0.0
	14	1	6	6	0	0	3.4022404311E+01	-5.1282732993E+01	-7.4757106237E+01	3.3911807329E+02	3.2500000000E+02	0.000E+00	0.0
	-14	1	6	6	0	0	4.3151312553E+01	-7.9083094447E+01	-8.7354688097E+02	9.3638951556E+02	3.2500000000E+02	0.000E+00	0.0
	25	2	5	5	0	0	-7.7173716864E+01	1.3036582744E+02	-2.6949347097E+02	3.3354159195E+02	1.2518878195E+02	0.000E+00	0.0
	-5	1	9	9	0	501	-2.9603947866E+01	8.6273567696E+01	-4.8910133203E+01	1.0358183114E+02	4.1800000000E+00	0.000E+00	0.0
	5	1	9	9	501	0	-4.7569768998E+01	4.4092259744E+01	-2.2058333776E+02	2.2995976081E+02	4.1800000000E+00	0.000E+00	0.0
</event>
<event>
    11  -1  1.0000000E+00  1.0000000E+00  -1.0000000E+00  -1.0000000E+00
	2212	-1	0	0	0	0	0.0000000000E+00	0.0000000000E+00	6.5000000000E+03	6.5000000000E+03	9.3827000000E-01	0.000E+00	0.0
	2212	-1	0	0	0	0	0.0000000000E+00	0.0000000000E+00	-6.5000000000E+03	6.5000000000E+03	9.3827000000E-01	0.000E+00	0.0
	2212	1	0	0	0	0	0.0000000000E+00	0.0000000000E+00	4.9758561236E+03	4.9758561236E+03	9.3827000000E-01	0.000E+00	0.0
	2212	1	0	0	0	0	0.0000000000E+00	0.0000000000E+00	-6.3150657398E+03	6.3150657398E+03	9.3827000000E-01	0.000E+00	0.0
	51	2	1	2	0	0	1.1417410256E+02	1.0668205605E+02	1.4028825051E+03	1.7663413574E+03	1.0618218687E+03	0.000E+00	0.0
	1000022	2	5	5	0	0	-1.1417410256E+02	-1.0668205605E+02	1.0351431600E+03	1.3450284464E+03	8.4449000766E+02	0.000E+00	0.0
	14	1	6	6	0	0	-3.7936424239E+01	2.1739072595E+02	4.4630071092E+02	5.9456473540E+02	3.2500000000E+02	0.000E+00	0.0
	-14	1	6	6	0	0	-7.6237678321E+01	-3.2407278199E+02	5.8884244908E+02	7.5046371095E+02	3.2500000000E+02	0.000E+00	0.0
	25	2	5	5	0	0	1.1417410256E+02	1.0668205605E+02	3.0406645619E+02	3.6404969021E+02	1.2513584772E+02	0.000E+00	0.0
	-5	1	9	9	0	501	3.2178785757E+01	-9.8955126720E+00	1.5139259707E+02	1.5514698280E+02	4.1800000000E+00	0.000E+00	0.0
	5	1	9	9	501	0	8.1995316804E+01	1.1657756872E+02	1.5267385912E+02	2.0890270741E+02	4.1800000000E+00	0.000E+00	0.0
</event>
<event>
    11  -1  1.0000000E+00  1.0000000E+00  -1.0000000E+00  -1.0000000E+00
	2212	-1	0	0	0	0	0.0000000000E+00	0.0000000000E+00	6.5000000000E+03	6.5000000000E+03	9.3827000000E-01	0.000E+00	0.0
	2212	-1	0	0	0	0	0.0000000000E+00	0.0000000000E+00	-6.5000000000E+03	6.5000000000E+03	9.3827000000E-01	0.000E+00	0.0
	2212	1	0	0	0	0	0.0000000000E+00	0.0000000000E+00	6.0985715471E+03	6.0985715471E+03	9.3827000000E-01	0.000E+00	0.0
	2212	1	0	0	0	0	0.0000000000E+00	0.0000000000E+00	-5.8153790913E+03	5.8153790913E+03	9.3827000000E-01	0.000E+00	0.0
	51	2	1	2	0	0	-1.6304563034E+01	8.4067978263E+01	-1.8177599567E+02	1.0675584411E+03	1.0484775863E+03	0.000E+00	0.0
	1000022	2	5	5	0	0	1.6304563034E+01	-8.4067978263E+01	-3.3776449937E+02	9.2489090376E+02	8.5674095448E+02	0.000E+00	0.0
	14	1	6	6	0	0	-3.1381553532E+01	-2.6446493322E+02	3.0447753821E-01	4.2018043209E+02	3.2500000000E+02	0.000E+00	0.0
	-14	1	6	6	0	0	4.7686116567E+01	1.8039695495E+02	-3.3806897691E+02	5.0471047167E+02	3.2500000000E+02	0.000E+00	0.0
	25	2	5	5	0	0	-1.6304563034E+01	8.4067978263E+01	5.4572043602E+01	1.6115845786E+02	1.2514262604E+02	0.000E+00	0.0
	-5	1	9	9	0	501	-7.8347500194E+00	-2.8301888694E+01	-9.8903546185E+00	3.1267742579E+01	4.1800000000E+00	0.000E+00	0.0
	5	1	9	9	501	0	-8.4698130149E+00	1.1236986696E+02	6.4462398220E+01	1.2989071528E+02	4.1800000000E+00	0.000E+00	0.0
</event>
<event>
    11  -1  1.0000000E+00  1.0000000E+00  -1.0000000E+00  -1.0000000E+00
	2212	-1	0	0	0	0	0.0000000000E+00	0.0000000000E+00	6.5000000000E+03	6.5000000000E+03	9.3827000000E-01	0.000E+00	0.0
	2212	-1	0	0	0	0	0.0000000000E+00	0.0000000000E+00	-6.5000000000E+03	6.5000000000E+03	9.3827000000E-01	0.000E+00	0.0
	2212	1	0	0	0	0	0.0000000000E+00	0.0000000000E+00	5.7856530217E+03	5.7856530217E+03	9.3827000000E-01	0.000E+00	0.0
	2212	1	0	0	0	0	0.0000000000E+00	0.0000000000E+00	-6.1302349833E+03	6.1302349833E+03	9.3827000000E-01	0.000E+00	0.0
	51	2	1	2	0	0	-7.8159593867E+01	5.5342703619E+01	4.1433048730E+02	1.1123864342E+03	1.0278920611E+03	0.000E+00	0.0
	1000022	2	5	5	0	0	7.8159593867E+01	-5.5342703619E+01	2.1995610714E+02	8.8318437868E+02	8.4997777661E+02	0.000E+00	0.0
	14	1	6	6	0	0	-4.4170295577E+01	-1.8809121168E+02	3.2313503359E+02	4.9736361835E+02	3.2500000000E+02	0.000E+00	0.0
	-14	1	6	6	0	0	1.2232988944E+02	1.3274850806E+02	-1.0317892645E+02	3.8582076034E+02	3.2500000000E+02	0.000E+00	0.0
	25	2	5	5	0	0	-7.8159593867E+01	5.5342703619E+01	1.2462585449E+02	2.0092761629E+02	1.2517414439E+02	0.000E+00	0.0
	-5	1	9	9	0	501	-4.4349052418E+01	5.3847735742E+01	-1.8761349900E+00	6.9910009136E+01	4.1800000000E+00	0.000E+00	0.0
	5	1	9	9	501	0	-3.3810541449E+01	1.4949678770E+00	1.2650198948E+02	1.3101760715E+02	4.1800000000E+00	0.000E+00	0.0
</event>
<event>
    11  -1  1.0000000E+00  1.0000000E+00  -1.0000000E+00  -1.0000000E+00
	2212	-1	0	0	0	0	0.0000000000E+00	0.0000000000E+00	6.5000000000E+03	6.5000000000E+03	9.3827000000E-01	0.000E+00	0.0
	2212	-1	0	0	0	0	0.0000000000E+00	0.0000000000E+00	-6.5000000000E+03	6.5000000000E+03	9.3827000000E-01	0.000E+00	0.0
	2212	1	0	0	0	0	0.0000000000E+00	0.0000000000E+00	5.5139448381E+03	5.5139448381E+03	9.3827000000E-01	0.000E+00	0.0
	2212	1	0	0	0	0	0.0000000000E+00	0.0000000000E+00	-6.2196494079E+03	6.2196494079E+03	9.3827000000E-01	0.000E+00	0.0
	51	2	1	2	0	0	-8.4022862802E+01	4.0343214181E+00	5.7096874497E+02	1.1995190782E+03	1.0515534195E+03	0.000E+00	0.0
	1000022	2	5	5	0	0	8.4022862802E+01	-4.0343214181E+00	7.1880695087E+02	1.1150179568E+03	8.4823669706E+02	0.000E+00	0.0
	14	1	6	6	0	0	2.5855023822E+02	-5.6987577645E+01	5.8365208216E+02	7.1858928652E+02	3.2500000000E+02	0.000E+00	0.0
	-14	1	6	6	0	0	-1.7452737542E+02	5.2953256227E+01	1.3515486871E+02	3.9642867032E+02	3.2500000000E+02	0.000E+00	0.0
	25	2	5	5	0	0	-8.4022862802E+01	4.0343214181E+00	-1.3102381049E+01	1.5138779721E+02	1.2518176997E+02	0.000E+00	0.0
	-5	1	9	9	0	501	-5.0109382475E+01	5.9652610403E+01	-3.0603873806E+01	8.3806047705E+01	4.1800000000E+00	0.000E+00	0.0
	5	1	9	9	501	0	-3.3913480326E+01	-5.5618288984E+01	1.7501492757E+01	6.7581749505E+01	4.1800000000E+00	0.000E+00	0.0
</event>
<event>
    11  -1  1.0000000E+00  1.0000000E+00  -1.0000000E+00  -1.0000000E+00
	2212	-1	0	0	0	0	0.0000000000E+00	0.0000000000E+00	6.5000000000E+03	6.5000000000E+03	9.3827000000E-01	0.000E+00	0.0
	2212	-1	0	0	0	0	0.0000000000E+00	0.0000000000E+00	-6.5000000000E+03	6.5000000000E+03	9.3827000000E-01	0.000E+00	0.0
	2212	1	0	0	0	0	0.0000000000E+00	0.0000000000E+00	6.3067246218E+03	6.3067246218E+03	9.3827000000E-01	0.000E+00	0.0
	2212	1	0	0	0	0	0.0000000000E+00	0.0000000000E+00	-5.0314372320E+03	5.0314372320E+03	9.3827000000E-01	0.000E+00	0.0
	51	2	1	2	0	0	-9.0365519166E+01	1.4940174662E+01	-1.4787580493E+03	1.8249555068E+03	1.0655271454E+03	0.000E+00	0.0
	1000022	2	5	5	0	0	9.0365519166E+01	-1.4940174662E+01	-8.4853378892E+02	1.2077588328E+03	8.5456577946E+02	0.000E+00	0.0
	14	1	6	6	0	0	-9.0012231064E+01	-1.7622222968E+02	-6.5781245136E+02	7.5993335046E+02	3.2500000000E+02	0.000E+00	0.0
	-14	1	6	6	0	0	1.8037775023E+02	1.6128205501E+02	-1.9072133756E+02	4.4782548236E+02	3.2500000000E+02	0.000E+00	0.0
	25	2	5	5	0	0	-9.0365519166E+01	1.4940174662E+01	-4.2675360083E+02	4.5407931335E+02	1.2522080946E+02	0.000E+00	0.0
	-5	1	9	9	0	501	-1.0194360203E+02	-1.4701788251E+01	-1.9938030077E+02	2.2445181512E+02	4.1800000000E+00	0.000E+00	0.0
	5	1	9	9	501	0	1.1578082865E+01	2.9641962913E+01	-2.2737330006E+02	2.2962749824E+02	4.1800000000E+00	0.000E+00	0.0
</event>
<event>
    11  -1  1.0000000E+00  1.0000000E+00  -1.0000000E+00  -1.0000000E+00
	2212	-1	0	0	0	0	0.0000000000E+00	0.0000000000E+00	6.5000000000E+03	6.5000000000E+03	9.3827000000E-01	0.000E+00	0.0
	2212	-1	0	0	0	0	0.0000000000E+00	0.0000000000E+00	-6.5000000000E+03	6.5000000000E+03	9.3827000000E-01	0.000E+00	0.0
	2212	1	0	0	0	0	0.0000000000E+00	0.0000000000E+00	5.8057534004E+03	5.8057534004E+03	9.3827000000E-01	0.000E+00	0.0
	2212	1	0	0	0	0	0.0000000000E+00	0.0000000000E+00	-6.1029555703E+03	6.1029555703E+03	9.3827000000E-01	0.000E+00	0.0
	51	2	1	2	0	0	1.5589996909E+02	-2.7339749265E+01	1.9615052381E+02	1.0798677100E+03	1.0500414186E+03	0.000E+00	0.0
	1000022	2	5	5	0	0	-1.5589996909E+02	2.7339749265E+01	3.3901834520E+02	8.8520874322E+02	8.0225234088E+02	0.000E+00	0.0
	14	1	6	6	0	0	-7.8162885928E+01	6.4291354296E+01	-7.8326220339E+01	3.4928900894E+02	3.2500000000E+02	0.000E+00	0.0
	-14	1	6	6	0	0	-7.7737083157E+01	-3.6951605031E+01	4.1734456554E+02	5.3591973428E+02	3.2500000000E+02	0.000E+00	0.0
	25	2	5	5	0	0	1.5589996909E+02	-2.7339749265E+01	-4.1816175303E+01	2.0608228606E+02	1.2517609141E+02	0.000E+00	0.0
	-5	1	9	9	0	501	-1.4297959819E+01	4.1266592646E-01	-2.9617316902E+01	3.3155087221E+01	4.1800000000E+00	0.000E+00	0.0
	5	1	9	9	501	0	1.7019792890E+02	-2.7752415191E+01	-1.2198858401E+01	1.7292719884E+02	4.1800000000E+00	0.000E+00	0.0
</event>
<event>
    11  -1  1.0000000E+00  1.0000000E+00  -1.0000000E+00  -1.0000000E+00
	2212	-1	0	0	0	0	0.0000000000E+00	0.0000000000E+00	6.5000000000E+03	6.5000000000E+03	9.3827000000E-01	0.000E+00	0.0
	2212	-1	0	0	0	0	0.0000000000E+00	0.0000000000E+00	-6.5000000000E+03	6.5000000000E+03	9.3827000000E-01	0.000E+00	0.0
	2212	1	0	0	0	0	0.0000000000E+00	0.0000000000E+00	6.2263263205E+03	6.2263263205E+03	9.3827000000E-01	0.000E+00	0.0
	2212	1	0	0	0	0	0.0000000000E+00	0.0000000000E+00	-5.4940997103E+03	5.4940997103E+03	9.3827000000E-01	0.000E+00	0.0
	51	2	1	2	0	0	-8.9601808124E+01	-9.6018257522E+01	-7.8865815521E+02	1.3192359189E+03	1.0493587252E+03	0.000E+00	0.0
	1000022	2	5	5	0	0	8.9601808124E+01	9.6018257522E+01	-5.5226104147E+02	1.0240349689E+03	8.5229535365E+02	0.000E+00	0.0
	14	1	6	6	0	0	-2.2581195996E+02	6.4863770254E+01	-1.9267761509E+02	4.4491348969E+02	3.2500000000E+02	0.000E+00	0.0
	-14	1	6	6	0	0	3.1541376809E+02	3.1154487268E+01	-3.5958342639E+02	5.7912147923E+02	3.2500000000E+02	0.000E+00	0.0
	25	2	5	5	0	0	-8.9601808124E+01	-9.6018257522E+01	-1.7996556871E+02	2.5553900030E+02	1.2515823968E+02	0.000E+00	0.0
	-5	1	9	9	0	501	-2.6113180224E+01	1.4355961191E+01	-1.0160967699E+02	1.0597165027E+02	4.1800000000E+00	0.000E+00	0.0
	5	1	9	9	501	0	-6.3488627900E+01	-1.1037421871E+02	-7.8355891722E+01	1.4956735004E+02	4.1800000000E+00	0.000E+00	0.0
</event>
<event>
    11  -1  1.0000000E+00  1.0000000E+00  -1.0000000E+00  -1.0000000E+00
	2212	-1	0	0	0	0	0.0000000000E+00	0.0000000000E+00	6.5000000000E+03	6.5000000000E+03	9.3827000000E-01	0.000E+00	0.0
	2212	-1	0	0	0	0	0.0000000000E+00	0.0000000000E+00	-6.5000000000E+03	6.5000000000E+03	9.3827000000E-01	0.000E+00	0.0
	2212	1	0	0	0	0	0.0000000000E+00	0.0000000000E+00	5.6823456833E+03	5.6823456833E+03	9.3827000000E-01	0.000E+00	0.0
	2212	1	0	0	0	0	0.0000000000E+00	0.0000000000E+00	-6.1654576609E+03	6.1654576609E+03	9.3827000000E-01	0.000E+00	0.0
	51	2	1	2	0	0	1.4567382802E+02	1.8510817479E-01	5.2486440709E+02	1.1793487589E+03	1.0460210088E+03	0.000E+00	0.0
	1000022	2	5	5	0	0	-1.4567382802E+02	-1.8510817479E-01	3.5622364442E+02	9.2199990053E+02	8.3783508717E+02	0.000E+00	0.0
	14	1	6	6	0	0	1.1521447704E+02	-6.7868860189E+01	3.5535136376E+02	4.9978010127E+02	3.2500000000E+02	0.000E+00	0.0
	-14	1	6	6	0	0	-2.6088830506E+02	6.7683752014E+01	8.7228065644E-01	4.2221979925E+02	3.2500000000E+02	0.000E+00	0.0
	25	2	5	5	0	0	1.4567382802E+02	1.8510817479E-01	1.2688833316E+02	2.3019675529E+02	1.2517587075E+02	0.000E+00	0.0
	-5	1	9	9	0	501	1.4950472663E+02	2.2951334674E+01	6.6257041223E+01	1.6518442711E+02	4.1800000000E+00	0.000E+00	0.0
	5	1	9	9	501	0	-3.8308986066E+00	-2.2766226500E+01	6.0631291939E+01	6.5012328180E+01	4.1800000000E+00	0.000E+00	0.0
</event>
<event>
    11  -1  1.0000000E+00  1.0000000E+00  -1.0000000E+00  -1.0000000E+00
	2212	-1	0	0	0	0	0.0000000000E+00	0.0000000000E+00	6.5000000000E+03	6.5000000000E+03	9.3827000000E-01	0.000E+00	0.0
	2212	-1	0	0	0	0	0.0000000000E+00	0.0000000000E+00	-6.5000000000E+03	6.5000000000E+03	9.3827000000E-01	0.000E+00	0.0
	2212	1	0	0	0	0	0.0000000000E+00	0.0000000000E+00	5.0139095404E+03	5.0139095404E+03	9.3827000000E-01	0.000E+00	0.0
	2212	1	0	0	0	0	0.0000000000E+00	0.0000000000E+00	-6.3154230335E+03	6.3154230335E+03	9.3827000000E-01	0.000E+00	0.0
	51	2	1	2	0	0	2.9207598871E+01	-6.6493599142E+01	1.4290430819E+03	1.7733107140E+03	1.0474694630E+03	0.000E+00	0.0
	1000022	2	5	5	0	0	-2.9207598871E+01	6.6493599142E+01	9.7747882238E+02	1.3157834652E+03	8.7780794972E+02	0.000E+00	0.0
	14	1	6	6	0	0	8.5552630093E+00	-1.4439136740E+02	8.2372662592E+02	8.9725838740E+02	3.2500000000E+02	0.000E+00	0.0
	-14	1	6	6	0	0	-3.7762861880E+01	2.1088496655E+02	1.5375219646E+02	4.1852507782E+02	3.2500000000E+02	0.000E+00	0.0
	25	2	5	5	0	0	2.9207598871E+01	-6.6493599142E+01	3.2403467068E+02	3.5488396083E+02	1.2517857362E+02	0.000E+00	0.0
	-5	1	9	9	0	501	2.6686033221E+01	-8.7677022304E+01	1.2709561753E+02	1.5674875759E+02	4.1800000000E+00	0.000E+00	0.0
	5	1	9	9	501	0	2.5215656501E+00	2.1183423162E+01	1.9693905315E+02	1.9813520325E+02	4.1800000000E+00	0.000E+00	0.0
</event>
<event>
    11  -1  1.0000000E+00  1.0000000E+00  -1.0000000E+00  -1.0000000E+00
	2212	-1	0	0	0	0	0.0000000000E+00	0.0000000000E+00	6.5000000000E+03	6.5000000000E+03	9.3827000000E-01	0.000E+00	0.0
	2212	-1	0	0	0	0	0.0000000000E+00	0.0000000000E+00	-6.5000000000E+03	6.5000000000E+03	9.3827000000E-01	0.000E+00	0.0
	2212	1	0	0	0	0	0.0000000000E+00	0.0000000000E+00	5.7826167094E+03	5.7826167094E+03	9.3827000000E-01	0.000E+00	0.0
	2212	1	0	0	0	0	0.0000000000E+00	0.0000000000E+00	-6.1108711707E+03	6.1108711707E+03	9.3827000000E-01	0.000E+00	0.0
	51	2	1	2	0	0	8.6684921928E+01	1.1723353080E+02	3.6876872774E+02	1.1286569147E+03	1.0567015094E+03	0.000E+00	0.0
	1000022	2	5	5	0	0	-8.6684921928E+01	-1.1723353080E+02	2.3032539282E+02	8.9082791646E+02	8.4809587532E+02	0.000E+00	0.0
	14	1	6	6	0	0	-1.1728431185E+02	-3.1198833509E+02	4.4305278012E+01	4.6763264289E+02	3.2500000000E+02	0.000E+00	0.0
	-14	1	6	6	0	0	3.0599389923E+01	1.9475480429E+02	1.8602011480E+02	4.2319527357E+02	3.2500000000E+02	0.000E+00	0.0
	25	2	5	5	0	0	8.6684921928E+01	1.1723353080E+02	9.7929068473E+01	2.1568420338E+02	1.2518624806E+02	0.000E+00	0.0
	-5	1	9	9	0	501	7.0126505068E+01	-3.0459773098E+00	4.2380477341E+01	8.2101047195E+01	4.1800000000E+00	0.000E+00	0.0
	5	1	9	9	501	0	1.6558416859E+01	1.2027950811E+02	5.5548591132E+01	1.3358315619E+02	4.1800000000E+00	0.000E+00	0.0
</event>
<event>
    11  -1  1.0000000E+00  1.0000000E+00  -1.0000000E+00  -1.0000000E+00
	2212	-1	0	0	0	0	0.0000000000E+00	0.0000000000E+00	6.5000000000E+03	6.5000000000E+03	9.3827000000E-01	0.000E+00	0.0
	2212	-1	0	0	0	0	0.0000000000E+00	0.0000000000E+00	-6.5000000000E+03	6.5000000000E+03	9.3827000000E-01	0.000E+00	0.0
	2212	1	0	0	0	0	0.0000000000E+00	0.0000000000E+00	6.2452601372E+03	6.2452601372E+03	9.3827000000E-01	0.000E+00	0.0
	2212	1	0	0	0	0	0.0000000000E+00	0.0000000000E+00	-5.4194228231E+03	5.4194228231E+03	9.3827000000E-01	0.000E+00	0.0
	51	2	1	2	0	0	-1.5480417559E+01	-1.3947097615E+02	-8.4654125078E+02	1.3555029373E+03	1.0493161236E+03	0.000E+00	0.0
	1000022	2	5	5	0	0	1.5480417559E+01	1.3947097615E+02	-6.6430551978E+02	1.0874230515E+03	8.4940877835E+02	0.000E+00	0.0
	14	1	6	6	0	0	1.8466133196E+02	-9.1332093486E+01	-1.4487114165E+02	4.1116177656E+02	3.2500000000E+02	0.000E+00	0.0
	-14	1	6	6	0	0	-1.6918091441E+02	2.3080306963E+02	-5.1943437812E+02	6.7626127490E+02	3.2500000000E+02	0.000E+00	0.0
	25	2	5	5	0	0	-1.5480417559E+01	-1.3947097615E+02	-1.6153179435E+02	2.4789398829E+02	1.2516833597E+02	0.000E+00	0.0
	-5	1	9	9	0	501	3.2546717479E+01	-1.3532894163E+02	-1.1260990967E+02	1.7908566502E+02	4.1800000000E+00	0.000E+00	0.0
	5	1	9	9	501	0	-4.8027135038E+01	-4.1420345148E+00	-4.8921884686E+01	6.8808323269E+01	4.1800000000E+00	0.000E+00	0.0
</event>
<event>
    11  -1  1.0000000E+00  1.0000000E+00  -1.0000000E+00  -1.0000000E+00
	2212	-1	0	0	0	0	0.0000000000E+00	0.0000000000E+00	6.5000000000E+03	6.5000000000E+03	9.3827000000E-01	0.000E+00	0.0
	2212	-1	0	0	0	0	0.0000000000E+00	0.0000000000E+00	-6.5000000000E+03	6.5000000000E+03	9.3827000000E-01	0.000E+00	0.0
	2212	1	0	0	0	0	0.0000000000E+00	0.0000000000E+00	6.1572683437E+03	6.1572683437E+03	9.3827000000E-01	0.000E+00	0.0
	2212	1	0	0	0	0	0.0000000000E+00	0.0000000000E+00	-5.6973662360E+03	5.6973662360E+03	9.3827000000E-01	0.000E+00	0.0
	51	2	1	2	0	0	7.8722191532E+01	1.0011580905E+02	-4.8029717443E+02	1.1607143196E+03	1.0489766429E+03	0.000E+00	0.0
	1000022	2	5	5	0	0	-7.8722191532E+01	-1.0011580905E+02	-3.6432616424E+02	9.4278194416E+02	8.6016503162E+02	0.000E+00	0.0
	14	1	6	6	0	0	-1.3292772189E+02	1.4722885689E+01	9.6789704084E+01	3.6452680207E+02	3.2500000000E+02	0.000E+00	0.0
	-14	1	6	6	0	0	5.4205530359E+01	-1.1483869474E+02	-4.6111586833E+02	5.7825514209E+02	3.2500000000E+02	0.000E+00	0.0
	25	2	5	5	0	0	7.8722191532E+01	1.0011580905E+02	-9.5575943472E+01	2.0258347610E+02	1.2523955110E+02	0.000E+00	0.0
	-5	1	9	9	0	501	6.4388920966E+01	1.6013814278E+01	-9.6472981510E+01	1.1716178538E+02	4.1800000000E+00	0.000E+00	0.0
	5	1	9	9	501	0	1.4333270566E+01	8.4101994773E+01	8.9703803720E-01	8.5421690730E+01	4.1800000000E+00	0.000E+00	0.0
</event>
<event>
    11  -1  1.0000000E+00  1.0000000E+00  -1.0000000E+00  -1.0000000E+00
	2212	-1	0	0	0	0	0.0000000000E+00	0.0000000000E+00	6.5000000000E+03	6.5000000000E+03	9.3827000000E-01	0.000E+00	0.0
	2212	-1	0	0	0	0	0.0000000000E+00	0.0000000000E+00	-6.5000000000E+03	6.5000000000E+03	9.3827000000E-01	0.000E+00	0.0
	2212	1	0	0	0	0	0.0000000000E+00	0.0000000000E+00	5.9100199717E+03	5.9100199717E+03	9.3827000000E-01	0.000E+00	0.0
	2212	1	0	0	0	0	0.0000000000E+00	0.0000000000E+00	-6.0328011292E+03	6.0328011292E+03	9.3827000000E-01	0.000E+00	0.0
	51	2	1	2	0	0	8.6049063087E+01	-6.3706512305E+01	2.0540118878E+02	1.0752695575E+03	1.0500247673E+03	0.000E+00	0.0
	1000022	2	5	5	0	0	-8.6049063087E+01	6.3706512305E+01	1.9694237073E+01	8.6286280204E+02	8.5596810174E+02	0.000E+00	0.0
	14	1	6	6	0	0	7.9121180865E+01	-3.2075998465E+01	2.5206222777E+02	4.2005880256E+02	3.2500000000E+02	0.000E+00	0.0
	-14	1	6	6	0	0	-1.6517024395E+02	9.5782510770E+01	-2.3236799069E+02	4.4280399948E+02	3.2500000000E+02	0.000E+00	0.0
	25	2	5	5	0	0	8.6049063087E+01	-6.3706512305E+01	1.0308692042E+02	1.9431609699E+02	1.2517536268E+02	0.000E+00	0.0
	-5	1	9	9	0	501	-2.3111498245E+01	4.8601176984E+00	-6.7417433262E+00	2.4913562537E+01	4.1800000000E+00	0.000E+00	0.0
	5	1	9	9	501	0	1.0916056133E+02	-6.8566630003E+01	1.0982866375E+02	1.6940253446E+02	4.1800000000E+00	0.000E+00	0.0
</event>
<event>
    11  -1  1.0000000E+00  1.0000000E+00  -1.0000000E+00  -1.0000000E+00
	2212	-1	0	0	0	0	0.0000000000E+00	0.0000000000E+00	6.5000000000E+03	6.5000000000E+03	9.3827000000E-01	0.000E+00	0.0
	2212	-1	0	0	0	0	0.0000000000E+00	0.0000000000E+00	-6.5000000000E+03	6.5000000000E+03	9.3827000000E-01	0.000E+00	0.0
	2212	1	0	0	0	0	0.0000000000E+00	0.0000000000E+00	5.3614996191E+03	5.3614996191E+03	9.3827000000E-01	0.000E+00	0.0
	2212	1	0	0	0	0	0.0000000000E+00	0.0000000000E+00	-6.2467210408E+03	6.2467210408E+03	9.3827000000E-01	0.000E+00	0.0
	51	2	1	2	0	0	5.1944259896E+01	-1.6164080801E+01	1.0359414902E+03	1.4931734732E+03	1.0739798723E+03	0.000E+00	0.0
	1000022	2	5	5	0	0	-5.1944259896E+01	1.6164080801E+01	5.9501598781E+02	1.0710809234E+03	8.8893803778E+02	0.000E+00	0.0
	14	1	6	6	0	0	-1.4317520571E+02	2.8416625147E+02	2.5019254274E+02	5.1910587210E+02	3.2500000000E+02	0.000E+00	0.0
	-14	1	6	6	0	0	9.1230945817E+01	-2.6800217067E+02	3.4482344507E+02	5.5197505127E+02	3.2500000000E+02	0.000E+00	0.0
	25	2	5	5	0	0	5.1944259896E+01	-1.6164080801E+01	2.9020543391E+02	3.2069841676E+02	1.2517506539E+02	0.000E+00	0.0
	-5	1	9	9	0	501	3.7605699306E+01	5.2213783286E+00	1.0272899712E+01	3.9553208219E+01	4.1800000000E+00	0.000E+00	0.0
	5	1	9	9	501	0	1.4338560591E+01	-2.1385459130E+01	2.7993253420E+02	2.8114520854E+02	4.1800000000E+00	0.000E+00	0.0
</event>
<event>
    11  -1  1.0000000E+00  1.0000000E+00  -1.0000000E+00  -1.0000000E+00
	2212	-1	0	0	0	0	0.0000000000E+00	0.0000000000E+00	6.5000000000E+03	6.5000000000E+03	9.3827000000E-01	0.000E+00	0.0
	2212	-1	0	0	0	0	0.0000000000E+00	0.0000000000E+00	-6.5000000000E+03	6.5000000000E+03	9.3827000000E-01	0.000E+00	0.0
	2212	1	0	0	0	0	0.0000000000E+00	0.0000000000E+00	5.4822128891E+03	5.4822128891E+03	9.3827000000E-01	0.000E+00	0.0
	2212	1	0	0	0	0	0.0000000000E+00	0.0000000000E+00	-6.2115666746E+03	6.2115666746E+03	9.3827000000E-01	0.000E+00	0.0
	51	2	1	2	0	0	-5.2877338542E+00	-3.2285596766E+01	9.1545829542E+02	1.4189394258E+03	1.0836304184E+03	0.000E+00	0.0
	1000022	2	5	5	0	0	5.2877338542E+00	3.2285596766E+01	4.1784294204E+02	9.6890767749E+02	8.7356685114E+02	0.000E+00	0.0
	14	1	6	6	0	0	-1.3398622414E+02	2.6859017601E+02	1.5402572817E+02	4.6844627850E+02	3.2500000000E+02	0.000E+00	0.0
	-14	1	6	6	0	0	1.3927395799E+02	-2.3630457924E+02	2.6381721387E+02	5.0046139899E+02	3.2500000000E+02	0.000E+00	0.0
	25	2	5	5	0	0	-5.2877338542E+00	-3.2285596766E+01	3.1151084347E+02	3.3731275874E+02	1.2518215417E+02	0.000E+00	0.0
	-5	1	9	9	0	501	2.6648288180E+01	-2.3137970896E+01	1.4438220714E+01	3.8359243703E+01	4.1800000000E+00	0.000E+00	0.0
	5	1	9	9	501	0	-3.1936022034E+01	-9.1476258702E+00	2.9707262276E+02	2.9895351504E+02	4.1800000000E+00	0.000E+00	0.0
</event>
<event>
    11  -1  1.0000000E+00  1.0000000E+00  -1.0000000E+00  -1.0000000E+00
	2212	-1	0	0	0	0	0.0000000000E+00	0.0000000000E+00	6.5000000000E+03	6.5000000000E+03	9.3827000000E-01	0.000E+00	0.0
	2212	-1	0	0	0	0	0.0000000000E+00	0.0000000000E+00	-6.5000000000E+03	6.5000000000E+03	9.3827000000E-01	0.000E+00	0.0
	2212	1	0	0	0	0	0.0000000000E+00	0.0000000000E+00	5.8063091923E+03	5.8063091923E+03	9.3827000000E-01	0.000E+00	0.0
	2212	1	0	0	0	0	0.0000000000E+00	0.0000000000E+00	-6.1033570458E+03	6.1033570458E+03	9.3827000000E-01	0.000E+00	0.0
	51	2	1	2	0	0	-5.4324688256E+01	1.1597155806E+02	3.6766711298E+02	1.1190040058E+03	1.0490902178E+03	0.000E+00	0.0
	1000022	2	5	5	0	0	5.4324688256E+01	-1.1597155806E+02	1.7523352974E+02	8.7374865406E+02	8.4636242030E+02	0.000E+00	0.0
	14	1	6	6	0	0	-1.5824550113E+02	-1.9018944694E+02	2.3903499314E+02	4.7326144181E+02	3.2500000000E+02	0.000E+00	0.0
	-14	1	6	6	0	0	2.1257018939E+02	7.4217888879E+01	-6.3801463397E+01	4.0048721225E+02	3.2500000000E+02	0.000E+00	0.0
	25	2	5	5	0	0	-5.4324688256E+01	1.1597155806E+02	1.2181432373E+02	2.1658510785E+02	1.2517909347E+02	0.000E+00	0.0
	-5	1	9	9	0	501	-7.7065848850E+00	1.2339323370E+02	1.1463724063E+02	1.6865482772E+02	4.1800000000E+00	0.000E+00	0.0
	5	1	9	9	501	0	-4.6618103371E+01	-7.4216756393E+00	7.1770830954E+00	4.7930280126E+01	4.1800000000E+00	0.000E+00	0.0
</event>
<event>
    11  -1  1.0000000E+00  1.0000000E+00  -1.0000000E+00  -1.0000000E+00
	2212	-1	0	0	0	0	0.0000000000E+00	0.0000000000E+00	6.5000000000E+03	6.5000000000E+03	9.3827000000E-01	0.000E+00	0.0
	2212	-1	0	0	0	0	0.0000000000E+00	0.0000000000E+00	-6.5000000000E+03	6.5000000000E+03	9.3827000000E-01	0.000E+00	0.0
	2212	1	0	0	0	0	0.0000000000E+00	0.0000000000E+00	6.2054652770E+03	6.2054652770E+03	9.3827000000E-01	0.000E+00	0.0
	2212	1	0	0	0	0	0.0000000000E+00	0.0000000000E+00	-5.5824898679E+03	5.5824898679E+03	9.3827000000E-01	0.000E+00	0.0
	51	2	1	2	0	0	-1.2913416829E+02	-2.2430268990E+01	-6.6931130153E+02	1.2434270140E+03	1.0396895549E+03	0.000E+00	0.0
	1000022	2	5	5	0	0	1.2913416829E+02	2.2430268990E+01	-4.7130187744E+02	9.7572050798E+02	8.4423118849E+02	0.000E+00	0.0
	14	1	6	6	0	0	1.9117138410E+02	-6.9779634826E+01	-5.0106450445E+02	6.3095668088E+02	3.2500000000E+02	0.000E+00	0.0
	-14	1	6	6	0	0	-6.2037215805E+01	9.2209903816E+01	2.9762627006E+01	3.4476382709E+02	3.2500000000E+02	0.000E+00	0.0
	25	2	5	5	0	0	-1.2913416829E+02	-2.2430268990E+01	-1.5167353159E+02	2.3632434713E+02	1.2516224060E+02	0.000E+00	0.0
	-5	1	9	9	0	501	-1.0205626075E+02	-2.1622388572E+01	-1.7268068900E+02	2.0178974404E+02	4.1800000000E+00	0.000E+00	0.0
	5	1	9	9	501	0	-2.7077907539E+01	-8.0788041838E-01	2.1007157412E+01	3.4534603081E+01	4.1800000000E+00	0.000E+00	0.0
</event>
<event>
    11  -1  1.0000000E+00  1.0000000E+00  -1.0000000E+00  -1.0000000E+00
	2212	-1	0	0	0	0	0.0000000000E+00	0.0000000000E+00	6.5000000000E+03	6.5000000000E+03	9.3827000000E-01	0.000E+00	0.0
	2212	-1	0	0	0	0	0.0000000000E+00	0.0000000000E+00	-6.5000000000E+03	6.5000000000E+03	9.3827000000E-01	0.000E+00	0.0
	2212	1	0	0	0	0	0.0000000000E+00	0.0000000000E+00	6.2648363874E+03	6.2648363874E+03	9.3827000000E-01	0.000E+00	0.0
	2212	1	0	0	0	0	0.0000000000E+00	0.0000000000E+00	-5.3343523310E+03	5.3343523310E+03	9.3827000000E-01	0.000E+00	0.0
	51	2	1	2	0	0	5.5103946708E+01	1.1791479575E+02	-8.5633147696E+02	1.3589391487E+03	1.0471254306E+03	0.000E+00	0.0
	1000022	2	5	5	0	0	-5.5103946708E+01	-1.1791479575E+02	-8.4375426948E+02	1.2004806251E+03	8.4397400436E+02	0.000E+00	0.0
	14	1	6	6	0	0	5.3798222389E+00	2.0258981123E+02	-4.7754357200E+02	6.1216373403E+02	3.2500000000E+02	0.000E+00	0.0
	-14	1	6	6	0	0	-6.0483768947E+01	-3.2050460698E+02	-3.6621069748E+02	5.8831689110E+02	3.2500000000E+02	0.000E+00	0.0
	25	2	5	5	0	0	5.5103946708E+01	1.1791479575E+02	-8.6729786993E+01	2.0033065650E+02	1.2517975867E+02	0.000E+00	0.0
	-5	1	9	9	0	501	9.3076038589E+01	6.3034953629E+01	-4.2970140223E+01	1.2041785453E+02	4.1800000000E+00	0.000E+00	0.0
	5	1	9	9	501	0	-3.7972091881E+01	5.4879842124E+01	-4.3759646771E+01	7.9912801971E+01	4.1800000000E+00	0.000E+00	0.0
</event>
<event>
    11  -1  1.0000000E+00  1.0000000E+00  -1.0000000E+00  -1.0000000E+00
	2212	-1	0	0	0	0	0.0000000000E+00	0.0000000000E+00	6.5000000000E+03	6.5000000000E+03	9.3827000000E-01	0.000E+00	0.0
	2212	-1	0	0	0	0	0.0000000000E+00	0.0000000000E+00	-6.5000000000E+03	6.5000000000E+03	9.3827000000E-01	0.000E+00	0.0
	2212	1	0	0	0	0	0.0000000000E+00	0.0000000000E+00	5.4626280175E+03	5.4626280175E+03	9.3827000000E-01	0.000E+00	0.0
	2212	1	0	0	0	0	0.0000000000E+00	0.0000000000E+00	-6.2324418531E+03	6.2324418531E+03	9.3827000000E-01	0.000E+00	0.0
	51	2	1	2	0	0	5.3877185127E+01	-1.1173286002E+02	7.2024105840E+02	1.2823273632E+03	1.0536741911E+03	0.000E+00	0.0
	1000022	2	5	5	0	0	-5.3877185127E+01	1.1173286002E+02	6.9254264009E+02	1.1125165967E+03	8.6179515344E+02	0.000E+00	0.0
	14	1	6	6	0	0	1.3052304927E+02	-1.4900555243E+02	1.6332499309E+02	4.1417263842E+02	3.2500000000E+02	0.000E+00	0.0
	-14	1	6	6	0	0	-1.8440023439E+02	2.6073841244E+02	5.2921764699E+02	6.9834395827E+02	3.2500000000E+02	0.000E+00	0.0
	25	2	5	5	0	0	5.3877185127E+01	-1.1173286002E+02	7.7271195534E+01	1.9241353270E+02	1.2516048427E+02	0.000E+00	0.0
	-5	1	9	9	0	501	-2.5138998219E+01	-6.6453261132E+01	7.1778107043E+01	1.0108201718E+02	4.1800000000E+00	0.000E+00	0.0
	5	1	9	9	501	0	7.9016183347E+01	-4.5279598884E+01	5.4930884916E+00	9.1331515519E+01	4.1800000000E+00	0.000E+00	0.0
</event>
<event>
    11  -1  1.0000000E+00  1.0000000E+00  -1.0000000E+00  -1.0000000E+00
	2212	-1	0	0	0	0	0.0000000000E+00	0.0000000000E+00	6.5000000000E+03	6.5000000000E+03	9.3827000000E-01	0.000E+00	0.0
	2212	-1	0	0	0	0	0.0000000000E+00	0.0000000000E+00	-6.5000000000E+03	6.5000000000E+03	9.3827000000E-01	0.000E+00	0.0
	2212	1	0	0	0	0	0.0000000000E+00	0.0000000000E+00	5.3662163126E+03	5.3662163126E+03	9.3827000000E-01	0.000E+00	0.0
	2212	1	0	0	0	0	0.0000000000E+00	0.0000000000E+00	-6.2568252194E+03	6.2568252194E+03	9.3827000000E-01	0.000E+00	0.0
	51	2	1	2	0	0	3.4468006580E+01	-3.4917664609E+01	1.0755122235E+03	1.5039827883E+03	1.0501573205E+03	0.000E+00	0.0
	1000022	2	5	5	0	0	-3.4468006580E+01	3.4917664609E+01	5.5254358572E+02	1.0131324302E+03	8.4777686937E+02	0.000E+00	0.0
	14	1	6	6	0	0	7.6503223737E+01	-1.4555826235E+02	3.4414324574E+01	3.6585420145E+02	3.2500000000E+02	0.000E+00	0.0
	-14	1	6	6	0	0	-1.1097123032E+02	1.8047592696E+02	5.1812926115E+02	6.4727822876E+02	3.2500000000E+02	0.000E+00	0.0
	25	2	5	5	0	0	3.4468006580E+01	-3.4917664609E+01	3.3806532103E+02	3.6382603778E+02	1.2519559779E+02	0.000E+00	0.0
	-5	1	9	9	0	501	-2.9922295339E+01	-3.7990361953E+01	5.4439104922E+01	7.2936272899E+01	4.1800000000E+00	0.000E+00	0.0
	5	1	9	9	501	0	6.4390301918E+01	3.0726973449E+00	2.8362621610E+02	2.9088976488E+02	4.1800000000E+00	0.000E+00	0.0
</event>
<event>
    11  -1  1.0000000E+00  1.0000000E+00  -1.0000000E+00  -1.0000000E+00
	2212	-1	0	0	0	0	0.0000000000E+00	0.0000000000E+00	6.5000000000E+03	6.5000000000E+03	9.3827000000E-01	0.000E+00	0.0
	2212	-1	0	0	0	0	0.0000000000E+00	0.0000000000E+00	-6.5000000000E+03	6.5000000000E+03	9.3827000000E-01	0.000E+00	0.0
	2212	1	0	0	0	0	0.0000000000E+00	0.0000000000E+00	5.6135974299E+03	5.6135974299E+03	9.3827000000E-01	0.000E+00	0.0
	2212	1	0	0	0	0	0.0000000000E+00	0.0000000000E+00	-6.1874612342E+03	6.1874612342E+03	9.3827000000E-01	0.000E+00	0.0
	51	2	1	2	0	0	-3.2312679000E+01	-5.5212108614E+01	7.3446986457E+02	1.2851766918E+03	1.0526826022E+03	0.000E+00	0.0
	1000022	2	5	5	0	0	3.2312679000E+01	5.5212108614E+01	3.1247565363E+02	9.0214763276E+02	8.4388200066E+02	0.000E+00	0.0
	14	1	6	6	0	0	-2.4304812955E+02	-4.4511777821E+01	1.3452355704E+02	4.2985495117E+02	3.2500000000E+02	0.000E+00	0.0
	-14	1	6	6	0	0	2.7536080855E+02	9.9723886435E+01	1.7795209659E+02	4.7229268160E+02	3.2500000000E+02	0.000E+00	0.0
	25	2	5	5	0	0	-3.2312679000E+01	-5.5212108614E+01	2.6138815071E+02	2.9679370316E+02	1.2518087210E+02	0.000E+00	0.0
	-5	1	9	9	0	501	-1.0733948629E+00	2.1227524964E+01	-1.0017462569E+00	2.1684923062E+01	4.1800000000E+00	0.000E+00	0.0
	5	1	9	9	501	0	-3.1239284137E+01	-7.6439633578E+01	2.6238989697E+02	2.7510878010E+02	4.1800000000E+00	0.000E+00	0.0
</event>
<event>
    11  -1  1.0000000E+00  1.0000000E+00  -1.0000000E+00  -1.0000000E+00
	2212	-1	0	0	0	0	0.0000000000E+00	0.0000000000E+00	6.5000000000E+03	6.5000000000E+03	9.3827000000E-01	0.000E+00	0.0
	2212	-1	0	0	0	0	0.0000000000E+00	0.0000000000E+00	-6.5000000000E+03	6.5000000000E+03	9.3827000000E-01	0.000E+00	0.0
	2212	1	0	0	0	0	0.0000000000E+00	0.0000000000E+00	5.9002636674E+03	5.9002636674E+03	9.3827000000E-01	0.000E+00	0.0
	2212	1	0	0	0	0	0.0000000000E+00	0.0000000000E+00	-6.0372036698E+03	6.0372036698E+03	9.3827000000E-01	0.000E+00	0.0
	51	2	1	2	0	0	-2.7009168101E+01	1.1286275636E+02	6.3613495366E+01	1.0619497488E+03	1.0536712463E+03	0.000E+00	0.0
	1000022	2	5	5	0	0	2.7009168101E+01	-1.1286275636E+02	1.8725565987E+02	8.8457184295E+02	8.5670016123E+02	0.000E+00	0.0
	14	1	6	6	0	0	2.7302557082E+02	4.1385344809E+01	1.2434138338E+02	4.4423134593E+02	3.2500000000E+02	0.000E+00	0.0
	-14	1	6	6	0	0	-2.4601640272E+02	-1.5424810117E+02	6.2914276493E+01	4.4034049701E+02	3.2500000000E+02	0.000E+00	0.0
	25	2	5	5	0	0	-2.7009168101E+01	1.1286275636E+02	-5.0315657427E+01	1.7796081986E+02	1.2518342976E+02	0.000E+00	0.0
	-5	1	9	9	0	501	4.4760560828E+00	3.0965327194E+01	-7.9388861978E+01	8.5433894752E+01	4.1800000000E+00	0.000E+00	0.0
	5	1	9	9	501	0	-3.1485224184E+01	8.1897429171E+01	2.9073204551E+01	9.2526925106E+01	4.1800000000E+00	0.000E+00	0.0
</event>
<event>
    11  -1  1.0000000E+00  1.0000000E+00  -1.0000000E+00  -1.0000000E+00
	2212	-1	0	0	0	0	0.0000000000E+00	0.0000000000E+00	6.5000000000E+03	6.5000000000E+03	9.3827000000E-01	0.000E+00	0.0
	2212	-1	0	0	0	0	0.0000000000E+00	0.0000000000E+00	-6.5000000000E+03	6.5000000000E+03	9.3827000000E-01	0.000E+00	0.0
	2212	1	0	0	0	0	0.0000000000E+00	0.0000000000E+00	5.4136788401E+03	5.4136788401E+03	9.3827000000E-01	0.000E+00	0.0
	2212	1	0	0	0	0	0.0000000000E+00	0.0000000000E+00	-6.2446093115E+03	6.2446093115E+03	9.3827000000E-01	0.000E+00	0.0
	51	2	1	2	0	0	-4.5190585737E+01	2.2029277972E+01	1.0094006687E+03	1.4598501376E+03	1.0534444627E+03	0.000E+00	0.0
	1000022	2	5	5	0	0	4.5190585737E+01	-2.2029277972E+01	5.1006063134E+02	9.9363941386E+02	8.5125199501E+02	0.000E+00	0.0
	14	1	6	6	0	0	2.4139228440E+01	2.2385585252E+02	4.1788650865E+02	5.7528104364E+02	3.2500000000E+02	0.000E+00	0.0
	-14	1	6	6	0	0	2.1051357298E+01	-2.4588513050E+02	9.2174122684E+01	4.1835837022E+02	3.2500000000E+02	0.000E+00	0.0
	25	2	5	5	0	0	-4.5190585737E+01	2.2029277972E+01	3.2086984008E+02	3.4807243460E+02	1.2517782281E+02	0.000E+00	0.0
	-5	1	9	9	0	501	-8.4923759650E+00	-4.1889749502E+00	-9.8361221295E+00	1.4278993634E+01	4.1800000000E+00	0.000E+00	0.0
	5	1	9	9	501	0	-3.6698209772E+01	2.6218252922E+01	3.3070596221E+02	3.3379344096E+02	4.1800000000E+00	0.000E+00	0.0
</event>
<event>
    11  -1  1.0000000E+00  1.0000000E+00  -1.0000000E+00  -1.0000000E+00
	2212	-1	0	0	0	0	0.0000000000E+00	0.0000000000E+00	6.5000000000E+03	6.5000000000E+03	9.3827000000E-01	0.000E+00	0.0
	2212	-1	0	0	0	0	0.0000000000E+00	0.0000000000E+00	-6.5000000000E+03	6.5000000000E+03	9.3827000000E-01	0.000E+00	0.0
	2212	1	0	0	0	0	0.0000000000E+00	0.0000000000E+00	6.1155904023E+03	6.1155904023E+03	9.3827000000E-01	0.000E+00	0.0
	2212	1	0	0	0	0	0.0000000000E+00	0.0000000000E+00	-5.7787478654E+03	5.7787478654E+03	9.3827000000E-01	0.000E+00	0.0
	51	2	1	2	0	0	1.1360702962E+02	-2.2510590158E+01	-4.5218261410E+02	1.1519146548E+03	1.0531025456E+03	0.000E+00	0.0
	1000022	2	5	5	0	0	-1.1360702962E+02	2.2510590158E+01	-1.6095636254E+02	8.6067054075E+02	8.3751629550E+02	0.000E+00	0.0
	14	1	6	6	0	0	1.0150790617E+02	1.2868258684E+02	1.0281534204E+02	3.7823148696E+02	3.2500000000E+02	0.000E+00	0.0
	-14	1	6	6	0	0	-2.1511493579E+02	-1.0617199668E+02	-2.6377170458E+02	4.8243905379E+02	3.2500000000E+02	0.000E+00	0.0
	25	2	5	5	0	0	1.1360702962E+02	-2.2510590158E+01	-1.7588617439E+02	2.4499119155E+02	1.2518567708E+02	0.000E+00	0.0
	-5	1	9	9	0	501	1.0054663769E+02	-3.2812072059E+01	-4.8455760197E+01	1.1641173274E+02	4.1800000000E+00	0.000E+00	0.0
	5	1	9	9	501	0	1.3060391930E+01	1.0301481901E+01	-1.2743041419E+02	1.2857945881E+02	4.1800000000E+00	0.000E+00	0.0
</event>
<event>
    11  -1  1.0000000E+00  1.0000000E+00  -1.0000000E+00  -1.0000000E+00
	2212	-1	0	0	0	0	0.0000000000E+00	0.0000000000E+00	6.5000000000E+03	6.5000000000E+03	9.3827000000E-01	0.000E+00	0.0
	2212	-1	0	0	0	0	0.0000000000E+00	0.0000000000E+00	-6.5000000000E+03	6.5000000000E+03	9.3827000000E-01	0.000E+00	0.0
	2212	1	0	0	0	0	0.0000000000E+00	0.0000000000E+00	4.9560557733E+03	4.9560557733E+03	9.3827000000E-01	0.000E+00	0.0
	2212	1	0	0	0	0	0.0000000000E+00	0.0000000000E+00	-6.3226173053E+03	6.3226173053E+03	9.3827000000E-01	0.000E+00	0.0
	51	2	1	2	0	0	1.2161106984E+02	-1.9561780071E+01	1.4310536056E+03	1.7772344491E+03	1.0466498695E+03	0.000E+00	0.0
	1000022	2	5	5	0	0	-1.2161106984E+02	1.9561780071E+01	1.0788480403E+03	1.3842487127E+03	8.5852168811E+02	0.000E+00	0.0
	14	1	6	6	0	0	9.4351990266E+00	-1.6484628052E+02	1.8977424676E+02	4.1097759539E+02	3.2500000000E+02	0.000E+00	0.0
	-14	1	6	6	0	0	-1.3104626887E+02	1.8440806059E+02	8.8907379351E+02	9.7327111727E+02	3.2500000000E+02	0.000E+00	0.0
	25	2	5	5	0	0	1.2161106984E+02	-1.9561780071E+01	2.8771349175E+02	3.3707820870E+02	1.2518286584E+02	0.000E+00	0.0
	-5	1	9	9	0	501	4.9978337775E+01	-5.8657321210E+01	6.8721037277E+01	1.0333716148E+02	4.1800000000E+00	0.000E+00	0.0
	5	1	9	9	501	0	7.1632732067E+01	3.9095541139E+01	2.1899245447E+02	2.3374104722E+02	4.1800000000E+00	0.000E+00	0.0
</event>
<event>
    11  -1  1.0000000E+00  1.0000000E+00  -1.0000000E+00  -1.0000000E+00
	2212	-1	0	0	0	0	0.0000000000E+00	0.0000000000E+00	6.5000000000E+03	6.5000000000E+03	9.3827000000E-01	0.000E+00	0.0
	2212	-1	0	0	0	0	0.0000000000E+00	0.0000000000E+00	-6.5000000000E+03	6.5000000000E+03	9.3827000000E-01	0.000E+00	0.0
	2212	1	0	0	0	0	0.0000000000E+00	0.0000000000E+00	5.4226994864E+03	5.4226994864E+03	9.3827000000E-01	0.000E+00	0.0
	2212	1	0	0	0	0	0.0000000000E+00	0.0000000000E+00	-6.2489654176E+03	6.2489654176E+03	9.3827000000E-01	0.000E+00	0.0
	51	2	1	2	0	0	-1.0058300125E+02	3.8734464218E+01	9.3086280629E+02	1.3999577141E+03	1.0400763137E+03	0.000E+00	0.0
	1000022	2	5	5	0	0	1.0058300125E+02	-3.8734464218E+01	5.8363677373E+02	1.0348067718E+03	8.4768854682E+02	0.000E+00	0.0
	14	1	6	6	0	0	4.8799006556E+01	-2.1298097957E+02	6.6002748511E+01	3.9714431069E+02	3.2500000000E+02	0.000E+00	0.0
	-14	1	6	6	0	0	5.1783994693E+01	1.7424651535E+02	5.1763402522E+02	6.3766246109E+02	3.2500000000E+02	0.000E+00	0.0
	25	2	5	5	0	0	-1.0058300125E+02	3.8734464218E+01	2.4262915740E+02	2.9352832422E+02	1.2519053575E+02	0.000E+00	0.0
	-5	1	9	9	0	501	2.3484719689E+01	3.3250713835E+01	5.8383115752E+01	7.1296582206E+01	4.1800000000E+00	0.000E+00	0.0
	5	1	9	9	501	0	-1.2406772094E+02	5.4837503830E+00	1.8424604164E+02	2.2223174201E+02	4.1800000000E+00	0.000E+00	0.0
</event>
<event>
    11  -1  1.0000000E+00  1.0000000E+00  -1.0000000E+00  -1.0000000E+00
	2212	-1	0	0	0	0	0.0000000000E+00	0.0000000000E+00	6.5000000000E+03	6.5000000000E+03	9.3827000000E-01	0.000E+00	0.0
	2212	-1	0	0	0	0	0.0000000000E+00	0.0000000000E+00	-6.5000000000E+03	6.5000000000E+03	9.3827000000E-01	0.000E+00	0.0
	2212	1	0	0	0	0	0.0000000000E+00	0.0000000000E+00	6.2403114149E+03	6.2403114149E+03	9.3827000000E-01	0.000E+00	0.0
	2212	1	0	0	0	0	0.0000000000E+00	0.0000000000E+00	-5.4629328558E+03	5.4629328558E+03	9.3827000000E-01	0.000E+00	0.0
	51	2	1	2	0	0	-1.9955366594E+01	-7.4278865800E+01	-6.4869514165E+02	1.2263681954E+03	1.0379103995E+03	0.000E+00	0.0
	1000022	2	5	5	0	0	1.9955366594E+01	7.4278865800E+01	-7.7578513907E+02	1.1498267018E+03	8.4518831958E+02	0.000E+00	0.0
	14	1	6	6	0	0	1.8222840705E+02	-1.1817750071E+02	-1.9115203745E+02	4.3512896414E+02	3.2500000000E+02	0.000E+00	0.0
	-14	1	6	6	0	0	-1.6227304046E+02	1.9245636651E+02	-5.8463310162E+02	7.1469773764E+02	3.2500000000E+02	0.000E+00	0.0
	25	2	5	5	0	0	-1.9955366594E+01	-7.4278865800E+01	-1.5934200428E+00	1.4692902757E+02	1.2518000477E+02	0.000E+00	0.0
	-5	1	9	9	0	501	-7.2022467322E+01	-5.4018575749E+01	6.3166656596E+00	9.0347191379E+01	4.1800000000E+00	0.000E+00	0.0
	5	1	9	9	501	0	5.2067100728E+01	-2.0260290051E+01	-7.9100857025E+00	5.6581836193E+01	4.1800000000E+00	0.000E+00	0.0
</event>
<event>
    11  -1  1.0000000E+00  1.0000000E+00  -1.0000000E+00  -1.0000000E+00
	2212	-1	0	0	0	0	0.0000000000E+00	0.0000000000E+00	6.5000000000E+03	6.5000000000E+03	9.3827000000E-01	0.000E+00	0.0
	2212	-1	0	0	0	0	0.0000000000E+00	0.0000000000E+00	-6.5000000000E+03	6.5000000000E+03	9.3827000000E-01	0.000E+00	0.0
	2212	1	0	0	0	0	0.0000000000E+00	0.0000000000E+00	6.2278480801E+03	6.2278480801E+03	9.3827000000E-01	0.000E+00	0.0
	2212	1	0	0	0	0	0.0000000000E+00	0.0000000000E+00	-5.4856043133E+03	5.4856043133E+03	9.3827000000E-01	0.000E+00	0.0
	51	2	1	2	0	0	1.1206470476E+02	8.3143754179E+01	-6.9487606947E+02	1.2675184687E+03	1.0508467703E+03	0.000E+00	0.0
	1000022	2	5	5	0	0	-1.1206470476E+02	-8.3143754179E+01	-6.6069299983E+02	1.0821195070E+03	8.4557436425E+02	0.000E+00	0.0
	14	1	6	6	0	0	-3.0409120403E+02	-9.4128154904E+01	-4.8704143032E+02	6.6645774417E+02	3.2500000000E+02	0.000E+00	0.0
	-14	1	6	6	0	0	1.9202649927E+02	1.0984400724E+01	-1.7365156951E+02	4.1566176282E+02	3.2500000000E+02	0.000E+00	0.0
	25	2	5	5	0	0	1.1206470476E+02	8.3143754179E+01	-8.1550766956E+01	2.0442809959E+02	1.2517563022E+02	0.000E+00	0.0
	-5	1	9	9	0	501	-2.0024773450E+01	4.3647758968E+01	-3.2037568203E+01	5.7879155065E+01	4.1800000000E+00	0.000E+00	0.0
	5	1	9	9	501	0	1.3208947821E+02	3.9495995211E+01	-4.9513198753E+01	1.4654894453E+02	4.1800000000E+00	0.000E+00	0.0
</event>
<event>
    11  -1  1.0000000E+00  1.0000000E+00  -1.0000000E+00  -1.0000000E+00
	2212	-1	0	0	0	0	0.0000000000E+00	0.0000000000E+00	6.5000000000E+03	6.5000000000E+03	9.3827000000E-01	0.000E+00	0.0
	2212	-1	0	0	0	0	0.0000000000E+00	0.0000000000E+00	-6.5000000000E+03	6.5000000000E+03	9.3827000000E-01	0.000E+00	0.0
	2212	1	0	0	0	0	0.0000000000E+00	0.0000000000E+00	6.3345531611E+03	6.3345531611E+03	9.3827000000E-01	0.000E+00	0.0
	2212	1	0	0	0	0	0.0000000000E+00	0.0000000000E+00	-4.9037906318E+03	4.9037906318E+03	9.3827000000E-01	0.000E+00	0.0
	51	2	1	2	0	0	-5.6515191934E+01	8.6164963617E+01	-1.5160602826E+03	1.8345049264E+03	1.0277894612E+03	0.000E+00	0.0
	1000022	2	5	5	0	0	5.6515191934E+01	-8.6164963617E+01	-1.1198249549E+03	1.4109837515E+03	8.5220235244E+02	0.000E+00	0.0
	14	1	6	6	0	0	2.5421864253E+02	-1.6244474284E+01	-8.3207221386E+02	9.2890266995E+02	3.2500000000E+02	0.000E+00	0.0
	-14	1	6	6	0	0	-1.9770345060E+02	-6.9920489333E+01	-2.8775274100E+02	4.8208108152E+02	3.2500000000E+02	0.000E+00	0.0
	25	2	5	5	0	0	-5.6515191934E+01	8.6164963617E+01	-3.1093757451E+02	3.5067245563E+02	1.2518237902E+02	0.000E+00	0.0
	-5	1	9	9	0	501	-9.6717492398E+01	6.0068420302E+01	-2.1298282450E+02	2.4154015067E+02	4.1800000000E+00	0.000E+00	0.0
	5	1	9	9	501	0	4.0202300464E+01	2.6096543315E+01	-9.7954750016E+01	1.0913230496E+02	4.1800000000E+00	0.000E+00	0.0
</event>
<event>
    11  -1  1.0000000E+00  1.0000000E+00  -1.0000000E+00  -1.0000000E+00
	2212	-1	0	0	0	0	0.0000000000E+00	0.0000000000E+00	6.5000000000E+03	6.5000000000E+03	9.3827000000E-01	0.000E+00	0.0
	2212	-1	0	0	0	0	0.0000000000E+00	0.0000000000E+00	-6.5000000000E+03	6.5000000000E+03	9.3827000000E-01	0.000E+00	0.0
	2212	1	0	0	0	0	0.0000000000E+00	0.0000000000E+00	6.2124187245E+03	6.2124187245E+03	9.3827000000E-01	0.000E+00	0.0
	2212	1	0	0	0	0	0.0000000000E+00	0.0000000000E+00	-5.5203721418E+03	5.5203721418E+03	9.3827000000E-01	0.000E+00	0.0
	51	2	1	2	0	0	-8.9441166546E+01	3.5011998041E+01	-6.3369716691E+02	1.2400355549E+03	1.0615509954E+03	0.000E+00	0.0
	1000022	2	5	5	0	0	8.9441166546E+01	-3.5011998041E+01	-6.4576075179E+02	1.1027847136E+03	8.8876409341E+02	0.000E+00	0.0
	14	1	6	6	0	0	-1.4824420984E+02	1.8134958978E+02	-4.5839908912E+02	6.0878464531E+02	3.2500000000E+02	0.000E+00	0.0
	-14	1	6	6	0	0	2.3768537638E+02	-2.1636158783E+02	-1.8736166267E+02	4.9400006829E+02	3.2500000000E+02	0.000E+00	0.0
	25	2	5	5	0	0	-8.9441166546E+01	3.5011998041E+01	-4.6285830909E+01	1.6442442005E+02	1.2516968277E+02	0.000E+00	0.0
	-5	1	9	9	0	501	-5.8439560792E+01	6.3833192917E+01	1.6878455721E+01	8.8273515004E+01	4.1800000000E+00	0.000E+00	0.0
	5	1	9	9	501	0	-3.1001605754E+01	-2.8821194876E+01	-6.3164286631E+01	7.6150905044E+01	4.1800000000E+00	0.000E+00	0.0
</event>
<event>
    11  -1  1.0000000E+00  1.0000000E+00  -1.0000000E+00  -1.0000000E+00
	2212	-1	0	0	0	0	0.0000000000E+00	0.0000000000E+00	6.5000000000E+03	6.5000000000E+03	9.3827000000E-01	0.000E+00	0.0
	2212	-1	0	0	0	0	0.0000000000E+00	0.0000000000E+00	-6.5000000000E+03	6.5000000000E+03	9.3827000000E-01	0.000E+00	0.0
	2212	1	0	0	0	0	0.0000000000E+00	0.0000000000E+00	6.2686585373E+03	6.2686585373E+03	9.3827000000E-01	0.000E+00	0.0
	2212	1	0	0	0	0	0.0000000000E+00	0.0000000000E+00	-5.3207646197E+03	5.3207646197E+03	9.3827000000E-01	0.000E+00	0.0
	51	2	1	2	0	0	5.5373911461E+01	-5.3343681968E+01	-8.2222239723E+02	1.3316101682E+03	1.0446167484E+03	0.000E+00	0.0
	1000022	2	5	5	0	0	-5.5373911461E+01	5.3343681968E+01	-9.2001532450E+02	1.2610430177E+03	8.5900493404E+02	0.000E+00	0.0
	14	1	6	6	0	0	4.6906465689E+01	-2.4482828407E+02	-4.4583833975E+02	6.0542376101E+02	3.2500000000E+02	0.000E+00	0.0
	-14	1	6	6	0	0	-1.0228037715E+02	2.9817196604E+02	-4.7417698475E+02	6.5561925669E+02	3.2500000000E+02	0.000E+00	0.0
	25	2	5	5	0	0	5.5373911461E+01	-5.3343681968E+01	-2.7878593057E+01	1.4953382527E+02	1.2518518471E+02	0.000E+00	0.0
	-5	1	9	9	0	501	5.3995747925E+01	-4.6252566214E+01	-7.3975585555E+01	1.0268739131E+02	4.1800000000E+00	0.000E+00	0.0
	5	1	9	9	501	0	1.3781635360E+00	-7.0911157543E+00	4.6096992498E+01	4.6846433959E+01	4.1800000000E+00	0.000E+00	0.0
</event>
<event>
    11  -1  1.0000000E+00  1.0000000E+00  -1.0000000E+00  -1.0000000E+00
	2212	-1	0	0	0	0	0.0000000000E+00	0.0000000000E+00	6.5000000000E+03	6.5000000000E+03	9.3827000000E-01	0.000E+00	0.0
	2212	-1	0	0	0	0	0.0000000000E+00	0.0000000000E+00	-6.5000000000E+03	6.5000000000E+03	9.3827000000E-01	0.000E+00	0.0
	2212	1	0	0	0	0	0.0000000000E+00	0.0000000000E+00	5.2731640912E+03	5.2731640912E+03	9.3827000000E-01	0.000E+00	0.0
	2212	1	0	0	0	0	0.0000000000E+00	0.0000000000E+00	-6.2746626712E+03	6.2746626712E+03	9.3827000000E-01	0.000E+00	0.0
	51	2	1	2	0	0	1.3922425877E+02	5.9928986489E+01	9.3926877736E+02	1.4181002857E+03	1.0515739187E+03	0.000E+00	0.0
	1000022	2	5	5	0	0	-1.3922425877E+02	-5.9928986489E+01	8.8132768905E+02	1.2217651300E+03	8.3246420922E+02	0.000E+00	0.0
	14	1	6	6	0	0	-7.6316090649E+01	-2.8932837895E+02	4.2305116178E+02	6.1166358568E+02	3.2500000000E+02	0.000E+00	0.0
	-14	1	6	6	0	0	-6.2908168116E+01	2.2939939247E+02	4.5827652727E+02	6.1010154427E+02	3.2500000000E+02	0.000E+00	0.0
	25	2	5	5	0	0	1.3922425877E+02	5.9928986489E+01	1.2017089092E+02	2.3040810769E+02	1.2518776064E+02	0.000E+00	0.0
	-5	1	9	9	0	501	3.0288732370E+01	7.7686972531E+01	3.3287665347E+01	8.9878885584E+01	4.1800000000E+00	0.000E+00	0.0
	5	1	9	9	501	0	1.0893552640E+02	-1.7757986042E+01	8.6883225578E+01	1.4052922211E+02	4.1800000000E+00	0.000E+00	0.0
</event>
<event>
    11  -1  1.0000000E+00  1.0000000E+00  -1.0000000E+00  -1.0000000E+00
	2212	-1	0	0	0	0	0.0000000000E+00	0.0000000000E+00	6.5000000000E+03	6.5000000000E+03	9.3827000000E-01	0.000E+00	0.0
	2212	-1	0	0	0	0	0.0000000000E+00	0.0000000000E+00	-6.5000000000E+03	6.5000000000E+03	9.3827000000E-01	0.000E+00	0.0
	2212	1	0	0	0	0	0.0000000000E+00	0.0000000000E+00	5.7313637516E+03	5.7313637516E+03	9.3827000000E-01	0.000E+00	0.0
	2212	1	0	0	0	0	0.0000000000E+00	0.0000000000E+00	-6.1412063620E+03	6.1412063620E+03	9.3827000000E-01	0.000E+00	0.0
	51	2	1	2	0	0	5.9282515608E+00	1.3070446684E+02	3.7786024374E+02	1.1238435608E+03	1.0502986164E+03	0.000E+00	0.0
	1000022	2	5	5	0	0	-5.9282515608E+00	-1.3070446684E+02	3.7337401937E+02	9.4271549998E+02	8.5567841725E+02	0.000E+00	0.0
	14	1	6	6	0	0	1.7343013327E+02	3.4171666458E+01	-2.8850336393E+01	3.7108362376E+02	3.2500000000E+02	0.000E+00	0.0
	-14	1	6	6	0	0	-1.7935838483E+02	-1.6487613330E+02	4.0222435577E+02	5.7163187622E+02	3.2500000000E+02	0.000E+00	0.0
	25	2	5	5	0	0	5.9282515608E+00	1.3070446684E+02	3.6468590987E+01	1.8471438644E+02	1.2518244530E+02	0.000E+00	0.0
	-5	1	9	9	0	501	-2.1847069699E+01	1.3061593246E+02	6.2428389586E+01	1.4646703552E+02	4.1800000000E+00	0.000E+00	0.0
	5	1	9	9	501	0	2.7775321260E+01	8.8534381696E-02	-2.5959798599E+01	3.8247350924E+01	4.1800000000E+00	0.000E+00	0.0
</event>
<event>
    11  -1  1.0000000E+00  1.0000000E+00  -1.0000000E+00  -1.0000000E+00
	2212	-1	0	0	0	0	0.0000000000E+00	0.0000000000E+00	6.5000000000E+03	6.5000000000E+03	9.3827000000E-01	0.000E+00	0.0
	2212	-1	0	0	0	0	0.0000000000E+00	0.0000000000E+00	-6.5000000000E+03	6.5000000000E+03	9.3827000000E-01	0.000E+00	0.0
	2212	1	0	0	0	0	0.0000000000E+00	0.0000000000E+00	5.9305154997E+03	5.9305154997E+03	9.3827000000E-01	0.000E+00	0.0
	2212	1	0	0	0	0	0.0000000000E+00	0.0000000000E+00	-6.0168096739E+03	6.0168096739E+03	9.3827000000E-01	0.000E+00	0.0
	51	2	1	2	0	0	-3.3794255595E+01	-1.4964695967E+02	3.1843494282E+01	1.0607675890E+03	1.0491318342E+03	0.000E+00	0.0
	1000022	2	5	5	0	0	3.3794255595E+01	1.4964695967E+02	1.2487172864E+02	8.5095092060E+02	8.2764017326E+02	0.000E+00	0.0
	14	1	6	6	0	0	-4.4709769981E+01	-1.0881627269E+02	2.3037941535E+02	4.1537888698E+02	3.2500000000E+02	0.000E+00	0.0
	-14	1	6	6	0	0	7.8504025576E+01	2.5846323236E+02	-1.0550768671E+02	4.3557203361E+02	3.2500000000E+02	0.000E+00	0.0
	25	2	5	5	0	0	-3.3794255595E+01	-1.4964695967E+02	-3.8577554450E+01	2.0172390575E+02	1.2517205037E+02	0.000E+00	0.0
	-5	1	9	9	0	501	-6.6437452428E+01	-2.9092065912E+01	-8.1270446543E+00	7.3101331308E+01	4.1800000000E+00	0.000E+00	0.0
	5	1	9	9	501	0	3.2643196834E+01	-1.2055489376E+02	-3.0450509795E+01	1.2862257444E+02	4.1800000000E+00	0.000E+00	0.0
</event>
<event>
    11  -1  1.0000000E+00  1.0000000E+00  -1.0000000E+00  -1.0000000E+00
	2212	-1	0	0	0	0	0.0000000000E+00	0.0000000000E+00	6.5000000000E+03	6.5000000000E+03	9.3827000000E-01	0.000E+00	0.0
	2212	-1	0	0	0	0	0.0000000000E+00	0.0000000000E+00	-6.5000000000E+03	6.5000000000E+03	9.3827000000E-01	0.000E+00	0.0
	2212	1	0	0	0	0	0.0000000000E+00	0.0000000000E+00	5.4806572770E+03	5.4806572770E+03	9.3827000000E-01	0.000E+00	0.0
	2212	1	0	0	0	0	0.0000000000E+00	0.0000000000E+00	-6.2311694001E+03	6.2311694001E+03	9.3827000000E-01	0.000E+00	0.0
	51	2	1	2	0	0	-1.9266741780E+02	5.2587829184E+01	7.3029119365E+02	1.2920268975E+03	1.0469584818E+03	0.000E+00	0.0
	1000022	2	5	5	0	0	1.9266741780E+02	-5.2587829184E+01	6.1439755099E+02	1.0159866775E+03	7.8412904841E+02	0.000E+00	0.0
	14	1	6	6	0	0	2.2445982283E+02	-1.1933138884E+02	5.3089893592E+02	6.7238446784E+02	3.2500000000E+02	0.000E+00	0.0
	-14	1	6	6	0	0	-3.1792405039E+01	6.6743559657E+01	8.3498615075E+01	3.4360220967E+02	3.2500000000E+02	0.000E+00	0.0
	25	2	5	5	0	0	-1.9266741780E+02	5.2587829184E+01	1.3611457212E+02	2.7218664531E+02	1.2518857570E+02	0.000E+00	0.0
	-5	1	9	9	0	501	-1.9909392752E+02	2.6344311659E+01	1.3960983780E+02	2.4462378041E+02	4.1800000000E+00	0.000E+00	0.0
	5	1	9	9	501	0	6.4265097238E+00	2.6243517525E+01	-3.4952656831E+00	2.7562864900E+01	4.1800000000E+00	0.000E+00	0.0
</event>
<event>
    11  -1  1.0000000E+00  1.0000000E+00  -1.0000000E+00  -1.0000000E+00
	2212	-1	0	0	0	0	0.0000000000E+00	0.0000000000E+00	6.5000000000E+03	6.5000000000E+03	9.3827000000E-01	0.000E+00	0.0
	2212	-1	0	0	0	0	0.0000000000E+00	0.0000000000E+00	-6.5000000000E+03	6.5000000000E+03	9.3827000000E-01	0.000E+00	0.0
	2212	1	0	0	0	0	0.0000000000E+00	0.0000000000E+00	4.8662200978E+03	4.8662200978E+03	9.3827000000E-01	0.000E+00	0.0
	2212	1	0	0	0	0	0.0000000000E+00	0.0000000000E+00	-6.3317288568E+03	6.3317288568E+03	9.3827000000E-01	0.000E+00	0.0
	51	2	1	2	0	0	-9.8412765578E+01	2.4566683679E+01	1.6363459883E+03	1.9461728688E+03	1.0486524914E+03	0.000E+00	0.0
	1000022	2	5	5	0	0	9.8412765578E+01	-2.4566683679E+01	1.0477343483E+03	1.3542849052E+03	8.5208670066E+02	0.000E+00	0.0
	14	1	6	6	0	0	1.7435695009E+02	2.3272553981E+02	5.5777051247E+02	7.0802151627E+02	3.2500000000E+02	0.000E+00	0.0
	-14	1	6	6	0	0	-7.5944184517E+01	-2.5729222349E+02	4.8996383584E+02	6.4626338892E+02	3.2500000000E+02	0.000E+00	0.0
	25	2	5	5	0	0	-9.8412765578E+01	2.4566683679E+01	4.1777441072E+02	4.4776614027E+02	1.2518172288E+02	0.000E+00	0.0
	-5	1	9	9	0	501	-4.3986708174E+01	4.5842785025E+01	6.8140230573E+01	9.3257465424E+01	4.1800000000E+00	0.000E+00	0.0
	5	1	9	9	501	0	-5.4426057405E+01	-2.1276101345E+01	3.4963418015E+02	3.5450867484E+02	4.1800000000E+00	0.000E+00	0.0
</event>
<event>
    11  -1  1.0000000E+00  1.0000000E+00  -1.0000000E+00  -1.0000000E+00
	2212	-1	0	0	0	0	0.0000000000E+00	0.0000000000E+00	6.5000000000E+03	6.5000000000E+03	9.3827000000E-01	0.000E+00	0.0
	2212	-1	0	0	0	0	0.0000000000E+00	0.0000000000E+00	-6.5000000000E+03	6.5000000000E+03	9.3827000000E-01	0.000E+00	0.0
	2212	1	0	0	0	0	0.0000000000E+00	0.0000000000E+00	6.0824269711E+03	6.0824269711E+03	9.3827000000E-01	0.000E+00	0.0
	2212	1	0	0	0	0	0.0000000000E+00	0.0000000000E+00	-5.8417142688E+03	5.8417142688E+03	9.3827000000E-01	0.000E+00	0.0
	51	2	1	2	0	0	6.4599651458E+01	-2.7940403739E+01	-3.6717364804E+02	1.1132384002E+03	1.0485845063E+03	0.000E+00	0.0
	1000022	2	5	5	0	0	-6.4599651458E+01	2.7940403739E+01	-7.3258215245E+01	8.5525962208E+02	8.4920461252E+02	0.000E+00	0.0
	14	1	6	6	0	0	-3.0566258431E+02	1.1205960512E+01	-5.7260842472E+01	4.4995443445E+02	3.2500000000E+02	0.000E+00	0.0
	-14	1	6	6	0	0	2.4106293285E+02	1.6734443227E+01	-1.5997372773E+01	4.0530518763E+02	3.2500000000E+02	0.000E+00	0.0
	25	2	5	5	0	0	6.4599651458E+01	-2.7940403739E+01	-1.6745448703E+02	2.2059913808E+02	1.2517664864E+02	0.000E+00	0.0
	-5	1	9	9	0	501	4.0319190344E+01	4.6308402540E+01	-4.9113145253E+01	7.8738038408E+01	4.1800000000E+00	0.000E+00	0.0
	5	1	9	9	501	0	2.4280461114E+01	-7.4248806279E+01	-1.1834134178E+02	1.4186109967E+02	4.1800000000E+00	0.000E+00	0.0
</event>
<event>
    11  -1  1.0000000E+00  1.0000000E+00  -1.0000000E+00  -1.0000000E+00
	2212	-1	0	0	0	0	0.0000000000E+00	0.0000000000E+00	6.5000000000E+03	6.5000000000E+03	9.3827000000E-01	0.000E+00	0.0
	2212	-1	0	0	0	0	0.0000000000E+00	0.0000000000E+00	-6.5000000000E+03	6.5000000000E+03	9.3827000000E-01	0.000E+00	0.0
	2212	1	0	0	0	0	0.0000000000E+00	0.0000000000E+00	5.0854203411E+03	5.0854203411E+03	9.3827000000E-01	0.000E+00	0.0
	2212	1	0	0	0	0	0.0000000000E+00	0.0000000000E+00	-6.3053324528E+03	6.3053324528E+03	9.3827000000E-01	0.000E+00	0.0
	51	2	1	2	0	0	-1.2295756087E+02	2.5332809869E+01	1.3376368982E+03	1.7048530125E+03	1.0495194186E+03	0.000E+00	0.0
	1000022	2	5	5	0	0	1.2295756087E+02	-2.5332809869E+01	8.9224414550E+02	1.2366948292E+03	8.4708569367E+02	0.000E+00	0.0
	14	1	6	6	0	0	-1.5568760320E+02	3.5328247426E+01	1.8216465014E+02	4.0533402845E+02	3.2500000000E+02	0.000E+00	0.0
	-14	1	6	6	0	0	2.7864516407E+02	-6.0661057294E+01	7.1007949536E+02	8.3136080077E+02	3.2500000000E+02	0.000E+00	0.0
	25	2	5	5	0	0	-1.2295756087E+02	2.5332809869E+01	3.2766796626E+02	3.7255237689E+02	1.2517453568E+02	0.000E+00	0.0
	-5	1	9	9	0	501	-8.8974208745E+01	2.6295892822E+01	3.2520996896E+02	3.3821129507E+02	4.1800000000E+00	0.000E+00	0.0
	5	1	9	9	501	0	-3.3983352123E+01	-9.6308295347E-01	2.4579973061E+00	3.4341081827E+01	4.1800000000E+00	0.000E+00	0.0
</event>
<event>
    11  -1  1.0000000E+00  1.0000000E+00  -1.0000000E+00  -1.0000000E+00
	2212	-1	0	0	0	0	0.0000000000E+00	0.0000000000E+00	6.5000000000E+03	6.5000000000E+03	9.3827000000E-01	0.000E+00	0.0
	2212	-1	0	0	0	0	0.0000000000E+00	0.0000000000E+00	-6.5000000000E+03	6.5000000000E+03	9.3827000000E-01	0.000E+00	0.0
	2212	1	0	0	0	0	0.0000000000E+00	0.0000000000E+00	6.2530441324E+03	6.2530441324E+03	9.3827000000E-01	0.000E+00	0.0
	2212	1	0	0	0	0	0.0000000000E+00	0.0000000000E+00	-5.4016650359E+03	5.4016650359E+03	9.3827000000E-01	0.000E+00	0.0
	51	2	1	2	0	0	-1.9565943524E+02	3.4552779943E+02	-5.9791143036E+02	1.2649629280E+03	1.0416146389E+03	0.000E+00	0.0
	1000022	2	5	5	0	0	1.9565943524E+02	-3.4552779943E+02	-7.8743092811E+02	9.2406001284E+02	2.7598435829E+02	0.000E+00	0.0
	14	1	6	6	0	0	0.0000000000E+00	0.0000000000E+00	0.0000000000E+00	0.0000000000E+00	0.0000000000E+00	0.000E+00	0.0
	-14	1	6	6	0	0	0.0000000000E+00	0.0000000000E+00	0.0000000000E+00	0.0000000000E+00	0.0000000000E+00	0.000E+00	0.0
	25	2	5	5	0	0	-1.9565943524E+02	3.4552779943E+02	-6.3948168403E+01	4.2123081886E+02	1.2519568579E+02	0.000E+00	0.0
	-5	1	9	9	0	501	-1.9450804605E+02	3.5172702156E+02	-7.3945490224E+01	4.0869387762E+02	4.1800000000E+00	0.000E+00	0.0
	5	1	9	9	501	0	-1.1513891881E+00	-6.1992221366E+00	9.9973218212E+00	1.2536941244E+01	4.1800000000E+00	0.000E+00	0.0
</event>
<event>
    11  -1  1.0000000E+00  1.0000000E+00  -1.0000000E+00  -1.0000000E+00
	2212	-1	0	0	0	0	0.0000000000E+00	0.0000000000E+00	6.5000000000E+03	6.5000000000E+03	9.3827000000E-01	0.000E+00	0.0
	2212	-1	0	0	0	0	0.0000000000E+00	0.0000000000E+00	-6.5000000000E+03	6.5000000000E+03	9.3827000000E-01	0.000E+00	0.0
	2212	1	0	0	0	0	0.0000000000E+00	0.0000000000E+00	6.1691455700E+03	6.1691455700E+03	9.3827000000E-01	0.000E+00	0.0
	2212	1	0	0	0	0	0.0000000000E+00	0.0000000000E+00	-5.6276596047E+03	5.6276596047E+03	9.3827000000E-01	0.000E+00	0.0
	51	2	1	2	0	0	-1.0512629519E+02	-8.4282438246E+00	-4.2377162646E+02	1.1598170984E+03	1.0744629994E+03	0.000E+00	0.0
	1000022	2	5	5	0	0	1.0512629519E+02	8.4282438246E+00	-5.6523520373E+02	1.0377798416E+03	8.6392915848E+02	0.000E+00	0.0
	14	1	6	6	0	0	-6.2175257717E+01	2.0372469827E+02	-7.4845575092E+01	3.9572259914E+02	3.2500000000E+02	0.000E+00	0.0
	-14	1	6	6	0	0	1.6730155290E+02	-1.9529645445E+02	-4.9038962864E+02	6.4205724247E+02	3.2500000000E+02	0.000E+00	0.0
	25	2	5	5	0	0	-1.0512629519E+02	-8.4282438246E+00	2.3749238482E+01	1.6541498370E+02	1.2520190602E+02	0.000E+00	0.0
	-5	1	9	9	0	501	-2.3843613130E+01	-4.6575494960E+01	4.9253496158E+01	7.1980371641E+01	4.1800000000E+00	0.000E+00	0.0
	5	1	9	9	501	0	-8.1282682057E+01	3.8147251135E+01	-2.5504257676E+01	9.3434612062E+01	4.1800000000E+00	0.000E+00	0.0
</event>
<event>
    11  -1  1.0000000E+00  1.0000000E+00  -1.0000000E+00  -1.0000000E+00
	2212	-1	0	0	0	0	0.0000000000E+00	0.0000000000E+00	6.5000000000E+03	6.5000000000E+03	9.3827000000E-01	0.000E+00	0.0
	2212	-1	0	0	0	0	0.0000000000E+00	0.0000000000E+00	-6.5000000000E+03	6.5000000000E+03	9.3827000000E-01	0.000E+00	0.0
	2212	1	0	0	0	0	0.0000000000E+00	0.0000000000E+00	5.9305012584E+03	5.9305012584E+03	9.3827000000E-01	0.000E+00	0.0
	2212	1	0	0	0	0	0.0000000000E+00	0.0000000000E+00	-6.0386169910E+03	6.0386169910E+03	9.3827000000E-01	0.000E+00	0.0
	51	2	1	2	0	0	-2.9487557971E+01	-8.1503225930E+01	8.5250102134E+01	1.0323797963E+03	1.0251966504E+03	0.000E+00	0.0
	1000022	2	5	5	0	0	2.9487557971E+01	8.1503225930E+01	1.1515310963E+02	8.7846156474E+02	8.6655766695E+02	0.000E+00	0.0
	14	1	6	6	0	0	7.9679195802E+01	1.7648054976E+02	3.0598594694E+02	4.8656608843E+02	3.2500000000E+02	0.000E+00	0.0
	-14	1	6	6	0	0	-5.0191637831E+01	-9.4977323835E+01	-1.9083283731E+02	3.9189547630E+02	3.2500000000E+02	0.000E+00	0.0
	25	2	5	5	0	0	-2.9487557971E+01	-8.1503225930E+01	-7.0373769620E+00	1.5242018584E+02	1.2518025589E+02	0.000E+00	0.0
	-5	1	9	9	0	501	2.5160682347E+01	-9.0413906785E+01	9.6563952422E+00	9.4437560564E+01	4.1800000000E+00	0.000E+00	0.0
	5	1	9	9	501	0	-5.4648240318E+01	8.9106808551E+00	-1.6693772204E+01	5.7982625273E+01	4.1800000000E+00	0.000E+00	0.0
</event>
<event>
    11  -1  1.0000000E+00  1.0000000E+00  -1.0000000E+00  -1.0000000E+00
	2212	-1	0	0	0	0	0.0000000000E+00	0.0000000000E+00	6.5000000000E+03	6.5000000000E+03	9.3827000000E-01	0.000E+00	0.0
	2212	-1	0	0	0	0	0.0000000000E+00	0.0000000000E+00	-6.5000000000E+03	6.5000000000E+03	9.3827000000E-01	0.000E+00	0.0
	2212	1	0	0	0	0	0.0000000000E+00	0.0000000000E+00	6.2330603261E+03	6.2330603261E+03	9.3827000000E-01	0.000E+00	0.0
	2212	1	0	0	0	0	0.0000000000E+00	0.0000000000E+00	-5.4430403371E+03	5.4430403371E+03	9.3827000000E-01	0.000E+00	0.0
	51	2	1	2	0	0	-3.1771463141E+01	7.3858206589E+01	-6.1625567357E+02	1.2307775537E+03	1.0623454574E+03	0.000E+00	0.0
	1000022	2	5	5	0	0	3.1771463141E+01	-7.3858206589E+01	-8.1789076547E+02	1.1725357117E+03	8.3631945474E+02	0.000E+00	0.0
	14	1	6	6	0	0	-1.8989632815E+02	1.0356615807E+02	-5.1063200006E+02	6.4277259122E+02	3.2500000000E+02	0.000E+00	0.0
	-14	1	6	6	0	0	2.2166779129E+02	-1.7742436466E+02	-3.0725876541E+02	5.2976312045E+02	3.2500000000E+02	0.000E+00	0.0
	25	2	5	5	0	0	-3.1771463141E+01	7.3858206589E+01	2.7870776452E+01	1.5136362511E+02	1.2517869737E+02	0.000E+00	0.0
	-5	1	9	9	0	501	-5.7413821328E+01	8.4744141452E+01	5.1438597358E+01	1.1463558823E+02	4.1800000000E+00	0.000E+00	0.0
	5	1	9	9	501	0	2.5642358187E+01	-1.0885934863E+01	-2.3567820905E+01	3.6728036886E+01	4.1800000000E+00	0.000E+00	0.0
</event>
<event>
    11  -1  1.0000000E+00  1.0000000E+00  -1.0000000E+00  -1.0000000E+00
	2212	-1	0	0	0	0	0.0000000000E+00	0.0000000000E+00	6.5000000000E+03	6.5000000000E+03	9.3827000000E-01	0.000E+00	0.0
	2212	-1	0	0	0	0	0.0000000000E+00	0.0000000000E+00	-6.5000000000E+03	6.5000000000E+03	9.3827000000E-01	0.000E+00	0.0
	2212	1	0	0	0	0	0.0000000000E+00	0.0000000000E+00	5.8347863363E+03	5.8347863363E+03	9.3827000000E-01	0.000E+00	0.0
	2212	1	0	0	0	0	0.0000000000E+00	0.0000000000E+00	-6.0882867383E+03	6.0882867383E+03	9.3827000000E-01	0.000E+00	0.0
	51	2	1	2	0	0	-1.1563248363E+02	6.1671897565E+01	1.8032257618E+02	1.0701400256E+03	1.0466657292E+03	0.000E+00	0.0
	1000022	2	5	5	0	0	1.1563248363E+02	-6.1671897565E+01	2.8190007557E+02	8.9348612765E+02	8.3766073889E+02	0.000E+00	0.0
	14	1	6	6	0	0	-8.4261603824E+01	-1.0232802752E+02	3.5903427167E+02	5.0209725286E+02	3.2500000000E+02	0.000E+00	0.0
	-14	1	6	6	0	0	1.9989408745E+02	4.0656129952E+01	-7.7134196099E+01	3.9138887479E+02	3.2500000000E+02	0.000E+00	0.0
	25	2	5	5	0	0	-1.1563248363E+02	6.1671897565E+01	-2.8399673595E+01	1.8344079771E+02	1.2517863469E+02	0.000E+00	0.0
	-5	1	9	9	0	501	-1.3688455129E+02	6.0345785803E+01	-4.4827365002E+01	1.5622406761E+02	4.1800000000E+00	0.000E+00	0.0
	5	1	9	9	501	0	2.1252067664E+01	1.3261117623E+00	1.6427691406E+01	2.7216730100E+01	4.1800000000E+00	0.000E+00	0.0
</event>
<event>
    11  -1  1.0000000E+00  1.0000000E+00  -1.0000000E+00  -1.0000000E+00
	2212	-1	0	0	0	0	0.0000000000E+00	0.0000000000E+00	6.5000000000E+03	6.5000000000E+03	9.3827000000E-01	0.000E+00	0.0
	2212	-1	0	0	0	0	0.0000000000E+00	0.0000000000E+00	-6.5000000000E+03	6.5000000000E+03	9.3827000000E-01	0.000E+00	0.0
	2212	1	0	0	0	0	0.0000000000E+00	0.0000000000E+00	5.5236415215E+03	5.5236415215E+03	9.3827000000E-01	0.000E+00	0.0
	2212	1	0	0	0	0	0.0000000000E+00	0.0000000000E+00	-6.2174780317E+03	6.2174780317E+03	9.3827000000E-01	0.000E+00	0.0
	51	2	1	2	0	0	-1.1322770618E+02	3.6766652533E+00	6.0531647244E+02	1.2176259441E+03	1.0504146213E+03	0.000E+00	0.0
	1000022	2	5	5	0	0	1.1322770618E+02	-3.6766652533E+00	6.6524481842E+02	1.0876502155E+03	8.5299372308E+02	0.000E+00	0.0
	14	1	6	6	0	0	6.0839927906E+01	1.6853486001E+02	5.7792325249E+01	3.7559346204E+02	3.2500000000E+02	0.000E+00	0.0
	-14	1	6	6	0	0	5.2387778271E+01	-1.7221152527E+02	6.0745249317E+02	7.1205675350E+02	3.2500000000E+02	0.000E+00	0.0
	25	2	5	5	0	0	-1.1322770618E+02	3.6766652533E+00	2.8591691766E+01	1.7123023134E+02	1.2517298420E+02	0.000E+00	0.0
	-5	1	9	9	0	501	-9.8952600935E+01	4.7020814992E+01	-1.1637548672E+01	1.1025188984E+02	4.1800000000E+00	0.000E+00	0.0
	5	1	9	9	501	0	-1.4275105242E+01	-4.3344149739E+01	4.0229240439E+01	6.0978341504E+01	4.1800000000E+00	0.000E+00	0.0
</event>
<event>
    11  -1  1.0000000E+00  1.0000000E+00  -1.0000000E+00  -1.0000000E+00
	2212	-1	0	0	0	0	0.0000000000E+00	0.0000000000E+00	6.5000000000E+03	6.5000000000E+03	9.3827000000E-01	0.000E+00	0.0
	2212	-1	0	0	0	0	0.0000000000E+00	0.0000000000E+00	-6.5000000000E+03	6.5000000000E+03	9.3827000000E-01	0.000E+00	0.0
	2212	1	0	0	0	0	0.0000000000E+00	0.0000000000E+00	5.1983463693E+03	5.1983463693E+03	9.3827000000E-01	0.000E+00	0.0
	2212	1	0	0	0	0	0.0000000000E+00	0.0000000000E+00	-6.2981234122E+03	6.2981234122E+03	9.3827000000E-01	0.000E+00	0.0
	51	2	1	2	0	0	1.1646551093E+02	2.4098355417E+01	1.0419781313E+03	1.4666141095E+03	1.0252285472E+03	0.000E+00	0.0
	1000022	2	5	5	0	0	-1.1646551093E+02	-2.4098355417E+01	9.7471924185E+02	1.2904587553E+03	8.3729400609E+02	0.000E+00	0.0
	14	1	6	6	0	0	-1.6106157299E+01	2.1599768254E+02	2.8009979145E+02	4.8061970448E+02	3.2500000000E+02	0.000E+00	0.0
	-14	1	6	6	0	0	-1.0035935363E+02	-2.4009603796E+02	6.9461945039E+02	8.0983905078E+02	3.2500000000E+02	0.000E+00	0.0
	25	2	5	5	0	0	1.1646551093E+02	2.4098355417E+01	1.2505780102E+02	2.1307146326E+02	1.2496018922E+02	0.000E+00	0.0
	-5	1	9	9	0	501	8.0383723561E+01	-8.5722110692E+00	1.4022917224E+02	1.6191577737E+02	4.1800000000E+00	0.000E+00	0.0
	5	1	9	9	501	0	3.6081787370E+01	3.2670566486E+01	-1.5171371217E+01	5.1155685890E+01	4.1800000000E+00	0.000E+00	0.0
</event>
<event>
    11  -1  1.0000000E+00  1.0000000E+00  -1.0000000E+00  -1.0000000E+00
	2212	-1	0	0	0	0	0.0000000000E+00	0.0000000000E+00	6.5000000000E+03	6.5000000000E+03	9.3827000000E-01	0.000E+00	0.0
	2212	-1	0	0	0	0	0.0000000000E+00	0.0000000000E+00	-6.5000000000E+03	6.5000000000E+03	9.3827000000E-01	0.000E+00	0.0
	2212	1	0	0	0	0	0.0000000000E+00	0.0000000000E+00	6.2836891356E+03	6.2836891356E+03	9.3827000000E-01	0.000E+00	0.0
	2212	1	0	0	0	0	0.0000000000E+00	0.0000000000E+00	-5.2369370404E+03	5.2369370404E+03	9.3827000000E-01	0.000E+00	0.0
	51	2	1	2	0	0	1.2581938062E+02	4.5748166661E+01	-1.0771173537E+03	1.5069711900E+03	1.0453979924E+03	0.000E+00	0.0
	1000022	2	5	5	0	0	-1.2581938062E+02	-4.5748166661E+01	-8.4089355969E+02	1.2037519626E+03	8.5087801562E+02	0.000E+00	0.0
	14	1	6	6	0	0	-2.3655492723E+02	1.3238379697E+02	-6.4164092048E+02	7.6864281310E+02	3.2500000000E+02	0.000E+00	0.0
	-14	1	6	6	0	0	1.1073554660E+02	-1.7813196364E+02	-1.9925263920E+02	4.3510914950E+02	3.2500000000E+02	0.000E+00	0.0
	25	2	5	5	0	0	1.2581938062E+02	4.5748166661E+01	-2.0585853554E+02	2.7562186145E+02	1.2516494144E+02	0.000E+00	0.0
	-5	1	9	9	0	501	1.9835016525E+01	6.7731427802E+01	-5.3399350147E+01	8.8599871268E+01	4.1800000000E+00	0.000E+00	0.0
	5	1	9	9	501	0	1.0598436410E+02	-2.1983261141E+01	-1.5245918539E+02	1.8702199019E+02	4.1800000000E+00	0.000E+00	0.0
</event>
<event>
    11  -1  1.0000000E+00  1.0000000E+00  -1.0000000E+00  -1.0000000E+00
	2212	-1	0	0	0	0	0.0000000000E+00	0.0000000000E+00	6.5000000000E+03	6.5000000000E+03	9.3827000000E-01	0.000E+00	0.0
	2212	-1	0	0	0	0	0.0000000000E+00	0.0000000000E+00	-6.5000000000E+03	6.5000000000E+03	9.3827000000E-01	0.000E+00	0.0
	2212	1	0	0	0	0	0.0000000000E+00	0.0000000000E+00	5.9596904812E+03	5.9596904812E+03	9.3827000000E-01	0.000E+00	0.0
	2212	1	0	0	0	0	0.0000000000E+00	0.0000000000E+00	-5.9905160366E+03	5.9905160366E+03	9.3827000000E-01	0.000E+00	0.0
	51	2	1	2	0	0	-7.5482521934E+01	5.8971481262E+01	4.6724649806E+01	1.0547391052E+03	1.0493408123E+03	0.000E+00	0.0
	1000022	2	5	5	0	0	7.5482521934E+01	-5.8971481262E+01	1.0404532712E+01	8.9084931386E+02	8.8562350860E+02	0.000E+00	0.0
	14	1	6	6	0	0	-1.8515935166E+02	-2.3027264239E+02	-1.6966548363E+01	4.3957063039E+02	3.2500000000E+02	0.000E+00	0.0
	-14	1	6	6	0	0	2.6064187359E+02	1.7130116113E+02	2.7371081075E+01	4.5127868347E+02	3.2500000000E+02	0.000E+00	0.0
	25	2	5	5	0	0	-7.5482521934E+01	5.8971481262E+01	2.0421022612E+01	1.5894416831E+02	1.2518379990E+02	0.000E+00	0.0
	-5	1	9	9	0	501	1.4595911277E+01	2.7773119192E+01	-3.6123499004E+01	4.8028807563E+01	4.1800000000E+00	0.000E+00	0.0
	5	1	9	9	501	0	-9.0078433212E+01	3.1198362070E+01	5.6544521616E+01	1.1091536075E+02	4.1800000000E+00	0.000E+00	0.0
</event>
<event>
    11  -1  1.0000000E+00  1.0000000E+00  -1.0000000E+00  -1.0000000E+00
	2212	-1	0	0	0	0	0.0000000000E+00	0.0000000000E+00	6.5000000000E+03	6.5000000000E+03	9.3827000000E-01	0.000E+00	0.0
	2212	-1	0	0	0	0	0.0000000000E+00	0.0000000000E+00	-6.5000000000E+03	6.5000000000E+03	9.3827000000E-01	0.000E+00	0.0
	2212	1	0	0	0	0	0.0000000000E+00	0.0000000000E+00	6.3190710722E+03	6.3190710722E+03	9.3827000000E-01	0.000E+00	0.0
	2212	1	0	0	0	0	0.0000000000E+00	0.0000000000E+00	-4.9693792044E+03	4.9693792044E+03	9.3827000000E-01	0.000E+00	0.0
	51	2	1	2	0	0	-9.9076977841E+01	1.5136932738E+01	-1.1881913926E+03	1.5904648620E+03	1.0524895807E+03	0.000E+00	0.0
	1000022	2	5	5	0	0	9.9076977841E+01	-1.5136932738E+01	-1.2768005739E+03	1.5354014331E+03	8.4687217516E+02	0.000E+00	0.0
	14	1	6	6	0	0	1.3188539688E+02	4.3703804932E+01	-1.1080482696E+03	1.1630562103E+03	3.2500000000E+02	0.000E+00	0.0
	-14	1	6	6	0	0	-3.2808419038E+01	-5.8840737670E+01	-1.6875230428E+02	3.7234522284E+02	3.2500000000E+02	0.000E+00	0.0
	25	2	5	5	0	0	-9.9076977841E+01	1.5136932738E+01	-7.2891293900E+01	1.7614829024E+02	1.2517869290E+02	0.000E+00	0.0
	-5	1	9	9	0	501	-2.2565401965E+01	-4.8806443335E+01	-2.4436229492E+00	5.3988053956E+01	4.1800000000E+00	0.000E+00	0.0
	5	1	9	9	501	0	-7.6511575876E+01	6.3943376073E+01	-7.0447670951E+01	1.2216023628E+02	4.1800000000E+00	0.000E+00	0.0
</event>
<event>
    11  -1  1.0000000E+00  1.0000000E+00  -1.0000000E+00  -1.0000000E+00
	2212	-1	0	0	0	0	0.0000000000E+00	0.0000000000E+00	6.5000000000E+03	6.5000000000E+03	9.3827000000E-01	0.000E+00	0.0
	2212	-1	0	0	0	0	0.0000000000E+00	0.0000000000E+00	-6.5000000000E+03	6.5000000000E+03	9.3827000000E-01	0.000E+00	0.0
	2212	1	0	0	0	0	0.0000000000E+00	0.0000000000E+00	5.5513933662E+03	5.5513933662E+03	9.3827000000E-01	0.000E+00	0.0
	2212	1	0	0	0	0	0.0000000000E+00	0.0000000000E+00	-6.2089404824E+03	6.2089404824E+03	9.3827000000E-01	0.000E+00	0.0
	51	2	1	2	0	0	-1.4370596794E+02	-1.4961325224E+01	7.0108064190E+02	1.2715318595E+03	1.0509062550E+03	0.000E+00	0.0
	1000022	2	5	5	0	0	1.4370596794E+02	1.4961325224E+01	4.9927528418E+02	9.9148561006E+02	8.4432970994E+02	0.000E+00	0.0
	14	1	6	6	0	0	-4.2848737797E+01	-5.7737616620E+01	-3.5176705186E+01	3.3471188699E+02	3.2500000000E+02	0.000E+00	0.0
	-14	1	6	6	0	0	1.8655470574E+02	7.2698941844E+01	5.3445198936E+02	6.5677372307E+02	3.2500000000E+02	0.000E+00	0.0
	25	2	5	5	0	0	-1.4370596794E+02	-1.4961325224E+01	1.5827183210E+02	2.4818054135E+02	1.2517332701E+02	0.000E+00	0.0
	-5	1	9	9	0	501	-2.9930655945E+01	-5.8272646540E+01	7.9585668120E+01	1.0316441475E+02	4.1800000000E+00	0.000E+00	0.0
	5	1	9	9	501	0	-1.1377531199E+02	4.3311321316E+01	7.8686163983E+01	1.4501612661E+02	4.1800000000E+00	0.000E+00	0.0
</event>
<event>
    11  -1  1.0000000E+00  1.0000000E+00  -1.0000000E+00  -1.0000000E+00
	2212	-1	0	0	0	0	0.0000000000E+00	0.0000000000E+00	6.5000000000E+03	6.5000000000E+03	9.3827000000E-01	0.000E+00	0.0
	2212	-1	0	0	0	0	0.0000000000E+00	0.0000000000E+00	-6.5000000000E+03	6.5000000000E+03	9.3827000000E-01	0.000E+00	0.0
	2212	1	0	0	0	0	0.0000000000E+00	0.0000000000E+00	5.8168258349E+03	5.8168258349E+03	9.3827000000E-01	0.000E+00	0.0
	2212	1	0	0	0	0	0.0000000000E+00	0.0000000000E+00	-6.0936528722E+03	6.0936528722E+03	9.3827000000E-01	0.000E+00	0.0
	51	2	1	2	0	0	-1.2403603094E+02	-9.3407711491E+01	2.4951825059E+02	1.0939802256E+03	1.0537663114E+03	0.000E+00	0.0
	1000022	2	5	5	0	0	1.2403603094E+02	9.3407711491E+01	2.5427114329E+02	8.8880757235E+02	8.3738590197E+02	0.000E+00	0.0
	14	1	6	6	0	0	2.3840021249E+02	-1.4265560490E+00	3.3307055189E+02	5.2287444852E+02	3.2500000000E+02	0.000E+00	0.0
	-14	1	6	6	0	0	-1.1436418155E+02	9.4834267540E+01	-7.8799408600E+01	3.6593312383E+02	3.2500000000E+02	0.000E+00	0.0
	25	2	5	5	0	0	-1.2403603094E+02	-9.3407711491E+01	2.2555894042E+01	2.0071372053E+02	1.2516905255E+02	0.000E+00	0.0
	-5	1	9	9	0	501	-1.1048419284E+02	-6.8478286864E+01	-3.6486972408E+01	1.3507332895E+02	4.1800000000E+00	0.000E+00	0.0
	5	1	9	9	501	0	-1.3551838106E+01	-2.4929424627E+01	5.9042866450E+01	6.5640391582E+01	4.1800000000E+00	0.000E+00	0.0
</event>
<event>
    11  -1  1.0000000E+00  1.0000000E+00  -1.0000000E+00  -1.0000000E+00
	2212	-1	0	0	0	0	0.0000000000E+00	0.0000000000E+00	6.5000000000E+03	6.5000000000E+03	9.3827000000E-01	0.000E+00	0.0
	2212	-1	0	0	0	0	0.0000000000E+00	0.0000000000E+00	-6.5000000000E+03	6.5000000000E+03	9.3827000000E-01	0.000E+00	0.0
	2212	1	0	0	0	0	0.0000000000E+00	0.0000000000E+00	5.0441806877E+03	5.0441806877E+03	9.3827000000E-01	0.000E+00	0.0
	2212	1	0	0	0	0	0.0000000000E+00	0.0000000000E+00	-6.3086991871E+03	6.3086991871E+03	9.3827000000E-01	0.000E+00	0.0
	51	2	1	2	0	0	-6.6330018728E+01	-5.6868891050E+01	1.1044344184E+03	1.5301656114E+03	1.0554608811E+03	0.000E+00	0.0
	1000022	2	5	5	0	0	6.6330018728E+01	5.6868891050E+01	1.2104955150E+03	1.4851858316E+03	8.5606297681E+02	0.000E+00	0.0
	14	1	6	6	0	0	1.9892060139E+02	1.4575562282E+02	3.0317876825E+02	5.0828778537E+02	3.2500000000E+02	0.000E+00	0.0
	-14	1	6	6	0	0	-1.3259058267E+02	-8.8886731774E+01	9.0731674676E+02	9.7689804619E+02	3.2500000000E+02	0.000E+00	0.0
	25	2	5	5	0	0	-6.6330018728E+01	-5.6868891050E+01	5.4022984362E+01	1.6193429362E+02	1.2518182958E+02	0.000E+00	0.0
	-5	1	9	9	0	501	-1.8859369136E+01	-9.8715042011E+00	-4.0600301094E+01	4.6032371744E+01	4.1800000000E+00	0.000E+00	0.0
	5	1	9	9	501	0	-4.7470649593E+01	-4.6997386849E+01	9.4623285456E+01	1.1590192187E+02	4.1800000000E+00	0.000E+00	0.0
</event>
<event>
    11  -1  1.0000000E+00  1.0000000E+00  -1.0000000E+00  -1.0000000E+00
	2212	-1	0	0	0	0	0.0000000000E+00	0.0000000000E+00	6.5000000000E+03	6.5000000000E+03	9.3827000000E-01	0.000E+00	0.0
	2212	-1	0	0	0	0	0.0000000000E+00	0.0000000000E+00	-6.5000000000E+03	6.5000000000E+03	9.3827000000E-01	0.000E+00	0.0
	2212	1	0	0	0	0	0.0000000000E+00	0.0000000000E+00	5.5768791070E+03	5.5768791070E+03	9.3827000000E-01	0.000E+00	0.0
	2212	1	0	0	0	0	0.0000000000E+00	0.0000000000E+00	-6.0699774852E+03	6.0699774852E+03	9.3827000000E-01	0.000E+00	0.0
	51	2	1	2	0	0	-2.1984791134E+02	1.6897814065E+02	3.3052787869E+02	1.3319108327E+03	1.2600996277E+03	0.000E+00	0.0
	1000022	2	5	5	0	0	2.1984791134E+02	-1.6897814065E+02	5.3597484759E+02	1.0459157914E+03	8.5427401301E+02	0.000E+00	0.0
	14	1	6	6	0	0	3.6420073107E+02	3.2774561687E+01	2.9812497963E+02	5.7290474591E+02	3.2500000000E+02	0.000E+00	0.0
	-14	1	6	6	0	0	-1.4435281973E+02	-2.0175270234E+02	2.3784986796E+02	4.7301104549E+02	3.2500000000E+02	0.000E+00	0.0
	25	2	5	5	0	0	-2.1984791134E+02	1.6897814065E+02	-4.2876469413E+01	3.0722761645E+02	1.2515470643E+02	0.000E+00	0.0
	-5	1	9	9	0	501	-1.0143760601E+01	5.1733923882E+01	2.3599876548E+01	5.7911323008E+01	4.1800000000E+00	0.000E+00	0.0
	5	1	9	9	501	0	-2.0970415073E+02	1.1724421677E+02	-6.6476345962E+01	2.4931629344E+02	4.1800000000E+00	0.000E+00	0.0
</event>
<event>
    11  -1  1.0000000E+00  1.0000000E+00  -1.0000000E+00  -1.0000000E+00
	2212	-1	0	0	0	0	0.0000000000E+00	0.0000000000E+00	6.5000000000E+03	6.5000000000E+03	9.3827000000E-01	0.000E+00	0.0
	2212	-1	0	0	0	0	0.0000000000E+00	0.0000000000E+00	-6.5000000000E+03	6.5000000000E+03	9.3827000000E-01	0.000E+00	0.0
	2212	1	0	0	0	0	0.0000000000E+00	0.0000000000E+00	5.9959172231E+03	5.9959172231E+03	9.3827000000E-01	0.000E+00	0.0
	2212	1	0	0	0	0	0.0000000000E+00	0.0000000000E+00	-6.0118532997E+03	6.0118532997E+03	9.3827000000E-01	0.000E+00	0.0
	51	2	1	2	0	0	-2.4822635117E+01	2.8442780815E+01	6.9618045839E+01	9.9525735573E+02	9.9210149523E+02	0.000E+00	0.0
	1000022	2	5	5	0	0	2.4822635117E+01	-2.8442780815E+01	-3.9981073733E+01	8.5003229743E+02	8.4825188796E+02	0.000E+00	0.0
	14	1	6	6	0	0	2.6607253366E+01	1.9634379215E+02	-1.9238769096E+02	4.2649367437E+02	3.2500000000E+02	0.000E+00	0.0
	-14	1	6	6	0	0	-1.7846182483E+00	-2.2478657297E+02	1.5240661722E+02	4.2353862306E+02	3.2500000000E+02	0.000E+00	0.0
	25	2	5	5	0	0	-2.4822635117E+01	2.8442780815E+01	5.5917150374E+01	1.4219717975E+02	1.2517250188E+02	0.000E+00	0.0
	-5	1	9	9	0	501	-3.7064399138E+01	7.3869901216E+01	2.8164097554E+01	8.7414076556E+01	4.1800000000E+00	0.000E+00	0.0
	5	1	9	9	501	0	1.2241764020E+01	-4.5427120401E+01	2.7753052820E+01	5.4783103190E+01	4.1800000000E+00	0.000E+00	0.0
</event>
<event>
    11  -1  1.0000000E+00  1.0000000E+00  -1.0000000E+00  -1.0000000E+00
	2212	-1	0	0	0	0	0.0000000000E+00	0.0000000000E+00	6.5000000000E+03	6.5000000000E+03	9.3827000000E-01	0.000E+00	0.0
	2212	-1	0	0	0	0	0.0000000000E+00	0.0000000000E+00	-6.5000000000E+03	6.5000000000E+03	9.3827000000E-01	0.000E+00	0.0
	2212	1	0	0	0	0	0.0000000000E+00	0.0000000000E+00	6.2881952591E+03	6.2881952591E+03	9.3827000000E-01	0.000E+00	0.0
	2212	1	0	0	0	0	0.0000000000E+00	0.0000000000E+00	-5.2340111203E+03	5.2340111203E+03	9.3827000000E-01	0.000E+00	0.0
	51	2	1	2	0	0	9.0573347199E+00	1.1225996505E+02	-9.7477228153E+02	1.4266867640E+03	1.0356494517E+03	0.000E+00	0.0
	1000022	2	5	5	0	0	-9.0573347199E+00	-1.1225996505E+02	-9.5924571915E+02	1.2844899256E+03	8.4680439545E+02	0.000E+00	0.0
	14	1	6	6	0	0	-1.7109356662E+01	4.6917979203E+01	-8.7018469209E+01	3.4013415124E+02	3.2500000000E+02	0.000E+00	0.0
	-14	1	6	6	0	0	8.0520219423E+00	-1.5917794426E+02	-8.7222724994E+02	9.4435577434E+02	3.2500000000E+02	0.000E+00	0.0
	25	2	5	5	0	0	9.0573347199E+00	1.1225996505E+02	-9.4938419627E+01	1.9330369506E+02	1.2517459781E+02	0.000E+00	0.0
	-5	1	9	9	0	501	6.6337433865E+01	6.2430031745E+01	-4.0445903751E+01	9.9757242973E+01	4.1800000000E+00	0.000E+00	0.0
	5	1	9	9	501	0	-5.7280099145E+01	4.9829933308E+01	-5.4492515877E+01	9.3546452087E+01	4.1800000000E+00	0.000E+00	0.0
</event>
<event>
    11  -1  1.0000000E+00  1.0000000E+00  -1.0000000E+00  -1.0000000E+00
	2212	-1	0	0	0	0	0.0000000000E+00	0.0000000000E+00	6.5000000000E+03	6.5000000000E+03	9.3827000000E-01	0.000E+00	0.0
	2212	-1	0	0	0	0	0.0000000000E+00	0.0000000000E+00	-6.5000000000E+03	6.5000000000E+03	9.3827000000E-01	0.000E+00	0.0
	2212	1	0	0	0	0	0.0000000000E+00	0.0000000000E+00	5.0074344666E+03	5.0074344666E+03	9.3827000000E-01	0.000E+00	0.0
	2212	1	0	0	0	0	0.0000000000E+00	0.0000000000E+00	-6.3144518526E+03	6.3144518526E+03	9.3827000000E-01	0.000E+00	0.0
	51	2	1	2	0	0	-1.2985125875E+02	-3.3704135605E+01	1.2810567559E+03	1.6633925600E+03	1.0525070444E+03	0.000E+00	0.0
	1000022	2	5	5	0	0	1.2985125875E+02	3.3704135605E+01	1.1142074480E+03	1.4119495685E+03	8.5682321907E+02	0.000E+00	0.0
	14	1	6	6	0	0	2.9038659627E+02	1.5934214569E+02	7.5608450525E+02	8.8713193707E+02	3.2500000000E+02	0.000E+00	0.0
	-14	1	6	6	0	0	-1.6053533751E+02	-1.2563801008E+02	3.5812294270E+02	5.2481763143E+02	3.2500000000E+02	0.000E+00	0.0
	25	2	5	5	0	0	-1.2985125875E+02	-3.3704135605E+01	1.9280993801E+02	2.6616411233E+02	1.2518124597E+02	0.000E+00	0.0
	-5	1	9	9	0	501	-1.1801829549E+02	-7.3918489590E+01	1.3010958449E+02	1.9062590996E+02	4.1800000000E+00	0.000E+00	0.0
	5	1	9	9	501	0	-1.1832963267E+01	4.0214353985E+01	6.2700353519E+01	7.5538202372E+01	4.1800000000E+00	0.000E+00	0.0
</event>
<event>
    11  -1  1.0000000E+00  1.0000000E+00  -1.0000000E+00  -1.0000000E+00
	2212	-1	0	0	0	0	0.0000000000E+00	0.0000000000E+00	6.5000000000E+03	6.5000000000E+03	9.3827000000E-01	0.000E+00	0.0
	2212	-1	0	0	0	0	0.0000000000E+00	0.0000000000E+00	-6.5000000000E+03	6.5000000000E+03	9.3827000000E-01	0.000E+00	0.0
	2212	1	0	0	0	0	0.0000000000E+00	0.0000000000E+00	5.8974198559E+03	5.8974198559E+03	9.3827000000E-01	0.000E+00	0.0
	2212	1	0	0	0	0	0.0000000000E+00	0.0000000000E+00	-6.0454232553E+03	6.0454232553E+03	9.3827000000E-01	0.000E+00	0.0
	51	2	1	2	0	0	5.7683281315E+01	1.0536141290E+02	2.1471672515E+02	1.0752708224E+03	1.0467452800E+03	0.000E+00	0.0
	1000022	2	5	5	0	0	-5.7683281315E+01	-1.0536141290E+02	5.6355308012E+01	8.6093921341E+02	8.5065387801E+02	0.000E+00	0.0
	14	1	6	6	0	0	1.3459185477E+02	-2.5542720855E+02	1.1676601784E+02	4.5013034685E+02	3.2500000000E+02	0.000E+00	0.0
	-14	1	6	6	0	0	-1.9227513608E+02	1.5006579565E+02	-6.0410709828E+01	4.1080886656E+02	3.2500000000E+02	0.000E+00	0.0
	25	2	5	5	0	0	5.7683281315E+01	1.0536141290E+02	9.1648091360E+01	1.9621767532E+02	1.2519430973E+02	0.000E+00	0.0
	-5	1	9	9	0	501	8.6405003914E+01	4.0323828910E+01	2.4967493073E+01	9.8654366298E+01	4.1800000000E+00	0.000E+00	0.0
	5	1	9	9	501	0	-2.8721722599E+01	6.5037583986E+01	6.6680598287E+01	9.7563309024E+01	4.1800000000E+00	0.000E+00	0.0
</event>
<event>
    11  -1  1.0000000E+00  1.0000000E+00  -1.0000000E+00  -1.0000000E+00
	2212	-1	0	0	0	0	0.0000000000E+00	0.0000000000E+00	6.5000000000E+03	6.5000000000E+03	9.3827000000E-01	0.000E+00	0.0
	2212	-1	0	0	0	0	0.0000000000E+00	0.0000000000E+00	-6.5000000000E+03	6.5000000000E+03	9.3827000000E-01	0.000E+00	0.0
	2212	1	0	0	0	0	0.0000000000E+00	0.0000000000E+00	5.3772097964E+03	5.3772097964E+03	9.3827000000E-01	0.000E+00	0.0
	2212	1	0	0	0	0	0.0000000000E+00	0.0000000000E+00	-6.2687966366E+03	6.2687966366E+03	9.3827000000E-01	0.000E+00	0.0
	51	2	1	2	0	0	-1.6757853266E+00	2.8036495771E+01	7.4712571933E+02	1.2638659659E+03	1.0190051452E+03	0.000E+00	0.0
	1000022	2	5	5	0	0	1.6757853266E+00	-2.8036495771E+01	8.9220749570E+02	1.2256802312E+03	8.3992199665E+02	0.000E+00	0.0
	14	1	6	6	0	0	2.6329345244E+02	1.8152626965E+01	4.8740238287E+02	6.4252551917E+02	3.2500000000E+02	0.000E+00	0.0
	-14	1	6	6	0	0	-2.6161766711E+02	-4.6189122737E+01	4.0480511284E+02	5.8315471205E+02	3.2500000000E+02	0.000E+00	0.0
	25	2	5	5	0	0	-1.6757853266E+00	2.8036495771E+01	-6.2065554980E-01	1.2831333577E+02	1.2520013407E+02	0.000E+00	0.0
	-5	1	9	9	0	501	3.9216653656E+01	4.6062221559E+01	-3.6564802887E+01	7.0810531626E+01	4.1800000000E+00	0.000E+00	0.0
	5	1	9	9	501	0	-4.0892438983E+01	-1.8025725787E+01	3.5944147337E+01	5.7502804140E+01	4.1800000000E+00	0.000E+00	0.0
</event>
<event>
    11  -1  1.0000000E+00  1.0000000E+00  -1.0000000E+00  -1.0000000E+00
	2212	-1	0	0	0	0	0.0000000000E+00	0.0000000000E+00	6.5000000000E+03	6.5000000000E+03	9.3827000000E-01	0.000E+00	0.0
	2212	-1	0	0	0	0	0.0000000000E+00	0.0000000000E+00	-6.5000000000E+03	6.5000000000E+03	9.3827000000E-01	0.000E+00	0.0
	2212	1	0	0	0	0	0.0000000000E+00	0.0000000000E+00	4.9610604574E+03	4.9610604574E+03	9.3827000000E-01	0.000E+00	0.0
	2212	1	0	0	0	0	0.0000000000E+00	0.0000000000E+00	-6.3227155139E+03	6.3227155139E+03	9.3827000000E-01	0.000E+00	0.0
	51	2	1	2	0	0	1.2509558884E+02	-8.9461520243E+01	1.3771202260E+03	1.7353480373E+03	1.0446628278E+03	0.000E+00	0.0
	1000022	2	5	5	0	0	-1.2509558884E+02	8.9461520243E+01	1.1023811628E+03	1.3898045793E+03	8.3226214046E+02	0.000E+00	0.0
	14	1	6	6	0	0	1.5292881190E+02	1.4798690337E+02	6.9525730250E+02	7.9642643211E+02	3.2500000000E+02	0.000E+00	0.0
	-14	1	6	6	0	0	-2.7802440074E+02	-5.8525383129E+01	4.0712386032E+02	5.9337814715E+02	3.2500000000E+02	0.000E+00	0.0
	25	2	5	5	0	0	1.2509558884E+02	-8.9461520243E+01	2.5927389366E+02	3.2641944940E+02	1.2519758410E+02	0.000E+00	0.0
	-5	1	9	9	0	501	1.0961108627E+02	-1.0124273167E+02	1.3723889908E+02	2.0277245565E+02	4.1800000000E+00	0.000E+00	0.0
	5	1	9	9	501	0	1.5484502575E+01	1.1781211432E+01	1.2203499457E+02	1.2364699375E+02	4.1800000000E+00	0.000E+00	0.0
</event>
<event>
    11  -1  1.0000000E+00  1.0000000E+00  -1.0000000E+00  -1.0000000E+00
	2212	-1	0	0	0	0	0.0000000000E+00	0.0000000000E+00	6.5000000000E+03	6.5000000000E+03	9.3827000000E-01	0.000E+00	0.0
	2212	-1	0	0	0	0	0.0000000000E+00	0.0000000000E+00	-6.5000000000E+03	6.5000000000E+03	9.3827000000E-01	0.000E+00	0.0
	2212	1	0	0	0	0	0.0000000000E+00	0.0000000000E+00	5.6741949739E+03	5.6741949739E+03	9.3827000000E-01	0.000E+00	0.0
	2212	1	0	0	0	0	0.0000000000E+00	0.0000000000E+00	-6.1781936707E+03	6.1781936707E+03	9.3827000000E-01	0.000E+00	0.0
	51	2	1	2	0	0	-8.8528101345E+01	-5.5593864069E+01	3.7986187368E+02	1.1037300767E+03	1.0310175249E+03	0.000E+00	0.0
	1000022	2	5	5	0	0	8.8528101345E+01	5.5593864069E+01	5.3586663204E+02	9.8139521885E+02	8.1550942717E+02	0.000E+00	0.0
	14	1	6	6	0	0	1.5446111556E+02	-6.9679232504E+01	5.0716295932E+02	6.2574171906E+02	3.2500000000E+02	0.000E+00	0.0
	-14	1	6	6	0	0	-6.5933014218E+01	1.2527309657E+02	2.8703672714E+01	3.5565349979E+02	3.2500000000E+02	0.000E+00	0.0
	25	2	5	5	0	0	-8.8528101345E+01	-5.5593864069E+01	-3.1867935232E+01	1.6621613656E+02	1.2523712032E+02	0.000E+00	0.0
	-5	1	9	9	0	501	-7.8441638941E+01	2.4276282130E+01	-2.1136562267E+01	8.4892021170E+01	4.1800000000E+00	0.000E+00	0.0
	5	1	9	9	501	0	-1.0086462403E+01	-7.9870146199E+01	-1.0731372965E+01	8.1324115386E+01	4.1800000000E+00	0.000E+00	0.0
</event>
<event>
    11  -1  1.0000000E+00  1.0000000E+00  -1.0000000E+00  -1.0000000E+00
	2212	-1	0	0	0	0	0.0000000000E+00	0.0000000000E+00	6.5000000000E+03	6.5000000000E+03	9.3827000000E-01	0.000E+00	0.0
	2212	-1	0	0	0	0	0.0000000000E+00	0.0000000000E+00	-6.5000000000E+03	6.5000000000E+03	9.3827000000E-01	0.000E+00	0.0
	2212	1	0	0	0	0	0.0000000000E+00	0.0000000000E+00	6.1871285851E+03	6.1871285851E+03	9.3827000000E-01	0.000E+00	0.0
	2212	1	0	0	0	0	0.0000000000E+00	0.0000000000E+00	-5.6667621548E+03	5.6667621548E+03	9.3827000000E-01	0.000E+00	0.0
	51	2	1	2	0	0	4.8241869835E+01	2.2717958649E+01	-4.1653589510E+02	1.1041425405E+03	1.0211685533E+03	0.000E+00	0.0
	1000022	2	5	5	0	0	-4.8241869835E+01	-2.2717958649E+01	-5.4254354412E+02	1.0082339743E+03	8.4813847100E+02	0.000E+00	0.0
	14	1	6	6	0	0	1.5627714228E+02	1.8804040170E+02	-3.1632471900E+02	5.1523593209E+02	3.2500000000E+02	0.000E+00	0.0
	-14	1	6	6	0	0	-2.0451901211E+02	-2.1075836035E+02	-2.2621882512E+02	4.9299804220E+02	3.2500000000E+02	0.000E+00	0.0
	25	2	5	5	0	0	4.8241869835E+01	2.2717958649E+01	2.2177113834E+01	1.3787528578E+02	1.2519738975E+02	0.000E+00	0.0
	-5	1	9	9	0	501	1.9900696733E+01	1.9320223382E+00	7.3077448172E+01	7.5878562665E+01	4.1800000000E+00	0.000E+00	0.0
	5	1	9	9	501	0	2.8341173101E+01	2.0785936311E+01	-5.0900334338E+01	6.1996723113E+01	4.1800000000E+00	0.000E+00	0.0
</event>
<event>
    11  -1  1.0000000E+00  1.0000000E+00  -1.0000000E+00  -1.0000000E+00
	2212	-1	0	0	0	0	0.0000000000E+00	0.0000000000E+00	6.5000000000E+03	6.5000000000E+03	9.3827000000E-01	0.000E+00	0.0
	2212	-1	0	0	0	0	0.0000000000E+00	0.0000000000E+00	-6.5000000000E+03	6.5000000000E+03	9.3827000000E-01	0.000E+00	0.0
	2212	1	0	0	0	0	0.0000000000E+00	0.0000000000E+00	6.0736591741E+03	6.0736591741E+03	9.3827000000E-01	0.000E+00	0.0
	2212	1	0	0	0	0	0.0000000000E+00	0.0000000000E+00	-5.9052457735E+03	5.9052457735E+03	9.3827000000E-01	0.000E+00	0.0
	51	2	1	2	0	0	-5.8603097401E+01	-4.5177469283E+01	-1.8158075688E+02	1.0260209211E+03	1.0071107350E+03	0.000E+00	0.0
	1000022	2	5	5	0	0	5.8603097401E+01	4.5177469283E+01	-1.3129902581E+02	8.7097775523E+02	8.5783884802E+02	0.000E+00	0.0
	14	1	6	6	0	0	-8.0549304874E+01	-1.9057441445E+02	8.4444622938E+01	3.9441436625E+02	3.2500000000E+02	0.000E+00	0.0
	-14	1	6	6	0	0	1.3915240227E+02	2.3575188373E+02	-2.1574364875E+02	4.7656338898E+02	3.2500000000E+02	0.000E+00	0.0
	25	2	5	5	0	0	-5.8603097401E+01	-4.5177469283E+01	-3.7114374836E+01	1.5011729719E+02	1.2522938688E+02	0.000E+00	0.0
	-5	1	9	9	0	501	1.4284972321E+01	-7.2595902501E+00	-6.1996006802E+01	6.4169613870E+01	4.1800000000E+00	0.000E+00	0.0
	5	1	9	9	501	0	-7.2888069723E+01	-3.7917879033E+01	2.4881631967E+01	8.5947683317E+01	4.1800000000E+00	0.000E+00	0.0
</event>
<event>
    11  -1  1.0000000E+00  1.0000000E+00  -1.0000000E+00  -1.0000000E+00
	2212	-1	0	0	0	0	0.0000000000E+00	0.0000000000E+00	6.5000000000E+03	6.5000000000E+03	9.3827000000E-01	0.000E+00	0.0
	2212	-1	0	0	0	0	0.0000000000E+00	0.0000000000E+00	-6.5000000000E+03	6.5000000000E+03	9.3827000000E-01	0.000E+00	0.0
	2212	1	0	0	0	0	0.0000000000E+00	0.0000000000E+00	5.7972426778E+03	5.7972426778E+03	9.3827000000E-01	0.000E+00	0.0
	2212	1	0	0	0	0	0.0000000000E+00	0.0000000000E+00	-6.1105731494E+03	6.1105731494E+03	9.3827000000E-01	0.000E+00	0.0
	51	2	1	2	0	0	1.2286471730E+02	-1.4075768453E+01	3.8027985000E+02	1.1200879043E+03	1.0462744778E+03	0.000E+00	0.0
	1000022	2	5	5	0	0	-1.2286471730E+02	1.4075768453E+01	1.9327307082E+02	8.7916042723E+02	8.4868999693E+02	0.000E+00	0.0
	14	1	6	6	0	0	1.1288137169E+02	1.8670505955E+01	3.0738271477E+02	4.6173577423E+02	3.2500000000E+02	0.000E+00	0.0
	-14	1	6	6	0	0	-2.3574608899E+02	-4.5947375023E+00	-1.1410964395E+02	4.1742465300E+02	3.2500000000E+02	0.000E+00	0.0
	25	2	5	5	0	0	1.2286471730E+02	-1.4075768453E+01	1.2005740070E+02	2.1302374556E+02	1.2518574478E+02	0.000E+00	0.0
	-5	1	9	9	0	501	7.6009674665E+01	3.7260374688E+00	-6.8400450219E+00	7.6521974712E+01	4.1800000000E+00	0.000E+00	0.0
	5	1	9	9	501	0	4.6855042637E+01	-1.7801805922E+01	1.2689744572E+02	1.3650177085E+02	4.1800000000E+00	0.000E+00	0.0
</event>
<event>
    11  -1  1.0000000E+00  1.0000000E+00  -1.0000000E+00  -1.0000000E+00
	2212	-1	0	0	0	0	0.0000000000E+00	0.0000000000E+00	6.5000000000E+03	6.5000000000E+03	9.3827000000E-01	0.000E+00	0.0
	2212	-1	0	0	0	0	0.0000000000E+00	0.0000000000E+00	-6.5000000000E+03	6.5000000000E+03	9.3827000000E-01	0.000E+00	0.0
	2212	1	0	0	0	0	0.0000000000E+00	0.0000000000E+00	6.1939964754E+03	6.1939964754E+03	9.3827000000E-01	0.000E+00	0.0
	2212	1	0	0	0	0	0.0000000000E+00	0.0000000000E+00	-5.6225815279E+03	5.6225815279E+03	9.3827000000E-01	0.000E+00	0.0
	51	2	1	2	0	0	3.5638439925E+01	-2.8329031445E+01	-4.4139343763E+02	1.1273301997E+03	1.0363264833E+03	0.000E+00	0.0
	1000022	2	5	5	0	0	-3.5638439925E+01	2.8329031445E+01	-6.0769220770E+02	1.0453659023E+03	8.4936883502E+02	0.000E+00	0.0
	14	1	6	6	0	0	-2.6332010317E+02	1.2396860368E+02	-3.7645786289E+02	5.7623885149E+02	3.2500000000E+02	0.000E+00	0.0
	-14	1	6	6	0	0	2.2768166325E+02	-9.5639572234E+01	-2.3123434481E+02	4.6912705078E+02	3.2500000000E+02	0.000E+00	0.0
	25	2	5	5	0	0	3.5638439925E+01	-2.8329031445E+01	3.6277260192E+01	1.3805609438E+02	1.2518311853E+02	0.000E+00	0.0
	-5	1	9	9	0	501	6.8345266929E+01	-6.0993591190E+00	-1.7724456802E+01	7.0992298611E+01	4.1800000000E+00	0.000E+00	0.0
	5	1	9	9	501	0	-3.2706827004E+01	-2.2229672326E+01	5.4001716994E+01	6.7063795767E+01	4.1800000000E+00	0.000E+00	0.0
</event>
<event>
    11  -1  1.0000000E+00  1.0000000E+00  -1.0000000E+00  -1.0000000E+00
	2212	-1	0	0	0	0	0.0000000000E+00	0.0000000000E+00	6.5000000000E+03	6.5000000000E+03	9.3827000000E-01	0.000E+00	0.0
	2212	-1	0	0	0	0	0.0000000000E+00	0.0000000000E+00	-6.5000000000E+03	6.5000000000E+03	9.3827000000E-01	0.000E+00	0.0
	2212	1	0	0	0	0	0.0000000000E+00	0.0000000000E+00	6.3269021598E+03	6.3269021598E+03	9.3827000000E-01	0.000E+00	0.0
	2212	1	0	0	0	0	0.0000000000E+00	0.0000000000E+00	-4.9178317276E+03	4.9178317276E+03	9.3827000000E-01	0.000E+00	0.0
	51	2	1	2	0	0	9.8890419302E+01	8.3971617508E+01	-1.4891328703E+03	1.8247813284E+03	1.0466516342E+03	0.000E+00	0.0
	1000022	2	5	5	0	0	-9.8890419302E+01	-8.3971617508E+01	-1.0920448408E+03	1.3905680705E+03	8.5105057234E+02	0.000E+00	0.0
	14	1	6	6	0	0	-3.1706534730E+01	-2.6227703785E+02	-3.0536440993E+02	5.1833094812E+02	3.2500000000E+02	0.000E+00	0.0
	-14	1	6	6	0	0	-6.7183884572E+01	1.7830542034E+02	-7.8668043088E+02	8.7223712234E+02	3.2500000000E+02	0.000E+00	0.0
	25	2	5	5	0	0	9.8890419302E+01	8.3971617508E+01	-3.1702559138E+02	3.6469804217E+02	1.2517543210E+02	0.000E+00	0.0
	-5	1	9	9	0	501	1.6647407070E+01	-3.1311322481E+01	-4.0504583969E+01	5.3996562855E+01	4.1800000000E+00	0.000E+00	0.0
	5	1	9	9	501	0	8.2243012231E+01	1.1528293999E+02	-2.7652100741E+02	3.1070147932E+02	4.1800000000E+00	0.000E+00	0.0
</event>
<event>
    11  -1  1.0000000E+00  1.0000000E+00  -1.0000000E+00  -1.0000000E+00
	2212	-1	0	0	0	0	0.0000000000E+00	0.0000000000E+00	6.5000000000E+03	6.5000000000E+03	9.3827000000E-01	0.000E+00	0.0
	2212	-1	0	0	0	0	0.0000000000E+00	0.0000000000E+00	-6.5000000000E+03	6.5000000000E+03	9.3827000000E-01	0.000E+00	0.0
	2212	1	0	0	0	0	0.0000000000E+00	0.0000000000E+00	5.9667567912E+03	5.9667567912E+03	9.3827000000E-01	0.000E+00	0.0
	2212	1	0	0	0	0	0.0000000000E+00	0.0000000000E+00	-6.0141351525E+03	6.0141351525E+03	9.3827000000E-01	0.000E+00	0.0
	51	2	1	2	0	0	1.1035020470E+02	3.9279030060E+01	-2.7148718371E+01	1.0250822329E+03	1.0180061500E+03	0.000E+00	0.0
	1000022	2	5	5	0	0	-1.1035020470E+02	-3.9279030060E+01	1.1363853974E+02	8.3531292368E+02	8.1921544960E+02	0.000E+00	0.0
	14	1	6	6	0	0	1.0789633837E+02	-9.4694413283E+01	-1.2125982652E+02	3.7541656499E+02	3.2500000000E+02	0.000E+00	0.0
	-14	1	6	6	0	0	-2.1824654307E+02	5.5415383223E+01	2.3489836626E+02	4.5989635869E+02	3.2500000000E+02	0.000E+00	0.0
	25	2	5	5	0	0	1.1035020470E+02	3.9279030060E+01	-6.6260178516E+01	1.8379513264E+02	1.2518078785E+02	0.000E+00	0.0
	-5	1	9	9	0	501	1.1662310685E+02	-7.6589853123E+00	-2.2321417626E+01	1.1906018306E+02	4.1800000000E+00	0.000E+00	0.0
	5	1	9	9	501	0	-6.2729021430E+00	4.6938015372E+01	-4.3938760891E+01	6.4734949579E+01	4.1800000000E+00	0.000E+00	0.0
</event>
<event>
    11  -1  1.0000000E+00  1.0000000E+00  -1.0000000E+00  -1.0000000E+00
	2212	-1	0	0	0	0	0.0000000000E+00	0.0000000000E+00	6.5000000000E+03	6.5000000000E+03	9.3827000000E-01	0.000E+00	0.0
	2212	-1	0	0	0	0	0.0000000000E+00	0.0000000000E+00	-6.5000000000E+03	6.5000000000E+03	9.3827000000E-01	0.000E+00	0.0
	2212	1	0	0	0	0	0.0000000000E+00	0.0000000000E+00	5.0974249185E+03	5.0974249185E+03	9.3827000000E-01	0.000E+00	0.0
	2212	1	0	0	0	0	0.0000000000E+00	0.0000000000E+00	-6.3042262138E+03	6.3042262138E+03	9.3827000000E-01	0.000E+00	0.0
	51	2	1	2	0	0	-8.5556045026E+01	9.8172204888E+01	1.3137466717E+03	1.6855971265E+03	1.0480218207E+03	0.000E+00	0.0
	1000022	2	5	5	0	0	8.5556045026E+01	-9.8172204888E+01	8.9113459103E+02	1.2346594921E+03	8.4457420243E+02	0.000E+00	0.0
	14	1	6	6	0	0	8.1991883049E+01	-2.9542649300E+02	6.3423525396E+02	7.7580850667E+02	3.2500000000E+02	0.000E+00	0.0
	-14	1	6	6	0	0	3.5641619773E+00	1.9725428811E+02	2.5689933707E+02	4.5885098542E+02	3.2500000000E+02	0.000E+00	0.0
	25	2	5	5	0	0	-8.5556045026E+01	9.8172204888E+01	3.1566670425E+02	3.6368937567E+02	1.2516738851E+02	0.000E+00	0.0
	-5	1	9	9	0	501	-3.2758111482E+01	1.2956686792E+01	3.3270794707E+00	3.5630204297E+01	4.1800000000E+00	0.000E+00	0.0
	5	1	9	9	501	0	-5.2797933544E+01	8.5215518096E+01	3.1233962478E+02	3.2805917137E+02	4.1800000000E+00	0.000E+00	0.0
</event>
<event>
    11  -1  1.0000000E+00  1.0000000E+00  -1.0000000E+00  -1.0000000E+00
	2212	-1	0	0	0	0	0.0000000000E+00	0.0000000000E+00	6.5000000000E+03	6.5000000000E+03	9.3827000000E-01	0.000E+00	0.0
	2212	-1	0	0	0	0	0.0000000000E+00	0.0000000000E+00	-6.5000000000E+03	6.5000000000E+03	9.3827000000E-01	0.000E+00	0.0
	2212	1	0	0	0	0	0.0000000000E+00	0.0000000000E+00	6.2992173002E+03	6.2992173002E+03	9.3827000000E-01	0.000E+00	0.0
	2212	1	0	0	0	0	0.0000000000E+00	0.0000000000E+00	-5.1270713970E+03	5.1270713970E+03	9.3827000000E-01	0.000E+00	0.0
	51	2	1	2	0	0	-2.9825657472E+01	-8.9211268884E+01	-1.2886791313E+03	1.6649874985E+03	1.0500672580E+03	0.000E+00	0.0
	1000022	2	5	5	0	0	2.9825657472E+01	8.9211268884E+01	-8.7040940885E+02	1.2337830644E+03	8.6934451786E+02	0.000E+00	0.0
	14	1	6	6	0	0	-3.9714801970E+01	-1.4374724673E+02	-7.1452521153E+02	7.9900676740E+02	3.2500000000E+02	0.000E+00	0.0
	-14	1	6	6	0	0	6.9540459442E+01	2.3295851561E+02	-1.5588419732E+02	4.3477629704E+02	3.2500000000E+02	0.000E+00	0.0
	25	2	5	5	0	0	-2.9825657472E+01	-8.9211268884E+01	-3.0173649426E+02	3.3992823836E+02	1.2513222977E+02	0.000E+00	0.0
	-5	1	9	9	0	501	-4.1255200569E+01	-1.0772243369E+02	-1.6475000116E+02	2.0116199834E+02	4.1800000000E+00	0.000E+00	0.0
	5	1	9	9	501	0	1.1429543097E+01	1.8511164807E+01	-1.3698649310E+02	1.3876624002E+02	4.1800000000E+00	0.000E+00	0.0
</event>
<event>
    11  -1  1.0000000E+00  1.0000000E+00  -1.0000000E+00  -1.0000000E+00
	2212	-1	0	0	0	0	0.0000000000E+00	0.0000000000E+00	6.5000000000E+03	6.5000000000E+03	9.3827000000E-01	0.000E+00	0.0
	2212	-1	0	0	0	0	0.0000000000E+00	0.0000000000E+00	-6.5000000000E+03	6.5000000000E+03	9.3827000000E-01	0.000E+00	0.0
	2212	1	0	0	0	0	0.0000000000E+00	0.0000000000E+00	6.3158738505E+03	6.3158738505E+03	9.3827000000E-01	0.000E+00	0.0
	2212	1	0	0	0	0	0.0000000000E+00	0.0000000000E+00	-4.9940978777E+03	4.9940978777E+03	9.3827000000E-01	0.000E+00	0.0
	51	2	1	2	0	0	-1.2065210151E+02	-1.0066681488E+01	-1.2057031284E+03	1.6054538731E+03	1.0531399893E+03	0.000E+00	0.0
	1000022	2	5	5	0	0	1.2065210151E+02	1.0066681488E+01	-1.2097573695E+03	1.4829639941E+03	8.4912369355E+02	0.000E+00	0.0
	14	1	6	6	0	0	1.0987720000E+02	-1.8674541491E+02	-2.8615820858E+02	4.8420901418E+02	3.2500000000E+02	0.000E+00	0.0
	-14	1	6	6	0	0	1.0774901509E+01	1.9681209640E+02	-9.2359916092E+02	9.9875497988E+02	3.2500000000E+02	0.000E+00	0.0
	25	2	5	5	0	0	-1.2065210151E+02	-1.0066681488E+01	-1.1201860335E+02	2.0706427776E+02	1.2517659508E+02	0.000E+00	0.0
	-5	1	9	9	0	501	-1.2563854542E+02	-4.0818731609E+00	-1.3375329292E+02	1.8360043995E+02	4.1800000000E+00	0.000E+00	0.0
	5	1	9	9	501	0	4.9864439145E+00	-5.9848083269E+00	2.1734689577E+01	2.3463837807E+01	4.1800000000E+00	0.000E+00	0.0
</event>
<event>
    11  -1  1.0000000E+00  1.0000000E+00  -1.0000000E+00  -1.0000000E+00
	2212	-1	0	0	0	0	0.0000000000E+00	0.0000000000E+00	6.5000000000E+03	6.5000000000E+03	9.3827000000E-01	0.000E+00	0.0
	2212	-1	0	0	0	0	0.0000000000E+00	0.0000000000E+00	-6.5000000000E+03	6.5000000000E+03	9.3827000000E-01	0.000E+00	0.0
	2212	1	0	0	0	0	0.0000000000E+00	0.0000000000E+00	5.7603276433E+03	5.7603276433E+03	9.3827000000E-01	0.000E+00	0.0
	2212	1	0	0	0	0	0.0000000000E+00	0.0000000000E+00	-6.1244369807E+03	6.1244369807E+03	9.3827000000E-01	0.000E+00	0.0
	51	2	1	2	0	0	-7.2517475960E+00	-1.0101741584E+02	4.4940921448E+02	1.1503912737E+03	1.0541225424E+03	0.000E+00	0.0
	1000022	2	5	5	0	0	7.2517475960E+00	1.0101741584E+02	2.1966376835E+02	8.9892134504E+02	8.6576573465E+02	0.000E+00	0.0
	14	1	6	6	0	0	1.4164086484E+02	-1.1560767635E+02	-8.8891464482E+01	3.8334574718E+02	3.2500000000E+02	0.000E+00	0.0
	-14	1	6	6	0	0	-1.3438911724E+02	2.1662509219E+02	3.0855523283E+02	5.1557559786E+02	3.2500000000E+02	0.000E+00	0.0
	25	2	5	5	0	0	-7.2517475960E+00	-1.0101741584E+02	1.4444556898E+02	2.1631403098E+02	1.2518039565E+02	0.000E+00	0.0
	-5	1	9	9	0	501	4.0589429972E+01	-1.0169762127E+02	7.8776720079E+01	1.3495611147E+02	4.1800000000E+00	0.000E+00	0.0
	5	1	9	9	501	0	-4.7841177568E+01	6.8020543442E-01	6.5668848900E+01	8.1357919507E+01	4.1800000000E+00	0.000E+00	0.0
</event>
<event>
    11  -1  1.0000000E+00  1.0000000E+00  -1.0000000E+00  -1.0000000E+00
	2212	-1	0	0	0	0	0.0000000000E+00	0.0000000000E+00	6.5000000000E+03	6.5000000000E+03	9.3827000000E-01	0.000E+00	0.0
	2212	-1	0	0	0	0	0.0000000000E+00	0.0000000000E+00	-6.5000000000E+03	6.5000000000E+03	9.3827000000E-01	0.000E+00	0.0
	2212	1	0	0	0	0	0.0000000000E+00	0.0000000000E+00	5.9407069920E+03	5.9407069920E+03	9.3827000000E-01	0.000E+00	0.0
	2212	1	0	0	0	0	0.0000000000E+00	0.0000000000E+00	-6.0084889172E+03	6.0084889172E+03	9.3827000000E-01	0.000E+00	0.0
	51	2	1	2	0	0	1.2494976954E+02	-4.1775324421E+01	1.2379963564E+02	1.0640859083E+03	1.0486156816E+03	0.000E+00	0.0
	1000022	2	5	5	0	0	-1.2494976954E+02	4.1775324421E+01	1.1164760910E-01	8.5687580749E+02	8.4668678645E+02	0.000E+00	0.0
	14	1	6	6	0	0	-2.3245501082E+02	1.9106554475E+02	1.2981133331E+02	4.6153803386E+02	3.2500000000E+02	0.000E+00	0.0
	-14	1	6	6	0	0	1.0750524127E+02	-1.4929022033E+02	-1.2969968570E+02	3.9533777363E+02	3.2500000000E+02	0.000E+00	0.0
	25	2	5	5	0	0	1.2494976954E+02	-4.1775324421E+01	6.7670277592E+01	1.9392828327E+02	1.2518502283E+02	0.000E+00	0.0
	-5	1	9	9	0	501	6.2236467401E+01	-2.8705966359E+01	-3.1696599965E+01	7.5627754353E+01	4.1800000000E+00	0.000E+00	0.0
	5	1	9	9	501	0	6.2713302143E+01	-1.3069358061E+01	9.9366877558E+01	1.1830052891E+02	4.1800000000E+00	0.000E+00	0.0
</event>
<event>
    11  -1  1.0000000E+00  1.0000000E+00  -1.0000000E+00  -1.0000000E+00
	2212	-1	0	0	0	0	0.0000000000E+00	0.0000000000E+00	6.5000000000E+03	6.5000000000E+03	9.3827000000E-01	0.000E+00	0.0
	2212	-1	0	0	0	0	0.0000000000E+00	0.0000000000E+00	-6.5000000000E+03	6.5000000000E+03	9.3827000000E-01	0.000E+00	0.0
	2212	1	0	0	0	0	0.0000000000E+00	0.0000000000E+00	5.1186262875E+03	5.1186262875E+03	9.3827000000E-01	0.000E+00	0.0
	2212	1	0	0	0	0	0.0000000000E+00	0.0000000000E+00	-6.2983315497E+03	6.2983315497E+03	9.3827000000E-01	0.000E+00	0.0
	51	2	1	2	0	0	-6.2435271897E+01	1.7202414603E+02	1.3556193702E+03	1.7278635162E+03	1.0556126106E+03	0.000E+00	0.0
	1000022	2	5	5	0	0	6.2435271897E+01	-1.7202414603E+02	7.5403356507E+02	1.1030720170E+03	7.8403494025E+02	0.000E+00	0.0
	14	1	6	6	0	0	-1.7240735156E+02	-1.3650617549E+02	4.5968458177E+02	6.0439485896E+02	3.2500000000E+02	0.000E+00	0.0
	-14	1	6	6	0	0	2.3484262346E+02	-3.5517970539E+01	2.9434898330E+02	4.9867715808E+02	3.2500000000E+02	0.000E+00	0.0
	25	2	5	5	0	0	-6.2435271897E+01	1.7202414603E+02	4.2567169712E+02	4.7997014576E+02	1.2523768242E+02	0.000E+00	0.0
	-5	1	9	9	0	501	2.4034180436E+00	9.1751113198E+01	3.1703331789E+02	3.3007823352E+02	4.1800000000E+00	0.000E+00	0.0
	5	1	9	9	501	0	-6.4838689940E+01	8.0273032833E+01	1.0863837922E+02	1.4989191224E+02	4.1800000000E+00	0.000E+00	0.0
</event>
<event>
    11  -1  1.0000000E+00  1.0000000E+00  -1.0000000E+00  -1.0000000E+00
	2212	-1	0	0	0	0	0.0000000000E+00	0.0000000000E+00	6.5000000000E+03	6.5000000000E+03	9.3827000000E-01	0.000E+00	0.0
	2212	-1	0	0	0	0	0.0000000000E+00	0.0000000000E+00	-6.5000000000E+03	6.5000000000E+03	9.3827000000E-01	0.000E+00	0.0
	2212	1	0	0	0	0	0.0000000000E+00	0.0000000000E+00	5.5357939018E+03	5.5357939018E+03	9.3827000000E-01	0.000E+00	0.0
	2212	1	0	0	0	0	0.0000000000E+00	0.0000000000E+00	-6.2178363813E+03	6.2178363813E+03	9.3827000000E-01	0.000E+00	0.0
	51	2	1	2	0	0	-5.5621568231E+01	4.1016890634E+01	7.6914569884E+02	1.2979278783E+03	1.0431948654E+03	0.000E+00	0.0
	1000022	2	5	5	0	0	5.5621568231E+01	-4.1016890634E+01	4.9379026444E+02	1.0099710960E+03	8.7831466189E+02	0.000E+00	0.0
	14	1	6	6	0	0	-1.9885293512E+02	-1.0078546953E+02	4.3794597754E+02	5.8917050157E+02	3.2500000000E+02	0.000E+00	0.0
	-14	1	6	6	0	0	2.5447450335E+02	5.9768578897E+01	5.5844286895E+01	4.2080059441E+02	3.2500000000E+02	0.000E+00	0.0
	25	2	5	5	0	0	-5.5621568231E+01	4.1016890634E+01	1.8825221508E+02	2.3639862084E+02	1.2517694390E+02	0.000E+00	0.0
	-5	1	9	9	0	501	-3.4141176571E+01	8.3732917720E+01	9.3249680577E+01	1.2996075090E+02	4.1800000000E+00	0.000E+00	0.0
	5	1	9	9	501	0	-2.1480391659E+01	-4.2716027086E+01	9.5002534500E+01	1.0643786994E+02	4.1800000000E+00	0.000E+00	0.0
</event>
<event>
    11  -1  1.0000000E+00  1.0000000E+00  -1.0000000E+00  -1.0000000E+00
	2212	-1	0	0	0	0	0.0000000000E+00	0.0000000000E+00	6.5000000000E+03	6.5000000000E+03	9.3827000000E-01	0.000E+00	0.0
	2212	-1	0	0	0	0	0.0000000000E+00	0.0000000000E+00	-6.5000000000E+03	6.5000000000E+03	9.3827000000E-01	0.000E+00	0.0
	2212	1	0	0	0	0	0.0000000000E+00	0.0000000000E+00	6.2774206593E+03	6.2774206593E+03	9.3827000000E-01	0.000E+00	0.0
	2212	1	0	0	0	0	0.0000000000E+00	0.0000000000E+00	-5.2511182620E+03	5.2511182620E+03	9.3827000000E-01	0.000E+00	0.0
	51	2	1	2	0	0	-6.6838380692E+01	7.3911950250E+01	-1.1923100353E+03	1.5948149301E+03	1.0544672093E+03	0.000E+00	0.0
	1000022	2	5	5	0	0	6.6838380692E+01	-7.3911950250E+01	-6.8070620878E+02	1.0906221401E+03	8.4626554011E+02	0.000E+00	0.0
	14	1	6	6	0	0	6.3458094598E+01	-3.2251372313E+01	2.7050249073E+00	3.3271519043E+02	3.2500000000E+02	0.000E+00	0.0
	-14	1	6	6	0	0	3.3802860937E+00	-4.1660577936E+01	-6.8341123369E+02	7.5790694971E+02	3.2500000000E+02	0.000E+00	0.0
	25	2	5	5	0	0	-6.6838380692E+01	7.3911950250E+01	-3.4559618847E+02	3.8083893851E+02	1.2518476775E+02	0.000E+00	0.0
	-5	1	9	9	0	501	-7.0663850866E+01	5.4381427273E+01	-9.8589506205E+01	1.3299655103E+02	4.1800000000E+00	0.000E+00	0.0
	5	1	9	9	501	0	3.8254701747E+00	1.9530522977E+01	-2.4700668226E+02	2.4784238748E+02	4.1800000000E+00	0.000E+00	0.0
</event>
<event>
    11  -1  1.0000000E+00  1.0000000E+00  -1.0000000E+00  -1.0000000E+00
	2212	-1	0	0	0	0	0.0000000000E+00	0.0000000000E+00	6.5000000000E+03	6.5000000000E+03	9.3827000000E-01	0.000E+00	0.0
	2212	-1	0	0	0	0	0.0000000000E+00	0.0000000000E+00	-6.5000000000E+03	6.5000000000E+03	9.3827000000E-01	0.000E+00	0.0
	2212	1	0	0	0	0	0.0000000000E+00	0.0000000000E+00	5.7987038028E+03	5.7987038028E+03	9.3827000000E-01	0.000E+00	0.0
	2212	1	0	0	0	0	0.0000000000E+00	0.0000000000E+00	-6.0900439154E+03	6.0900439154E+03	9.3827000000E-01	0.000E+00	0.0
	51	2	1	2	0	0	-1.6395201122E+02	2.7419803732E+01	2.9895597260E+02	1.1256151002E+03	1.0723817289E+03	0.000E+00	0.0
	1000022	2	5	5	0	0	1.6395201122E+02	-2.7419803732E+01	2.3066389576E+02	8.9450249294E+02	8.4811365361E+02	0.000E+00	0.0
	14	1	6	6	0	0	2.6066674359E+02	2.4470469192E+01	-8.7752241196E+01	4.2646384479E+02	3.2500000000E+02	0.000E+00	0.0
	-14	1	6	6	0	0	-9.6714732378E+01	-5.1890272924E+01	3.1841613696E+02	4.6803864815E+02	3.2500000000E+02	0.000E+00	0.0
	25	2	5	5	0	0	-1.6395201122E+02	2.7419803732E+01	6.0676216922E+01	2.1674978887E+02	1.2516692877E+02	0.000E+00	0.0
	-5	1	9	9	0	501	-2.6957589403E+00	2.5424769429E+01	4.8478482533E+01	5.4966550606E+01	4.1800000000E+00	0.000E+00	0.0
	5	1	9	9	501	0	-1.6125625228E+02	1.9950343034E+00	1.2197734389E+01	1.6178323827E+02	4.1800000000E+00	0.000E+00	0.0
</event>
<event>
    11  -1  1.0000000E+00  1.0000000E+00  -1.0000000E+00  -1.0000000E+00
	2212	-1	0	0	0	0	0.0000000000E+00	0.0000000000E+00	6.5000000000E+03	6.5000000000E+03	9.3827000000E-01	0.000E+00	0.0
	2212	-1	0	0	0	0	0.0000000000E+00	0.0000000000E+00	-6.5000000000E+03	6.5000000000E+03	9.3827000000E-01	0.000E+00	0.0
	2212	1	0	0	0	0	0.0000000000E+00	0.0000000000E+00	6.2345919730E+03	6.2345919730E+03	9.3827000000E-01	0.000E+00	0.0
	2212	1	0	0	0	0	0.0000000000E+00	0.0000000000E+00	-5.4691370847E+03	5.4691370847E+03	9.3827000000E-01	0.000E+00	0.0
	51	2	1	2	0	0	-7.1258864257E+01	-7.5518237220E+01	-6.8842686422E+02	1.2566262559E+03	1.0461343937E+03	0.000E+00	0.0
	1000022	2	5	5	0	0	7.1258864257E+01	7.5518237220E+01	-7.1922141870E+02	1.1271766225E+03	8.6166516658E+02	0.000E+00	0.0
	14	1	6	6	0	0	-1.3466753189E+01	2.3577331800E+02	-1.1556496782E+02	4.1803190394E+02	3.2500000000E+02	0.000E+00	0.0
	-14	1	6	6	0	0	8.4725617445E+01	-1.6025508078E+02	-6.0365645088E+02	7.0914471856E+02	3.2500000000E+02	0.000E+00	0.0
	25	2	5	5	0	0	-7.1258864257E+01	-7.5518237220E+01	-4.6233469639E+01	1.6909431978E+02	1.2519794479E+02	0.000E+00	0.0
	-5	1	9	9	0	501	-2.8948829615E+01	-6.2187281774E+01	-8.5506316741E+01	1.0970002440E+02	4.1800000000E+00	0.000E+00	0.0
	5	1	9	9	501	0	-4.2310034642E+01	-1.3330955445E+01	3.9272847102E+01	5.9394295383E+01	4.1800000000E+00	0.000E+00	0.0
</event>
<event>
    11  -1  1.0000000E+00  1.0000000E+00  -1.0000000E+00  -1.0000000E+00
	2212	-1	0	0	0	0	0.0000000000E+00	0.0000000000E+00	6.5000000000E+03	6.5000000000E+03	9.3827000000E-01	0.000E+00	0.0
	2212	-1	0	0	0	0	0.0000000000E+00	0.0000000000E+00	-6.5000000000E+03	6.5000000000E+03	9.3827000000E-01	0.000E+00	0.0
	2212	1	0	0	0	0	0.0000000000E+00	0.0000000000E+00	6.1669196225E+03	6.1669196225E+03	9.3827000000E-01	0.000E+00	0.0
	2212	1	0	0	0	0	0.0000000000E+00	0.0000000000E+00	-5.6910513974E+03	5.6910513974E+03	9.3827000000E-01	0.000E+00	0.0
	51	2	1	2	0	0	-4.0020467868E+01	4.6468826674E+01	-3.4873309651E+02	1.0968843995E+03	1.0381616558E+03	0.000E+00	0.0
	1000022	2	5	5	0	0	4.0020467868E+01	-4.6468826674E+01	-5.2289960453E+02	9.9493378048E+02	8.4422049337E+02	0.000E+00	0.0
	14	1	6	6	0	0	-1.7199662440E+02	-7.4825870353E+01	-4.7132107627E+02	6.0245357217E+02	3.2500000000E+02	0.000E+00	0.0
	-14	1	6	6	0	0	2.1201709227E+02	2.8357043679E+01	-5.1578528261E+01	3.9248020831E+02	3.2500000000E+02	0.000E+00	0.0
	25	2	5	5	0	0	-4.0020467868E+01	4.6468826674E+01	4.7031379434E+01	1.4709519956E+02	1.2515613202E+02	0.000E+00	0.0
	-5	1	9	9	0	501	-2.3676522733E+01	-4.1522054785E+01	2.7829177534E+01	5.5467055848E+01	4.1800000000E+00	0.000E+00	0.0
	5	1	9	9	501	0	-1.6343945135E+01	8.7990881459E+01	1.9202201900E+01	9.1628143713E+01	4.1800000000E+00	0.000E+00	0.0
</event>
<event>
    11  -1  1.0000000E+00  1.0000000E+00  -1.0000000E+00  -1.0000000E+00
	2212	-1	0	0	0	0	0.0000000000E+00	0.0000000000E+00	6.5000000000E+03	6.5000000000E+03	9.3827000000E-01	0.000E+00	0.0
	2212	-1	0	0	0	0	0.0000000000E+00	0.0000000000E+00	-6.5000000000E+03	6.5000000000E+03	9.3827000000E-01	0.000E+00	0.0
	2212	1	0	0	0	0	0.0000000000E+00	0.0000000000E+00	5.5428546878E+03	5.5428546878E+03	9.3827000000E-01	0.000E+00	0.0
	2212	1	0	0	0	0	0.0000000000E+00	0.0000000000E+00	-6.2125994178E+03	6.2125994178E+03	9.3827000000E-01	0.000E+00	0.0
	51	2	1	2	0	0	-2.5569631072E+01	-9.6322041678E+01	5.4215408121E+02	1.1849891433E+03	1.0489692465E+03	0.000E+00	0.0
	1000022	2	5	5	0	0	2.5569631072E+01	9.6322041678E+01	6.7903579727E+02	1.0842737290E+03	8.3942132663E+02	0.000E+00	0.0
	14	1	6	6	0	0	-3.7050976572E+01	3.0450611790E+02	2.9031910755E+02	5.3292301031E+02	3.2500000000E+02	0.000E+00	0.0
	-14	1	6	6	0	0	6.2620607644E+01	-2.0818407623E+02	3.8871668973E+02	5.5135071866E+02	3.2500000000E+02	0.000E+00	0.0
	25	2	5	5	0	0	-2.5569631072E+01	-9.6322041678E+01	-9.2910672768E+00	1.6027216551E+02	1.2517628114E+02	0.000E+00	0.0
	-5	1	9	9	0	501	-6.1614730247E+01	-1.0533932782E+02	-1.7008790231E+00	1.2211926285E+02	4.1800000000E+00	0.000E+00	0.0
	5	1	9	9	501	0	3.6045099175E+01	9.0172861436E+00	-7.5901882537E+00	3.8152902664E+01	4.1800000000E+00	0.000E+00	0.0
</event>
<event>
    11  -1  1.0000000E+00  1.0000000E+00  -1.0000000E+00  -1.0000000E+00
	2212	-1	0	0	0	0	0.0000000000E+00	0.0000000000E+00	6.5000000000E+03	6.5000000000E+03	9.3827000000E-01	0.000E+00	0.0
	2212	-1	0	0	0	0	0.0000000000E+00	0.0000000000E+00	-6.5000000000E+03	6.5000000000E+03	9.3827000000E-01	0.000E+00	0.0
	2212	1	0	0	0	0	0.0000000000E+00	0.0000000000E+00	5.2591824146E+03	5.2591824146E+03	9.3827000000E-01	0.000E+00	0.0
	2212	1	0	0	0	0	0.0000000000E+00	0.0000000000E+00	-6.2759715529E+03	6.2759715529E+03	9.3827000000E-01	0.000E+00	0.0
	51	2	1	2	0	0	6.2138842455E+01	-1.1993190177E+02	1.1359930453E+03	1.5558402369E+03	1.0544732082E+03	0.000E+00	0.0
	1000022	2	5	5	0	0	-6.2138842455E+01	1.1993190177E+02	7.1629707056E+02	1.1126774772E+03	8.4066924425E+02	0.000E+00	0.0
	14	1	6	6	0	0	-1.6648338542E+02	1.3951580272E+01	6.7013002342E+01	3.7151999501E+02	3.2500000000E+02	0.000E+00	0.0
	-14	1	6	6	0	0	1.0434454296E+02	1.0598032150E+02	6.4928406822E+02	7.4115748221E+02	3.2500000000E+02	0.000E+00	0.0
	25	2	5	5	0	0	6.2138842455E+01	-1.1993190177E+02	3.0049206776E+02	3.5216855520E+02	1.2442793771E+02	0.000E+00	0.0
	-5	1	9	9	0	501	4.0426273462E+01	-1.3162861199E+02	2.9636215198E+02	3.2681550240E+02	4.1800000000E+00	0.000E+00	0.0
	5	1	9	9	501	0	2.1712568993E+01	1.1696710222E+01	4.1299157810E+00	2.5353052807E+01	4.1800000000E+00	0.000E+00	0.0
</event>
<event>
    11  -1  1.0000000E+00  1.0000000E+00  -1.0000000E+00  -1.0000000E+00
	2212	-1	0	0	0	0	0.0000000000E+00	0.0000000000E+00	6.5000000000E+03	6.5000000000E+03	9.3827000000E-01	0.000E+00	0.0
	2212	-1	0	0	0	0	0.0000000000E+00	0.0000000000E+00	-6.5000000000E+03	6.5000000000E+03	9.3827000000E-01	0.000E+00	0.0
	2212	1	0	0	0	0	0.0000000000E+00	0.0000000000E+00	6.3212335667E+03	6.3212335667E+03	9.3827000000E-01	0.000E+00	0.0
	2212	1	0	0	0	0	0.0000000000E+00	0.0000000000E+00	-5.0591533741E+03	5.0591533741E+03	9.3827000000E-01	0.000E+00	0.0
	51	2	1	2	0	0	-1.1115387822E+01	-7.6527656226E+01	-1.1579247092E+03	1.5417748588E+03	1.0150369694E+03	0.000E+00	0.0
	1000022	2	5	5	0	0	1.1115387822E+01	7.6527656226E+01	-1.1705437818E+03	1.4463220927E+03	8.4598748023E+02	0.000E+00	0.0
	14	1	6	6	0	0	-1.2991272066E+02	1.8500685748E+02	-9.1286244861E+02	9.9501140817E+02	3.2500000000E+02	0.000E+00	0.0
	-14	1	6	6	0	0	1.4102810848E+02	-1.0847920126E+02	-2.5768133314E+02	4.5131068449E+02	3.2500000000E+02	0.000E+00	0.0
	25	2	5	5	0	0	-1.1115387822E+01	-7.6527656226E+01	-9.1536410815E+01	1.7329096660E+02	1.2518310823E+02	0.000E+00	0.0
	-5	1	9	9	0	501	2.3090747035E+01	1.1655498060E+01	1.5458382475E+01	3.0421492771E+01	4.1800000000E+00	0.000E+00	0.0
	5	1	9	9	501	0	-3.4206134858E+01	-8.8183154286E+01	-1.0699479329E+02	1.4286947383E+02	4.1800000000E+00	0.000E+00	0.0
</event>
<event>
    11  -1  1.0000000E+00  1.0000000E+00  -1.0000000E+00  -1.0000000E+00
	2212	-1	0	0	0	0	0.0000000000E+00	0.0000000000E+00	6.5000000000E+03	6.5000000000E+03	9.3827000000E-01	0.000E+00	0.0
	2212	-1	0	0	0	0	0.0000000000E+00	0.0000000000E+00	-6.5000000000E+03	6.5000000000E+03	9.3827000000E-01	0.000E+00	0.0
	2212	1	0	0	0	0	0.0000000000E+00	0.0000000000E+00	5.3807598624E+03	5.3807598624E+03	9.3827000000E-01	0.000E+00	0.0
	2212	1	0	0	0	0	0.0000000000E+00	0.0000000000E+00	-6.2530410561E+03	6.2530410561E+03	9.3827000000E-01	0.000E+00	0.0
	51	2	1	2	0	0	1.1983219377E+02	-2.0035358675E+01	9.7636098629E+02	1.4400234010E+03	1.0514872560E+03	0.000E+00	0.0
	1000022	2	5	5	0	0	-1.1983219377E+02	2.0035358675E+01	6.1895436915E+02	1.0586185382E+03	8.5018087960E+02	0.000E+00	0.0
	14	1	6	6	0	0	-2.5743503015E+02	-1.4352992424E+02	1.8588441890E+02	4.7649937155E+02	3.2500000000E+02	0.000E+00	0.0
	-14	1	6	6	0	0	1.3760283638E+02	1.6356528291E+02	4.3306995025E+02	5.8211916663E+02	3.2500000000E+02	0.000E+00	0.0
	25	2	5	5	0	0	1.1983219377E+02	-2.0035358675E+01	2.5332682458E+02	3.0758054336E+02	1.2518043114E+02	0.000E+00	0.0
	-5	1	9	9	0	501	1.3804597691E+02	1.7463622798E+00	1.6761295723E+02	2.1718958850E+02	4.1800000000E+00	0.000E+00	0.0
	5	1	9	9	501	0	-1.8213783138E+01	-2.1781720954E+01	8.5713867355E+01	9.0390954862E+01	4.1800000000E+00	0.000E+00	0.0
</event>
<event>
    11  -1  1.0000000E+00  1.0000000E+00  -1.0000000E+00  -1.0000000E+00
	2212	-1	0	0	0	0	0.0000000000E+00	0.0000000000E+00	6.5000000000E+03	6.5000000000E+03	9.3827000000E-01	0.000E+00	0.0
	2212	-1	0	0	0	0	0.0000000000E+00	0.0000000000E+00	-6.5000000000E+03	6.5000000000E+03	9.3827000000E-01	0.000E+00	0.0
	2212	1	0	0	0	0	0.0000000000E+00	0.0000000000E+00	5.7862704445E+03	5.7862704445E+03	9.3827000000E-01	0.000E+00	0.0
	2212	1	0	0	0	0	0.0000000000E+00	0.0000000000E+00	-6.1136973549E+03	6.1136973549E+03	9.3827000000E-01	0.000E+00	0.0
	51	2	1	2	0	0	8.6114111678E+01	-5.5394441837E+01	4.1609443238E+02	1.1342315556E+03	1.0501725861E+03	0.000E+00	0.0
	1000022	2	5	5	0	0	-8.6114111678E+01	5.5394441837E+01	1.8474124333E+02	8.8435204133E+02	8.5875783642E+02	0.000E+00	0.0
	14	1	6	6	0	0	3.9045940366E+01	2.0910712771E+02	2.9531158467E+02	4.8793883670E+02	3.2500000000E+02	0.000E+00	0.0
	-14	1	6	6	0	0	-1.2516005204E+02	-1.5371268587E+02	-1.1057034134E+02	3.9641320464E+02	3.2500000000E+02	0.000E+00	0.0
	25	2	5	5	0	0	8.6114111678E+01	-5.5394441837E+01	1.4268566707E+02	2.1568015921E+02	1.2519803143E+02	0.000E+00	0.0
	-5	1	9	9	0	501	-1.5570379108E+01	-3.0021660489E+01	-5.1016871495E+00	3.4456297187E+01	4.1800000000E+00	0.000E+00	0.0
	5	1	9	9	501	0	1.0168449079E+02	-2.5372781349E+01	1.4778735422E+02	1.8122386202E+02	4.1800000000E+00	0.000E+00	0.0
</event>
<event>
    11  -1  1.0000000E+00  1.0000000E+00  -1.0000000E+00  -1.0000000E+00
	2212	-1	0	0	0	0	0.0000000000E+00	0.0000000000E+00	6.5000000000E+03	6.5000000000E+03	9.3827000000E-01	0.000E+00	0.0
	2212	-1	0	0	0	0	0.0000000000E+00	0.0000000000E+00	-6.5000000000E+03	6.5000000000E+03	9.3827000000E-01	0.000E+00	0.0
	2212	1	0	0	0	0	0.0000000000E+00	0.0000000000E+00	6.0070417722E+03	6.0070417722E+03	9.3827000000E-01	0.000E+00	0.0
	2212	1	0	0	0	0	0.0000000000E+00	0.0000000000E+00	-5.9344989260E+03	5.9344989260E+03	9.3827000000E-01	0.000E+00	0.0
	51	2	1	2	0	0	8.1259929133E+01	5.9662279165E+01	1.3349461659E+01	1.0608555984E+03	1.0559704678E+03	0.000E+00	0.0
	1000022	2	5	5	0	0	-8.1259929133E+01	-5.9662279165E+01	-1.4647199206E+02	8.8151071266E+02	8.6339117926E+02	0.000E+00	0.0
	14	1	6	6	0	0	-2.9904453880E+02	9.6385893284E+00	3.8151209841E+01	4.4339717342E+02	3.2500000000E+02	0.000E+00	0.0
	-14	1	6	6	0	0	2.1778460966E+02	-6.9300868493E+01	-1.8462320190E+02	4.3811353923E+02	3.2500000000E+02	0.000E+00	0.0
	25	2	5	5	0	0	8.1259929133E+01	5.9662279165E+01	7.3929145855E+01	1.7694858910E+02	1.2522987239E+02	0.000E+00	0.0
	-5	1	9	9	0	501	-1.2617165506E+01	-2.8099034071E+01	2.2924539230E+01	3.8623250511E+01	4.1800000000E+00	0.000E+00	0.0
	5	1	9	9	501	0	9.3877094639E+01	8.7761313236E+01	5.1004606625E+01	1.3832533859E+02	4.1800000000E+00	0.000E+00	0.0
</event>
<event>
    11  -1  1.0000000E+00  1.0000000E+00  -1.0000000E+00  -1.0000000E+00
	2212	-1	0	0	0	0	0.0000000000E+00	0.0000000000E+00	6.5000000000E+03	6.5000000000E+03	9.3827000000E-01	0.000E+00	0.0
	2212	-1	0	0	0	0	0.0000000000E+00	0.0000000000E+00	-6.5000000000E+03	6.5000000000E+03	9.3827000000E-01	0.000E+00	0.0
	2212	1	0	0	0	0	0.0000000000E+00	0.0000000000E+00	6.3226458958E+03	6.3226458958E+03	9.3827000000E-01	0.000E+00	0.0
	2212	1	0	0	0	0	0.0000000000E+00	0.0000000000E+00	-4.9630091122E+03	4.9630091122E+03	9.3827000000E-01	0.000E+00	0.0
	51	2	1	2	0	0	-6.2468105148E+01	-5.4705903945E+01	-1.1993928729E+03	1.5924210599E+03	1.0442061906E+03	0.000E+00	0.0
	1000022	2	5	5	0	0	6.2468105148E+01	5.4705903945E+01	-1.2927697197E+03	1.5499082089E+03	8.5092121118E+02	0.000E+00	0.0
	14	1	6	6	0	0	-1.1052371141E+02	1.9155520426E+02	-9.5176033480E+02	1.0297483294E+03	3.2500000000E+02	0.000E+00	0.0
	-14	1	6	6	0	0	1.7299181656E+02	-1.3684930031E+02	-3.4100938494E+02	5.2015987947E+02	3.2500000000E+02	0.000E+00	0.0
	25	2	5	5	0	0	-6.2468105148E+01	-5.4705903945E+01	-6.6867063859E+01	1.6443678315E+02	1.2519285658E+02	0.000E+00	0.0
	-5	1	9	9	0	501	-3.8672516738E+01	-1.4260085085E+01	3.3684741783E+01	5.3395203965E+01	4.1800000000E+00	0.000E+00	0.0
	5	1	9	9	501	0	-2.3795588410E+01	-4.0445818860E+01	-1.0055180564E+02	1.1104157919E+02	4.1800000000E+00	0.000E+00	0.0
</event>
<event>
    11  -1  1.0000000E+00  1.0000000E+00  -1.0000000E+00  -1.0000000E+00
	2212	-1	0	0	0	0	0.0000000000E+00	0.0000000000E+00	6.5000000000E+03	6.5000000000E+03	9.3827000000E-01	0.000E+00	0.0
	2212	-1	0	0	0	0	0.0000000000E+00	0.0000000000E+00	-6.5000000000E+03	6.5000000000E+03	9.3827000000E-01	0.000E+00	0.0
	2212	1	0	0	0	0	0.0000000000E+00	0.0000000000E+00	5.9196164833E+03	5.9196164833E+03	9.3827000000E-01	0.000E+00	0.0
	2212	1	0	0	0	0	0.0000000000E+00	0.0000000000E+00	-6.0271138774E+03	6.0271138774E+03	9.3827000000E-01	0.000E+00	0.0
	51	2	1	2	0	0	4.2846401797E+01	8.5458968465E+01	2.0665569581E+02	1.0722251952E+03	1.0477696518E+03	0.000E+00	0.0
	1000022	2	5	5	0	0	-4.2846401797E+01	-8.5458968465E+01	-9.7674747441E+00	8.5690422541E+02	8.5149891282E+02	0.000E+00	0.0
	14	1	6	6	0	0	-8.2580906579E+01	-2.3460822858E+02	-1.9375579204E+02	4.5279899956E+02	3.2500000000E+02	0.000E+00	0.0
	-14	1	6	6	0	0	3.9734504782E+01	1.4914926012E+02	1.8398831729E+02	4.0410522586E+02	3.2500000000E+02	0.000E+00	0.0
	25	2	5	5	0	0	4.2846401797E+01	8.5458968465E+01	1.1726486883E+02	1.9636541383E+02	1.2517698211E+02	0.000E+00	0.0
	-5	1	9	9	0	501	-3.0190255918E+00	1.0279843087E+02	5.4057744823E+01	1.1625981283E+02	4.1800000000E+00	0.000E+00	0.0
	5	1	9	9	501	0	4.5865427389E+01	-1.7339462404E+01	6.3207124006E+01	8.0105600997E+01	4.1800000000E+00	0.000E+00	0.0
</event>
<event>
    11  -1  1.0000000E+00  1.0000000E+00  -1.0000000E+00  -1.0000000E+00
	2212	-1	0	0	0	0	0.0000000000E+00	0.0000000000E+00	6.5000000000E+03	6.5000000000E+03	9.3827000000E-01	0.000E+00	0.0
	2212	-1	0	0	0	0	0.0000000000E+00	0.0000000000E+00	-6.5000000000E+03	6.5000000000E+03	9.3827000000E-01	0.000E+00	0.0
	2212	1	0	0	0	0	0.0000000000E+00	0.0000000000E+00	6.2415883023E+03	6.2415883023E+03	9.3827000000E-01	0.000E+00	0.0
	2212	1	0	0	0	0	0.0000000000E+00	0.0000000000E+00	-5.4620755989E+03	5.4620755989E+03	9.3827000000E-01	0.000E+00	0.0
	51	2	1	2	0	0	-1.0245446718E+02	-1.5359833409E+01	-8.1948939065E+02	1.3248180742E+03	1.0357833876E+03	0.000E+00	0.0
	1000022	2	5	5	0	0	1.0245446718E+02	1.5359833409E+01	-6.1956144078E+02	1.0683354081E+03	8.6414774371E+02	0.000E+00	0.0
	14	1	6	6	0	0	9.9741349612E+01	1.2654234197E+02	-3.2508412468E+00	3.6276282762E+02	3.2500000000E+02	0.000E+00	0.0
	-14	1	6	6	0	0	2.7131175678E+00	-1.1118250856E+02	-6.1631059953E+02	7.0557258047E+02	3.2500000000E+02	0.000E+00	0.0
	25	2	5	5	0	0	-1.0245446718E+02	-1.5359833409E+01	-1.5995126264E+02	2.2800069065E+02	1.2516815166E+02	0.000E+00	0.0
	-5	1	9	9	0	501	-3.6922182332E+01	-6.7240061547E+01	-5.8958739544E+01	9.6840481172E+01	4.1800000000E+00	0.000E+00	0.0
	5	1	9	9	501	0	-6.5532284848E+01	5.1880228139E+01	-1.0099252310E+02	1.3116020948E+02	4.1800000000E+00	0.000E+00	0.0
</event>
<event>
    11  -1  1.0000000E+00  1.0000000E+00  -1.0000000E+00  -1.0000000E+00
	2212	-1	0	0	0	0	0.0000000000E+00	0.0000000000E+00	6.5000000000E+03	6.5000000000E+03	9.3827000000E-01	0.000E+00	0.0
	2212	-1	0	0	0	0	0.0000000000E+00	0.0000000000E+00	-6.5000000000E+03	6.5000000000E+03	9.3827000000E-01	0.000E+00	0.0
	2212	1	0	0	0	0	0.0000000000E+00	0.0000000000E+00	5.6288791252E+03	5.6288791252E+03	9.3827000000E-01	0.000E+00	0.0
	2212	1	0	0	0	0	0.0000000000E+00	0.0000000000E+00	-6.1828818870E+03	6.1828818870E+03	9.3827000000E-01	0.000E+00	0.0
	51	2	1	2	0	0	-2.4610173641E+00	-1.4024460425E+01	4.1685841937E+02	1.1309140180E+03	1.0511863927E+03	0.000E+00	0.0
	1000022	2	5	5	0	0	2.4610173641E+00	1.4024460425E+01	6.0162133774E+02	1.0535468532E+03	8.6476007985E+02	0.000E+00	0.0
	14	1	6	6	0	0	-5.2496079421E+01	3.5722920921E+01	6.4040100769E+02	7.2095104971E+02	3.2500000000E+02	0.000E+00	0.0
	-14	1	6	6	0	0	5.4957096785E+01	-2.1698460496E+01	-3.8779669949E+01	3.3259580346E+02	3.2500000000E+02	0.000E+00	0.0
	25	2	5	5	0	0	-2.4610173641E+00	-1.4024460425E+01	-4.7618575896E+01	1.3469213469E+02	1.2518666175E+02	0.000E+00	0.0
	-5	1	9	9	0	501	2.3614551618E+01	5.0531373103E+01	-2.5912293208E+01	6.1644026921E+01	4.1800000000E+00	0.000E+00	0.0
	5	1	9	9	501	0	-2.6075568982E+01	-6.4555833528E+01	-2.1706282688E+01	7.3048107767E+01	4.1800000000E+00	0.000E+00	0.0
</event>
<event>
    11  -1  1.0000000E+00  1.0000000E+00  -1.0000000E+00  -1.0000000E+00
	2212	-1	0	0	0	0	0.0000000000E+00	0.0000000000E+00	6.5000000000E+03	6.5000000000E+03	9.3827000000E-01	0.000E+00	0.0
	2212	-1	0	0	0	0	0.0000000000E+00	0.0000000000E+00	-6.5000000000E+03	6.5000000000E+03	9.3827000000E-01	0.000E+00	0.0
	2212	1	0	0	0	0	0.0000000000E+00	0.0000000000E+00	5.4914613264E+03	5.4914613264E+03	9.3827000000E-01	0.000E+00	0.0
	2212	1	0	0	0	0	0.0000000000E+00	0.0000000000E+00	-6.2277489798E+03	6.2277489798E+03	9.3827000000E-01	0.000E+00	0.0
	51	2	1	2	0	0	-7.3362099808E+01	-2.2317410776E+01	8.7927641885E+02	1.3701495599E+03	1.0479993946E+03	0.000E+00	0.0
	1000022	2	5	5	0	0	7.3362099808E+01	2.2317410776E+01	4.6973200593E+02	9.7648232951E+02	8.5263680306E+02	0.000E+00	0.0
	14	1	6	6	0	0	9.8288916476E+01	-9.8305109937E+01	-4.4017766405E+01	3.5621225344E+02	3.2500000000E+02	0.000E+00	0.0
	-14	1	6	6	0	0	-2.4926816668E+01	1.2062252071E+02	5.1374977234E+02	6.2027007607E+02	3.2500000000E+02	0.000E+00	0.0
	25	2	5	5	0	0	-7.3362099808E+01	-2.2317410776E+01	2.6655564751E+02	3.0430736431E+02	1.2518384177E+02	0.000E+00	0.0
	-5	1	9	9	0	501	-1.3457463777E+01	-4.0975279353E+01	2.2453421153E+02	2.2867698047E+02	4.1800000000E+00	0.000E+00	0.0
	5	1	9	9	501	0	-5.9904636032E+01	1.8657868577E+01	4.2021435989E+01	7.5630383845E+01	4.1800000000E+00	0.000E+00	0.0
</event>
<event>
    11  -1  1.0000000E+00  1.0000000E+00  -1.0000000E+00  -1.0000000E+00
	2212	-1	0	0	0	0	0.0000000000E+00	0.0000000000E+00	6.5000000000E+03	6.5000000000E+03	9.3827000000E-01	0.000E+00	0.0
	2212	-1	0	0	0	0	0.0000000000E+00	0.0000000000E+00	-6.5000000000E+03	6.5000000000E+03	9.3827000000E-01	0.000E+00	0.0
	2212	1	0	0	0	0	0.0000000000E+00	0.0000000000E+00	5.1018739714E+03	5.1018739714E+03	9.3827000000E-01	0.000E+00	0.0
	2212	1	0	0	0	0	0.0000000000E+00	0.0000000000E+00	-6.3006915821E+03	6.3006915821E+03	9.3827000000E-01	0.000E+00	0.0
	51	2	1	2	0	0	1.0217686484E+02	9.9732294068E+01	1.1890726518E+03	1.5965317287E+03	1.0557618800E+03	0.000E+00	0.0
	1000022	2	5	5	0	0	-1.0217686484E+02	-9.9732294068E+01	1.0033977624E+03	1.3249533507E+03	8.5340943852E+02	0.000E+00	0.0
	14	1	6	6	0	0	-1.8445905760E+02	-2.9141219594E+02	4.8010262816E+02	6.7458857494E+02	3.2500000000E+02	0.000E+00	0.0
	-14	1	6	6	0	0	8.2282192766E+01	1.9167990187E+02	5.2329513421E+02	6.5036477574E+02	3.2500000000E+02	0.000E+00	0.0
	25	2	5	5	0	0	1.0217686484E+02	9.9732294068E+01	1.9541984836E+02	2.7248109587E+02	1.2518142149E+02	0.000E+00	0.0
	-5	1	9	9	0	501	5.5288178789E+01	6.0390469065E+01	1.9455742623E+02	2.1112521395E+02	4.1800000000E+00	0.000E+00	0.0
	5	1	9	9	501	0	4.6888686048E+01	3.9341825003E+01	8.6242213718E-01	6.1355881917E+01	4.1800000000E+00	0.000E+00	0.0
</event>
<event>
    11  -1  1.0000000E+00  1.0000000E+00  -1.0000000E+00  -1.0000000E+00
	2212	-1	0	0	0	0	0.0000000000E+00	0.0000000000E+00	6.5000000000E+03	6.5000000000E+03	9.3827000000E-01	0.000E+00	0.0
	2212	-1	0	0	0	0	0.0000000000E+00	0.0000000000E+00	-6.5000000000E+03	6.5000000000E+03	9.3827000000E-01	0.000E+00	0.0
	2212	1	0	0	0	0	0.0000000000E+00	0.0000000000E+00	5.9623475001E+03	5.9623475001E+03	9.3827000000E-01	0.000E+00	0.0
	2212	1	0	0	0	0	0.0000000000E+00	0.0000000000E+00	-5.9219305442E+03	5.9219305442E+03	9.3827000000E-01	0.000E+00	0.0
	51	2	1	2	0	0	2.7622147648E+01	1.9902359294E+02	-5.0226837882E+01	1.1340626354E+03	1.1149896646E+03	0.000E+00	0.0
	1000022	2	5	5	0	0	-2.7622147648E+01	-1.9902359294E+02	-2.2671594102E+01	8.7832001924E+02	8.5472725558E+02	0.000E+00	0.0
	14	1	6	6	0	0	1.2941498974E+02	1.2220761103E+02	9.1800288973E+01	3.8175284258E+02	3.2500000000E+02	0.000E+00	0.0
	-14	1	6	6	0	0	-1.5703713738E+02	-3.2123120397E+02	-1.1447188308E+02	4.9656717666E+02	3.2500000000E+02	0.000E+00	0.0
	25	2	5	5	0	0	2.7622147648E+01	1.9902359294E+02	-1.7745361846E+01	2.3740193649E+02	1.2518549434E+02	0.000E+00	0.0
	-5	1	9	9	0	501	-1.4059739630E+01	1.9286516420E+02	-2.2794870217E+01	1.9476068995E+02	4.1800000000E+00	0.000E+00	0.0
	5	1	9	9	501	0	4.1681887278E+01	6.1584287406E+00	5.0495083717E+00	4.2641246539E+01	4.1800000000E+00	0.000E+00	0.0
</event>
<event>
    11  -1  1.0000000E+00  1.0000000E+00  -1.0000000E+00  -1.0000000E+00
	2212	-1	0	0	0	0	0.0000000000E+00	0.0000000000E+00	6.5000000000E+03	6.5000000000E+03	9.3827000000E-01	0.000E+00	0.0
	2212	-1	0	0	0	0	0.0000000000E+00	0.0000000000E+00	-6.5000000000E+03	6.5000000000E+03	9.3827000000E-01	0.000E+00	0.0
	2212	1	0	0	0	0	0.0000000000E+00	0.0000000000E+00	4.9649286788E+03	4.9649286788E+03	9.3827000000E-01	0.000E+00	0.0
	2212	1	0	0	0	0	0.0000000000E+00	0.0000000000E+00	-6.3152438920E+03	6.3152438920E+03	9.3827000000E-01	0.000E+00	0.0
	51	2	1	2	0	0	-1.5546346173E+02	-1.7687490589E+00	1.3801847062E+03	1.7502962751E+03	1.0651080748E+03	0.000E+00	0.0
	1000022	2	5	5	0	0	1.5546346173E+02	1.7687490589E+00	1.0814711646E+03	1.3849889133E+03	8.5114181770E+02	0.000E+00	0.0
	14	1	6	6	0	0	6.7945050509E+00	2.1436201882E+02	7.7861018330E+02	8.7054928519E+02	3.2500000000E+02	0.000E+00	0.0
	-14	1	6	6	0	0	1.4866895668E+02	-2.1259326976E+02	3.0286098129E+02	5.1443962816E+02	3.2500000000E+02	0.000E+00	0.0
	25	2	5	5	0	0	-1.5546346173E+02	-1.7687490589E+00	2.6884404861E+02	3.3483851581E+02	1.2517065465E+02	0.000E+00	0.0
	-5	1	9	9	0	501	-4.2770035425E+01	5.7816831492E+01	9.9045415689E+01	1.2247256306E+02	4.1800000000E+00	0.000E+00	0.0
	5	1	9	9	501	0	-1.1269342631E+02	-5.9585580551E+01	1.6979863292E+02	2.1236595274E+02	4.1800000000E+00	0.000E+00	0.0
</event>
<event>
    11  -1  1.0000000E+00  1.0000000E+00  -1.0000000E+00  -1.0000000E+00
	2212	-1	0	0	0	0	0.0000000000E+00	0.0000000000E+00	6.5000000000E+03	6.5000000000E+03	9.3827000000E-01	0.000E+00	0.0
	2212	-1	0	0	0	0	0.0000000000E+00	0.0000000000E+00	-6.5000000000E+03	6.5000000000E+03	9.3827000000E-01	0.000E+00	0.0
	2212	1	0	0	0	0	0.0000000000E+00	0.0000000000E+00	6.0148146356E+03	6.0148146356E+03	9.3827000000E-01	0.000E+00	0.0
	2212	1	0	0	0	0	0.0000000000E+00	0.0000000000E+00	-5.9287514890E+03	5.9287514890E+03	9.3827000000E-01	0.000E+00	0.0
	51	2	1	2	0	0	7.4326275621E+01	5.4118984185E+01	2.9428478560E+01	1.0573386226E+03	1.0529224415E+03	0.000E+00	0.0
	1000022	2	5	5	0	0	-7.4326275621E+01	-5.4118984185E+01	-1.8655795265E+02	8.7144164881E+02	8.4625848173E+02	0.000E+00	0.0
	14	1	6	6	0	0	-1.7421536070E+02	-1.2148107384E+01	-3.3475078476E+02	4.9817833786E+02	3.2500000000E+02	0.000E+00	0.0
	-14	1	6	6	0	0	9.9889085079E+01	-4.1970876801E+01	1.4819283211E+02	3.7326331096E+02	3.2500000000E+02	0.000E+00	0.0
	25	2	5	5	0	0	7.4326275621E+01	5.4118984185E+01	1.0049480606E+02	1.8499222654E+02	1.2517850510E+02	0.000E+00	0.0
	-5	1	9	9	0	501	-1.3191477883E+01	5.6171614400E+01	7.2990508827E+01	9.3136202048E+01	4.1800000000E+00	0.000E+00	0.0
	5	1	9	9	501	0	8.7517753504E+01	-2.0526302155E+00	2.7504297229E+01	9.1856024490E+01	4.1800000000E+00	0.000E+00	0.0
</event>
<event>
    11  -1  1.0000000E+00  1.0000000E+00  -1.0000000E+00  -1.0000000E+00
	2212	-1	0	0	0	0	0.0000000000E+00	0.0000000000E+00	6.5000000000E+03	6.5000000000E+03	9.3827000000E-01	0.000E+00	0.0
	2212	-1	0	0	0	0	0.0000000000E+00	0.0000000000E+00	-6.5000000000E+03	6.5000000000E+03	9.3827000000E-01	0.000E+00	0.0
	2212	1	0	0	0	0	0.0000000000E+00	0.0000000000E+00	6.2542893548E+03	6.2542893548E+03	9.3827000000E-01	0.000E+00	0.0
	2212	1	0	0	0	0	0.0000000000E+00	0.0000000000E+00	-5.4154629965E+03	5.4154629965E+03	9.3827000000E-01	0.000E+00	0.0
	51	2	1	2	0	0	1.0202397932E+02	-2.4007297437E+01	-9.2833397549E+02	1.3923786699E+03	1.0324384474E+03	0.000E+00	0.0
	1000022	2	5	5	0	0	-1.0202397932E+02	2.4007297437E+01	-6.1254969797E+02	1.0512222772E+03	8.4785959977E+02	0.000E+00	0.0
	14	1	6	6	0	0	1.8838956858E+02	-4.9894564603E+01	-4.2942778940E+02	5.7272447427E+02	3.2500000000E+02	0.000E+00	0.0
	-14	1	6	6	0	0	-2.9041354789E+02	7.3901862039E+01	-1.8312190857E+02	4.7849780293E+02	3.2500000000E+02	0.000E+00	0.0
	25	2	5	5	0	0	1.0202397932E+02	-2.4007297437E+01	-2.2627666035E+02	2.7902537156E+02	1.2517503054E+02	0.000E+00	0.0
	-5	1	9	9	0	501	-1.9807035441E+01	2.2559149915E+01	-6.3793052562E+01	7.0627613955E+01	4.1800000000E+00	0.000E+00	0.0
	5	1	9	9	501	0	1.2183101476E+02	-4.6566447352E+01	-1.6248360779E+02	2.0839775761E+02	4.1800000000E+00	0.000E+00	0.0
</event>
<event>
    11  -1  1.0000000E+00  1.0000000E+00  -1.0000000E+00  -1.0000000E+00
	2212	-1	0	0	0	0	0.0000000000E+00	0.0000000000E+00	6.5000000000E+03	6.5000000000E+03	9.3827000000E-01	0.000E+00	0.0
	2212	-1	0	0	0	0	0.0000000000E+00	0.0000000000E+00	-6.5000000000E+03	6.5000000000E+03	9.3827000000E-01	0.000E+00	0.0
	2212	1	0	0	0	0	0.0000000000E+00	0.0000000000E+00	5.7480919988E+03	5.7480919988E+03	9.3827000000E-01	0.000E+00	0.0
	2212	1	0	0	0	0	0.0000000000E+00	0.0000000000E+00	-6.1404190691E+03	6.1404190691E+03	9.3827000000E-01	0.000E+00	0.0
	51	2	1	2	0	0	3.9618573198E+01	1.0783840464E+02	4.4983481710E+02	1.1388754242E+03	1.0399457275E+03	0.000E+00	0.0
	1000022	2	5	5	0	0	-3.9618573198E+01	-1.0783840464E+02	2.7073608640E+02	9.0255032700E+02	8.5328794168E+02	0.000E+00	0.0
	14	1	6	6	0	0	1.2818877665E+02	3.9417512562E+01	-9.5589686609E+01	3.6434666314E+02	3.2500000000E+02	0.000E+00	0.0
	-14	1	6	6	0	0	-1.6780734985E+02	-1.4725591721E+02	3.6632577301E+02	5.3820366385E+02	3.2500000000E+02	0.000E+00	0.0
	25	2	5	5	0	0	3.9618573198E+01	1.0783840464E+02	1.2159098384E+02	2.0893860513E+02	1.2518873953E+02	0.000E+00	0.0
	-5	1	9	9	0	501	2.5919140302E+01	2.7318867308E+01	-2.1910518900E+01	4.3768317120E+01	4.1800000000E+00	0.000E+00	0.0
	5	1	9	9	501	0	1.3699432895E+01	8.0519537336E+01	1.4350150274E+02	1.6517028801E+02	4.1800000000E+00	0.000E+00	0.0
</event>
<event>
    11  -1  1.0000000E+00  1.0000000E+00  -1.0000000E+00  -1.0000000E+00
	2212	-1	0	0	0	0	0.0000000000E+00	0.0000000000E+00	6.5000000000E+03	6.5000000000E+03	9.3827000000E-01	0.000E+00	0.0
	2212	-1	0	0	0	0	0.0000000000E+00	0.0000000000E+00	-6.5000000000E+03	6.5000000000E+03	9.3827000000E-01	0.000E+00	0.0
	2212	1	0	0	0	0	0.0000000000E+00	0.0000000000E+00	6.1607551503E+03	6.1607551503E+03	9.3827000000E-01	0.000E+00	0.0
	2212	1	0	0	0	0	0.0000000000E+00	0.0000000000E+00	-5.6805099177E+03	5.6805099177E+03	9.3827000000E-01	0.000E+00	0.0
	51	2	1	2	0	0	-1.0191806416E+02	2.6995709244E+01	-4.6396668706E+02	1.1568977076E+03	1.0545288801E+03	0.000E+00	0.0
	1000022	2	5	5	0	0	1.0191806416E+02	-2.6995709244E+01	-4.2404053045E+02	9.8568469180E+02	8.8354280036E+02	0.000E+00	0.0
	14	1	6	6	0	0	1.1968109081E+02	-1.7807041581E+02	-4.8469110237E+02	6.2175807289E+02	3.2500000000E+02	0.000E+00	0.0
	-14	1	6	6	0	0	-1.7763026650E+01	1.5107470657E+02	6.0650571919E+01	3.6392661891E+02	3.2500000000E+02	0.000E+00	0.0
	25	2	5	5	0	0	-1.0191806416E+02	2.6995709244E+01	-5.6204702131E+01	1.7305024013E+02	1.2518529046E+02	0.000E+00	0.0
	-5	1	9	9	0	501	-1.1854688393E+02	1.8810678616E+01	-7.0021219155E+00	1.2030672230E+02	4.1800000000E+00	0.000E+00	0.0
	5	1	9	9	501	0	1.6628819766E+01	8.1850306278E+00	-4.9202580216E+01	5.2743517830E+01	4.1800000000E+00	0.000E+00	0.0
</event>
<event>
    11  -1  1.0000000E+00  1.0000000E+00  -1.0000000E+00  -1.0000000E+00
	2212	-1	0	0	0	0	0.0000000000E+00	0.0000000000E+00	6.5000000000E+03	6.5000000000E+03	9.3827000000E-01	0.000E+00	0.0
	2212	-1	0	0	0	0	0.0000000000E+00	0.0000000000E+00	-6.5000000000E+03	6.5000000000E+03	9.3827000000E-01	0.000E+00	0.0
	2212	1	0	0	0	0	0.0000000000E+00	0.0000000000E+00	5.2147942604E+03	5.2147942604E+03	9.3827000000E-01	0.000E+00	0.0
	2212	1	0	0	0	0	0.0000000000E+00	0.0000000000E+00	-6.2853228869E+03	6.2853228869E+03	9.3827000000E-01	0.000E+00	0.0
	51	2	1	2	0	0	3.4610465673E+01	4.2295444446E+01	1.2619317157E+03	1.6428863246E+03	1.0505317852E+03	0.000E+00	0.0
	1000022	2	5	5	0	0	-3.4610465673E+01	-4.2295444446E+01	6.9798521907E+02	1.1030895703E+03	8.5242973035E+02	0.000E+00	0.0
	14	1	6	6	0	0	-9.0373114465E+01	1.5523755174E+02	6.0131519636E+02	7.0673259629E+02	3.2500000000E+02	0.000E+00	0.0
	-14	1	6	6	0	0	5.5762648792E+01	-1.9753299618E+02	9.6670022704E+01	3.9635697404E+02	3.2500000000E+02	0.000E+00	0.0
	25	2	5	5	0	0	3.4610465673E+01	4.2295444446E+01	3.7254340737E+02	3.9679328235E+02	1.2517799161E+02	0.000E+00	0.0
	-5	1	9	9	0	501	4.4464179126E+01	-3.1723517155E+00	3.3180881335E+02	3.3481590174E+02	4.1800000000E+00	0.000E+00	0.0
	5	1	9	9	501	0	-9.8537134525E+00	4.5467796162E+01	4.0734594019E+01	6.1977380604E+01	4.1800000000E+00	0.000E+00	0.0
</event>
<event>
    11  -1  1.0000000E+00  1.0000000E+00  -1.0000000E+00  -1.0000000E+00
	2212	-1	0	0	0	0	0.0000000000E+00	0.0000000000E+00	6.5000000000E+03	6.5000000000E+03	9.3827000000E-01	0.000E+00	0.0
	2212	-1	0	0	0	0	0.0000000000E+00	0.0000000000E+00	-6.5000000000E+03	6.5000000000E+03	9.3827000000E-01	0.000E+00	0.0
	2212	1	0	0	0	0	0.0000000000E+00	0.0000000000E+00	5.4749497057E+03	5.4749497057E+03	9.3827000000E-01	0.000E+00	0.0
	2212	1	0	0	0	0	0.0000000000E+00	0.0000000000E+00	-6.2306728245E+03	6.2306728245E+03	9.3827000000E-01	0.000E+00	0.0
	51	2	1	2	0	0	-5.8777015012E+00	1.1655866283E+02	6.5998535467E+02	1.2463934932E+03	1.0508547008E+03	0.000E+00	0.0
	1000022	2	5	5	0	0	5.8777015012E+00	-1.1655866283E+02	7.2157272681E+02	1.1198933247E+03	8.4845352814E+02	0.000E+00	0.0
	14	1	6	6	0	0	-3.4716520422E+00	1.8368055233E+02	1.6329289720E+02	4.0748026694E+02	3.2500000000E+02	0.000E+00	0.0
	-14	1	6	6	0	0	9.3493535435E+00	-3.0023921517E+02	5.5827982961E+02	7.1241305777E+02	3.2500000000E+02	0.000E+00	0.0
	25	2	5	5	0	0	-5.8777015012E+00	1.1655866283E+02	3.4150391972E+01	1.7448414513E+02	1.2513192388E+02	0.000E+00	0.0
	-5	1	9	9	0	501	-1.2842247081E+01	7.3059983237E+01	-4.2780929345E+01	8.5734268389E+01	4.1800000000E+00	0.000E+00	0.0
	5	1	9	9	501	0	6.9645455801E+00	4.3498679595E+01	7.6931321317E+01	8.8749876739E+01	4.1800000000E+00	0.000E+00	0.0
</event>
<event>
    11  -1  1.0000000E+00  1.0000000E+00  -1.0000000E+00  -1.0000000E+00
	2212	-1	0	0	0	0	0.0000000000E+00	0.0000000000E+00	6.5000000000E+03	6.5000000000E+03	9.3827000000E-01	0.000E+00	0.0
	2212	-1	0	0	0	0	0.0000000000E+00	0.0000000000E+00	-6.5000000000E+03	6.5000000000E+03	9.3827000000E-01	0.000E+00	0.0
	2212	1	0	0	0	0	0.0000000000E+00	0.0000000000E+00	6.3201788658E+03	6.3201788658E+03	9.3827000000E-01	0.000E+00	0.0
	2212	1	0	0	0	0	0.0000000000E+00	0.0000000000E+00	-4.9496963018E+03	4.9496963018E+03	9.3827000000E-01	0.000E+00	0.0
	51	2	1	2	0	0	1.0441870286E+02	-5.0595203043E+01	-1.2249630419E+03	1.6214521491E+03	1.0559874420E+03	0.000E+00	0.0
	1000022	2	5	5	0	0	-1.0441870286E+02	5.0595203043E+01	-1.2749974186E+03	1.5345483623E+03	8.4602430161E+02	0.000E+00	0.0
	14	1	6	6	0	0	-2.5340343897E+02	-9.3300052841E+01	-9.1195276809E+02	1.0050875852E+03	3.2500000000E+02	0.000E+00	0.0
	-14	1	6	6	0	0	1.4898473612E+02	1.4389525588E+02	-3.6304465049E+02	5.2946077712E+02	3.2500000000E+02	0.000E+00	0.0
	25	2	5	5	0	0	1.0441870286E+02	-5.0595203043E+01	-9.5485145400E+01	1.9557647009E+02	1.2517828319E+02	0.000E+00	0.0
	-5	1	9	9	0	501	1.1647783443E+02	-4.6731391423E+01	-3.0481095847E+01	1.2921872334E+02	4.1800000000E+00	0.000E+00	0.0
	5	1	9	9	501	0	-1.2059131577E+01	-3.8638116201E+00	-6.5004049553E+01	6.6357746744E+01	4.1800000000E+00	0.000E+00	0.0
</event>
<event>
    11  -1  1.0000000E+00  1.0000000E+00  -1.0000000E+00  -1.0000000E+00
	2212	-1	0	0	0	0	0.0000000000E+00	0.0000000000E+00	6.5000000000E+03	6.5000000000E+03	9.3827000000E-01	0.000E+00	0.0
	2212	-1	0	0	0	0	0.0000000000E+00	0.0000000000E+00	-6.5000000000E+03	6.5000000000E+03	9.3827000000E-01	0.000E+00	0.0
	2212	1	0	0	0	0	0.0000000000E+00	0.0000000000E+00	5.4305683203E+03	5.4305683203E+03	9.3827000000E-01	0.000E+00	0.0
	2212	1	0	0	0	0	0.0000000000E+00	0.0000000000E+00	-6.2500967212E+03	6.2500967212E+03	9.3827000000E-01	0.000E+00	0.0
	51	2	1	2	0	0	8.3530799736E+01	-3.9425618789E+01	7.4739099989E+02	1.2791180608E+03	1.0339332342E+03	0.000E+00	0.0
	1000022	2	5	5	0	0	-8.3530799736E+01	3.9425618789E+01	7.6411041192E+02	1.1542041404E+03	8.6011086618E+02	0.000E+00	0.0
	14	1	6	6	0	0	-7.6774958129E+01	-3.6797749096E+01	7.4793316598E+02	8.1992529495E+02	3.2500000000E+02	0.000E+00	0.0
	-14	1	6	6	0	0	-6.7558416063E+00	7.6223367884E+01	1.6177245948E+01	3.3427884542E+02	3.2500000000E+02	0.000E+00	0.0
	25	2	5	5	0	0	8.3530799736E+01	-3.9425618789E+01	5.5417988975E+01	1.6513081808E+02	1.2516093503E+02	0.000E+00	0.0
	-5	1	9	9	0	501	7.0021210242E+01	-7.3064454853E+01	7.2777717106E+01	1.2472150157E+02	4.1800000000E+00	0.000E+00	0.0
	5	1	9	9	501	0	1.3509589494E+01	3.3638836064E+01	-1.7359728132E+01	4.0409316511E+01	4.1800000000E+00	0.000E+00	0.0
</event>
<event>
    11  -1  1.0000000E+00  1.0000000E+00  -1.0000000E+00  -1.0000000E+00
	2212	-1	0	0	0	0	0.0000000000E+00	0.0000000000E+00	6.5000000000E+03	6.5000000000E+03	9.3827000000E-01	0.000E+00	0.0
	2212	-1	0	0	0	0	0.0000000000E+00	0.0000000000E+00	-6.5000000000E+03	6.5000000000E+03	9.3827000000E-01	0.000E+00	0.0
	2212	1	0	0	0	0	0.0000000000E+00	0.0000000000E+00	5.7743377931E+03	5.7743377931E+03	9.3827000000E-01	0.000E+00	0.0
	2212	1	0	0	0	0	0.0000000000E+00	0.0000000000E+00	-6.1205449945E+03	6.1205449945E+03	9.3827000000E-01	0.000E+00	0.0
	51	2	1	2	0	0	5.7377049325E+01	1.0312876962E+02	2.5534482621E+02	1.0865326852E+03	1.0494877926E+03	0.000E+00	0.0
	1000022	2	5	5	0	0	-5.7377049325E+01	-1.0312876962E+02	3.7652083252E+02	9.3042598118E+02	8.4261313794E+02	0.000E+00	0.0
	14	1	6	6	0	0	1.8686483922E+02	-8.6777247467E+01	1.3332930041E+01	3.8503444760E+02	3.2500000000E+02	0.000E+00	0.0
	-14	1	6	6	0	0	-2.4424188855E+02	-1.6351522153E+01	3.6318790248E+02	5.4539153358E+02	3.2500000000E+02	0.000E+00	0.0
	25	2	5	5	0	0	5.7377049325E+01	1.0312876962E+02	-3.0313631036E+01	1.7469123122E+02	1.2518163254E+02	0.000E+00	0.0
	-5	1	9	9	0	501	4.2826821131E+01	2.7757624495E+00	-5.5346697409E+01	7.0161034623E+01	4.1800000000E+00	0.000E+00	0.0
	5	1	9	9	501	0	1.4550228194E+01	1.0035300717E+02	2.5033066373E+01	1.0453019660E+02	4.1800000000E+00	0.000E+00	0.0
</event>
<event>
    11  -1  1.0000000E+00  1.0000000E+00  -1.0000000E+00  -1.0000000E+00
	2212	-1	0	0	0	0	0.0000000000E+00	0.0000000000E+00	6.5000000000E+03	6.5000000000E+03	9.3827000000E-01	0.000E+00	0.0
	2212	-1	0	0	0	0	0.0000000000E+00	0.0000000000E+00	-6.5000000000E+03	6.5000000000E+03	9.3827000000E-01	0.000E+00	0.0
	2212	1	0	0	0	0	0.0000000000E+00	0.0000000000E+00	6.1617716848E+03	6.1617716848E+03	9.3827000000E-01	0.000E+00	0.0
	2212	1	0	0	0	0	0.0000000000E+00	0.0000000000E+00	-5.6709147393E+03	5.6709147393E+03	9.3827000000E-01	0.000E+00	0.0
	51	2	1	2	0	0	8.6307719442E+01	-1.0620861971E+02	-4.2686248637E+02	1.1500527462E+03	1.0590941617E+03	0.000E+00	0.0
	1000022	2	5	5	0	0	-8.6307719442E+01	1.0620861971E+02	-4.6906442299E+02	9.8056321805E+02	8.5014910359E+02	0.000E+00	0.0
	14	1	6	6	0	0	-1.4939253182E+02	1.5194218481E+02	1.8940170565E+01	3.8908647644E+02	3.2500000000E+02	0.000E+00	0.0
	-14	1	6	6	0	0	6.3084812377E+01	-4.5733565099E+01	-4.8800459356E+02	5.9147674161E+02	3.2500000000E+02	0.000E+00	0.0
	25	2	5	5	0	0	8.6307719442E+01	-1.0620861971E+02	-2.1792522523E+01	1.8675035780E+02	1.2518581695E+02	0.000E+00	0.0
	-5	1	9	9	0	501	7.7569029133E+01	-2.0469858130E+01	3.0418096220E+01	8.5899373398E+01	4.1800000000E+00	0.000E+00	0.0
	5	1	9	9	501	0	8.7386903082E+00	-8.5738761580E+01	-5.2210618742E+01	1.0085098440E+02	4.1800000000E+00	0.000E+00	0.0
</event>
<event>
    11  -1  1.0000000E+00  1.0000000E+00  -1.0000000E+00  -1.0000000E+00
	2212	-1	0	0	0	0	0.0000000000E+00	0.0000000000E+00	6.5000000000E+03	6.5000000000E+03	9.3827000000E-01	0.000E+00	0.0
	2212	-1	0	0	0	0	0.0000000000E+00	0.0000000000E+00	-6.5000000000E+03	6.5000000000E+03	9.3827000000E-01	0.000E+00	0.0
	2212	1	0	0	0	0	0.0000000000E+00	0.0000000000E+00	6.2743141706E+03	6.2743141706E+03	9.3827000000E-01	0.000E+00	0.0
	2212	1	0	0	0	0	0.0000000000E+00	0.0000000000E+00	-5.2846323307E+03	5.2846323307E+03	9.3827000000E-01	0.000E+00	0.0
	51	2	1	2	0	0	1.1820138562E+02	9.3668060038E+01	-1.0968570785E+03	1.5241409927E+03	1.0474564630E+03	0.000E+00	0.0
	1000022	2	5	5	0	0	-1.1820138562E+02	-9.3668060038E+01	-6.9852263317E+02	1.0900710809E+03	8.2314993739E+02	0.000E+00	0.0
	14	1	6	6	0	0	5.4835961189E-01	1.9601719465E+02	-3.8469652199E+02	5.4040674989E+02	3.2500000000E+02	0.000E+00	0.0
	-14	1	6	6	0	0	-1.1874974523E+02	-2.8968525468E+02	-3.1382611119E+02	5.4966433106E+02	3.2500000000E+02	0.000E+00	0.0
	25	2	5	5	0	0	1.1820138562E+02	9.3668060038E+01	-2.9115920677E+02	3.5098241778E+02	1.2517867578E+02	0.000E+00	0.0
	-5	1	9	9	0	501	9.7088369505E+01	3.4935978123E+01	-7.9644666953E+01	1.3041249723E+02	4.1800000000E+00	0.000E+00	0.0
	5	1	9	9	501	0	2.1113016111E+01	5.8732081915E+01	-2.1151453981E+02	2.2056992054E+02	4.1800000000E+00	0.000E+00	0.0
</event>
<event>
    11  -1  1.0000000E+00  1.0000000E+00  -1.0000000E+00  -1.0000000E+00
	2212	-1	0	0	0	0	0.0000000000E+00	0.0000000000E+00	6.5000000000E+03	6.5000000000E+03	9.3827000000E-01	0.000E+00	0.0
	2212	-1	0	0	0	0	0.0000000000E+00	0.0000000000E+00	-6.5000000000E+03	6.5000000000E+03	9.3827000000E-01	0.000E+00	0.0
	2212	1	0	0	0	0	0.0000000000E+00	0.0000000000E+00	5.2409918277E+03	5.2409918277E+03	9.3827000000E-01	0.000E+00	0.0
	2212	1	0	0	0	0	0.0000000000E+00	0.0000000000E+00	-6.2811821668E+03	6.2811821668E+03	9.3827000000E-01	0.000E+00	0.0
	51	2	1	2	0	0	9.0034417290E+00	1.3364424135E+02	1.0964325648E+03	1.5238372536E+03	1.0497493800E+03	0.000E+00	0.0
	1000022	2	5	5	0	0	-9.0034417290E+00	-1.3364424135E+02	8.0822916775E+02	1.1821661905E+03	8.5225622268E+02	0.000E+00	0.0
	14	1	6	6	0	0	-3.8886838258E+00	1.3023428151E+02	6.4284101925E+02	7.3201479901E+02	3.2500000000E+02	0.000E+00	0.0
	-14	1	6	6	0	0	-5.1147579031E+00	-2.6387852286E+02	1.6538814850E+02	4.5015139147E+02	3.2500000000E+02	0.000E+00	0.0
	25	2	5	5	0	0	9.0034417290E+00	1.3364424135E+02	2.3196117134E+02	2.9565981499E+02	1.2516747174E+02	0.000E+00	0.0
	-5	1	9	9	0	501	-2.7454390188E+01	-8.9241412775E+00	1.3297413281E+01	3.2057408475E+01	4.1800000000E+00	0.000E+00	0.0
	5	1	9	9	501	0	3.6457831917E+01	1.4256838263E+02	2.1866375806E+02	2.6360240652E+02	4.1800000000E+00	0.000E+00	0.0
</event>
<event>
    11  -1  1.0000000E+00  1.0000000E+00  -1.0000000E+00  -1.0000000E+00
	2212	-1	0	0	0	0	0.0000000000E+00	0.0000000000E+00	6.5000000000E+03	6.5000000000E+03	9.3827000000E-01	0.000E+00	0.0
	2212	-1	0	0	0	0	0.0000000000E+00	0.0000000000E+00	-6.5000000000E+03	6.5000000000E+03	9.3827000000E-01	0.000E+00	0.0
	2212	1	0	0	0	0	0.0000000000E+00	0.0000000000E+00	5.7404708589E+03	5.7404708589E+03	9.3827000000E-01	0.000E+00	0.0
	2212	1	0	0	0	0	0.0000000000E+00	0.0000000000E+00	-6.1414916838E+03	6.1414916838E+03	9.3827000000E-01	0.000E+00	0.0
	51	2	1	2	0	0	1.0515546276E+02	-6.6802458259E+01	3.4792120440E+02	1.1071402161E+03	1.0436426850E+03	0.000E+00	0.0
	1000022	2	5	5	0	0	-1.0515546276E+02	6.6802458259E+01	3.8668072803E+02	9.4091421307E+02	8.4869154064E+02	0.000E+00	0.0
	14	1	6	6	0	0	-4.2867179457E+01	2.9978493029E+02	2.6952539998E+02	5.1959363039E+02	3.2500000000E+02	0.000E+00	0.0
	-14	1	6	6	0	0	-6.2288283304E+01	-2.3298247203E+02	1.1715532804E+02	4.2132058269E+02	3.2500000000E+02	0.000E+00	0.0
	25	2	5	5	0	0	1.0515546276E+02	-6.6802458259E+01	1.4340096884E+01	1.7712324422E+02	1.2508703165E+02	0.000E+00	0.0
	-5	1	9	9	0	501	7.2661055492E+01	-1.0127714512E+02	2.7634024624E+01	1.2774114774E+02	4.1800000000E+00	0.000E+00	0.0
	5	1	9	9	501	0	3.2494407269E+01	3.4474686865E+01	-1.3293927740E+01	4.9382096482E+01	4.1800000000E+00	0.000E+00	0.0
</event>
<event>
    11  -1  1.0000000E+00  1.0000000E+00  -1.0000000E+00  -1.0000000E+00
	2212	-1	0	0	0	0	0.0000000000E+00	0.0000000000E+00	6.5000000000E+03	6.5000000000E+03	9.3827000000E-01	0.000E+00	0.0
	2212	-1	0	0	0	0	0.0000000000E+00	0.0000000000E+00	-6.5000000000E+03	6.5000000000E+03	9.3827000000E-01	0.000E+00	0.0
	2212	1	0	0	0	0	0.0000000000E+00	0.0000000000E+00	5.3896815997E+03	5.3896815997E+03	9.3827000000E-01	0.000E+00	0.0
	2212	1	0	0	0	0	0.0000000000E+00	0.0000000000E+00	-6.2543404919E+03	6.2543404919E+03	9.3827000000E-01	0.000E+00	0.0
	51	2	1	2	0	0	-6.7840316468E+01	-7.0736702179E+01	8.7656261626E+02	1.3671170755E+03	1.0445291227E+03	0.000E+00	0.0
	1000022	2	5	5	0	0	6.7840316468E+01	7.0736702179E+01	7.2486104832E+02	1.1442722491E+03	8.7995991445E+02	0.000E+00	0.0
	14	1	6	6	0	0	2.9556706081E+02	1.7252720700E+02	4.4026392122E+02	6.4543229306E+02	3.2500000000E+02	0.000E+00	0.0
	-14	1	6	6	0	0	-2.2772674434E+02	-1.0179050482E+02	2.8459712710E+02	4.9883995601E+02	3.2500000000E+02	0.000E+00	0.0
	25	2	5	5	0	0	-6.7840316468E+01	-7.0736702179E+01	1.3979784383E+02	2.1170565930E+02	1.2517930925E+02	0.000E+00	0.0
	-5	1	9	9	0	501	-1.0048284836E+02	-5.2629762183E+01	1.3060203953E+02	1.7303485143E+02	4.1800000000E+00	0.000E+00	0.0
	5	1	9	9	501	0	3.2642531889E+01	-1.8106939996E+01	9.1958043042E+00	3.8670807865E+01	4.1800000000E+00	0.000E+00	0.0
</event>
<event>
    11  -1  1.0000000E+00  1.0000000E+00  -1.0000000E+00  -1.0000000E+00
	2212	-1	0	0	0	0	0.0000000000E+00	0.0000000000E+00	6.5000000000E+03	6.5000000000E+03	9.3827000000E-01	0.000E+00	0.0
	2212	-1	0	0	0	0	0.0000000000E+00	0.0000000000E+00	-6.5000000000E+03	6.5000000000E+03	9.3827000000E-01	0.000E+00	0.0
	2212	1	0	0	0	0	0.0000000000E+00	0.0000000000E+00	6.2698122331E+03	6.2698122331E+03	9.3827000000E-01	0.000E+00	0.0
	2212	1	0	0	0	0	0.0000000000E+00	0.0000000000E+00	-5.3048703739E+03	5.3048703739E+03	9.3827000000E-01	0.000E+00	0.0
	51	2	1	2	0	0	2.6406481973E+01	-1.3786441718E+02	-9.3433999025E+02	1.4117761849E+03	1.0490075686E+03	0.000E+00	0.0
	1000022	2	5	5	0	0	-2.6406481973E+01	1.3786441718E+02	-8.2944141198E+02	1.1935085646E+03	8.4663199677E+02	0.000E+00	0.0
	14	1	6	6	0	0	-1.7063998558E+02	-4.2136126359E+01	-6.6828477106E+02	7.6362490338E+02	3.2500000000E+02	0.000E+00	0.0
	-14	1	6	6	0	0	1.4423350361E+02	1.8000054354E+02	-1.6115664092E+02	4.2988366118E+02	3.2500000000E+02	0.000E+00	0.0
	25	2	5	5	0	0	2.6406481973E+01	-1.3786441718E+02	-1.3550044727E+02	2.3180882839E+02	1.2518411200E+02	0.000E+00	0.0
	-5	1	9	9	0	501	-3.2344702159E+01	-4.8067224283E+01	-1.0528971594E+02	1.2024988354E+02	4.1800000000E+00	0.000E+00	0.0
	5	1	9	9	501	0	5.8751184131E+01	-8.9797192897E+01	-3.0210731323E+01	1.1155894485E+02	4.1800000000E+00	0.000E+00	0.0
</event>
<event>
    11  -1  1.0000000E+00  1.0000000E+00  -1.0000000E+00  -1.0000000E+00
	2212	-1	0	0	0	0	0.0000000000E+00	0.0000000000E+00	6.5000000000E+03	6.5000000000E+03	9.3827000000E-01	0.000E+00	0.0
	2212	-1	0	0	0	0	0.0000000000E+00	0.0000000000E+00	-6.5000000000E+03	6.5000000000E+03	9.3827000000E-01	0.000E+00	0.0
	2212	1	0	0	0	0	0.0000000000E+00	0.0000000000E+00	6.3024712066E+03	6.3024712066E+03	9.3827000000E-01	0.000E+00	0.0
	2212	1	0	0	0	0	0.0000000000E+00	0.0000000000E+00	-5.1104411940E+03	5.1104411940E+03	9.3827000000E-01	0.000E+00	0.0
	51	2	1	2	0	0	-3.6545181082E+01	-1.0176515491E+02	-1.0645397528E+03	1.4976141290E+03	1.0478127205E+03	0.000E+00	0.0
	1000022	2	5	5	0	0	3.6545181082E+01	1.0176515491E+02	-1.1153965838E+03	1.4047875645E+03	8.4712860009E+02	0.000E+00	0.0
	14	1	6	6	0	0	3.5596899014E+01	1.4723991036E+02	-9.9092993714E+02	1.0538092193E+03	3.2500000000E+02	0.000E+00	0.0
	-14	1	6	6	0	0	9.4828206851E-01	-4.5474755452E+01	-1.2446664666E+02	3.5097834514E+02	3.2500000000E+02	0.000E+00	0.0
	25	2	5	5	0	0	-3.6545181082E+01	-1.0176515491E+02	-7.6633428805E+01	1.8230003491E+02	1.2517556992E+02	0.000E+00	0.0
	-5	1	9	9	0	501	3.5702680003E+01	-1.3332307504E+01	-5.3325491856E+01	6.5677334481E+01	4.1800000000E+00	0.000E+00	0.0
	5	1	9	9	501	0	-7.2247861086E+01	-8.8432847406E+01	-2.3307936949E+01	1.1662270043E+02	4.1800000000E+00	0.000E+00	0.0
</event>
<event>
    11  -1  1.0000000E+00  1.0000000E+00  -1.0000000E+00  -1.0000000E+00
	2212	-1	0	0	0	0	0.0000000000E+00	0.0000000000E+00	6.5000000000E+03	6.5000000000E+03	9.3827000000E-01	0.000E+00	0.0
	2212	-1	0	0	0	0	0.0000000000E+00	0.0000000000E+00	-6.5000000000E+03	6.5000000000E+03	9.3827000000E-01	0.000E+00	0.0
	2212	1	0	0	0	0	0.0000000000E+00	0.0000000000E+00	4.8414300166E+03	4.8414300166E+03	9.3827000000E-01	0.000E+00	0.0
	2212	1	0	0	0	0	0.0000000000E+00	0.0000000000E+00	-6.3304758750E+03	6.3304758750E+03	9.3827000000E-01	0.000E+00	0.0
	51	2	1	2	0	0	-6.0363392743E+01	3.3293641941E+01	1.7399118091E+03	2.0388025432E+03	1.0605048329E+03	0.000E+00	0.0
	1000022	2	5	5	0	0	6.0363392743E+01	-3.3293641941E+01	9.7602999728E+02	1.2955455476E+03	8.4914751634E+02	0.000E+00	0.0
	14	1	6	6	0	0	-4.8534236027E+01	-2.6473509127E+02	3.6631474741E+02	5.5879489510E+02	3.2500000000E+02	0.000E+00	0.0
	-14	1	6	6	0	0	1.0889762877E+02	2.3144144933E+02	6.0971524987E+02	7.3675065249E+02	3.2500000000E+02	0.000E+00	0.0
	25	2	5	5	0	0	-6.0363392743E+01	3.3293641941E+01	5.1301586110E+02	5.3254856076E+02	1.2518182793E+02	0.000E+00	0.0
	-5	1	9	9	0	501	-2.9537184225E+01	7.9617177309E+01	2.6382346697E+02	2.7718519856E+02	4.1800000000E+00	0.000E+00	0.0
	5	1	9	9	501	0	-3.0826208518E+01	-4.6323535368E+01	2.4919239413E+02	2.5536336220E+02	4.1800000000E+00	0.000E+00	0.0
</event>
<event>
    11  -1  1.0000000E+00  1.0000000E+00  -1.0000000E+00  -1.0000000E+00
	2212	-1	0	0	0	0	0.0000000000E+00	0.0000000000E+00	6.5000000000E+03	6.5000000000E+03	9.3827000000E-01	0.000E+00	0.0
	2212	-1	0	0	0	0	0.0000000000E+00	0.0000000000E+00	-6.5000000000E+03	6.5000000000E+03	9.3827000000E-01	0.000E+00	0.0
	2212	1	0	0	0	0	0.0000000000E+00	0.0000000000E+00	5.1246644601E+03	5.1246644601E+03	9.3827000000E-01	0.000E+00	0.0
	2212	1	0	0	0	0	0.0000000000E+00	0.0000000000E+00	-6.2935775860E+03	6.2935775860E+03	9.3827000000E-01	0.000E+00	0.0
	51	2	1	2	0	0	-4.8597589291E+01	-1.5449778641E+02	1.1770700287E+03	1.5960342956E+03	1.0656454986E+03	0.000E+00	0.0
	1000022	2	5	5	0	0	4.8597589291E+01	1.5449778641E+02	9.4961630876E+02	1.2817698414E+03	8.4553622082E+02	0.000E+00	0.0
	14	1	6	6	0	0	8.9011365896E+01	-1.2169712307E+02	1.8000222186E+02	4.0094764359E+02	3.2500000000E+02	0.000E+00	0.0
	-14	1	6	6	0	0	-4.0413776605E+01	2.7619490949E+02	7.6961408690E+02	8.8082219779E+02	3.2500000000E+02	0.000E+00	0.0
	25	2	5	5	0	0	-4.8597589291E+01	-1.5449778641E+02	2.1929681723E+02	2.9998811252E+02	1.2518179547E+02	0.000E+00	0.0
	-5	1	9	9	0	501	-7.4148230729E+01	-1.0187545941E+02	8.1210494750E+01	1.4996394969E+02	4.1800000000E+00	0.000E+00	0.0
	5	1	9	9	501	0	2.5550641438E+01	-5.2622327007E+01	1.3808632248E+02	1.5002416283E+02	4.1800000000E+00	0.000E+00	0.0
</event>
<event>
    11  -1  1.0000000E+00  1.0000000E+00  -1.0000000E+00  -1.0000000E+00
	2212	-1	0	0	0	0	0.0000000000E+00	0.0000000000E+00	6.5000000000E+03	6.5000000000E+03	9.3827000000E-01	0.000E+00	0.0
	2212	-1	0	0	0	0	0.0000000000E+00	0.0000000000E+00	-6.5000000000E+03	6.5000000000E+03	9.3827000000E-01	0.000E+00	0.0
	2212	1	0	0	0	0	0.0000000000E+00	0.0000000000E+00	5.5235045699E+03	5.5235045699E+03	9.3827000000E-01	0.000E+00	0.0
	2212	1	0	0	0	0	0.0000000000E+00	0.0000000000E+00	-6.2370247392E+03	6.2370247392E+03	9.3827000000E-01	0.000E+00	0.0
	51	2	1	2	0	0	-8.3604804475E+01	-6.8234373328E+01	7.3787358714E+02	1.2582844215E+03	1.0134971937E+03	0.000E+00	0.0
	1000022	2	5	5	0	0	8.3604804475E+01	6.8234373328E+01	5.7635311171E+02	1.0246860461E+03	8.4032903712E+02	0.000E+00	0.0
	14	1	6	6	0	0	3.7110300597E+01	-2.1878727450E+02	3.7779661073E+02	5.4552756573E+02	3.2500000000E+02	0.000E+00	0.0
	-14	1	6	6	0	0	4.6494503879E+01	2.8702164783E+02	1.9855650098E+02	4.7915848035E+02	3.2500000000E+02	0.000E+00	0.0
	25	2	5	5	0	0	-8.3604804475E+01	-6.8234373328E+01	1.3716705755E+02	2.1478464481E+02	1.2518765487E+02	0.000E+00	0.0
	-5	1	9	9	0	501	-9.4698447136E+01	-6.8665331682E+01	5.0782600698E+01	1.2758945332E+02	4.1800000000E+00	0.000E+00	0.0
	5	1	9	9	501	0	1.1093642660E+01	4.3095835338E-01	8.6384456854E+01	8.7195191488E+01	4.1800000000E+00	0.000E+00	0.0
</event>
<event>
    11  -1  1.0000000E+00  1.0000000E+00  -1.0000000E+00  -1.0000000E+00
	2212	-1	0	0	0	0	0.0000000000E+00	0.0000000000E+00	6.5000000000E+03	6.5000000000E+03	9.3827000000E-01	0.000E+00	0.0
	2212	-1	0	0	0	0	0.0000000000E+00	0.0000000000E+00	-6.5000000000E+03	6.5000000000E+03	9.3827000000E-01	0.000E+00	0.0
	2212	1	0	0	0	0	0.0000000000E+00	0.0000000000E+00	5.4634674209E+03	5.4634674209E+03	9.3827000000E-01	0.000E+00	0.0
	2212	1	0	0	0	0	0.0000000000E+00	0.0000000000E+00	-6.1938014644E+03	6.1938014644E+03	9.3827000000E-01	0.000E+00	0.0
	51	2	1	2	0	0	-2.2109932191E+01	-1.2152308076E+02	5.3853596789E+02	1.2549170206E+03	1.1267382267E+03	0.000E+00	0.0
	1000022	2	5	5	0	0	2.2109932191E+01	1.2152308076E+02	7.7541284853E+02	1.1607994242E+03	8.5494649498E+02	0.000E+00	0.0
	14	1	6	6	0	0	1.8992488433E+02	2.6523204481E+02	3.2832269367E+02	5.6554424271E+02	3.2500000000E+02	0.000E+00	0.0
	-14	1	6	6	0	0	-1.6781495214E+02	-1.4370896405E+02	4.4709015486E+02	5.9525518148E+02	3.2500000000E+02	0.000E+00	0.0
	25	2	5	5	0	0	-2.2109932191E+01	-1.2152308076E+02	-4.5078805031E+01	1.8193169060E+02	1.2573914713E+02	0.000E+00	0.0
	-5	1	9	9	0	501	-5.0232603193E+01	-1.6935127567E+00	9.8071744086E-01	5.0444193082E+01	4.1800000000E+00	0.000E+00	0.0
	5	1	9	9	501	0	2.8122671002E+01	-1.1982956800E+02	-4.6059522472E+01	1.3148749751E+02	4.1800000000E+00	0.000E+00	0.0
</event>
<event>
    11  -1  1.0000000E+00  1.0000000E+00  -1.0000000E+00  -1.0000000E+00
	2212	-1	0	0	0	0	0.0000000000E+00	0.0000000000E+00	6.5000000000E+03	6.5000000000E+03	9.3827000000E-01	0.000E+00	0.0
	2212	-1	0	0	0	0	0.0000000000E+00	0.0000000000E+00	-6.5000000000E+03	6.5000000000E+03	9.3827000000E-01	0.000E+00	0.0
	2212	1	0	0	0	0	0.0000000000E+00	0.0000000000E+00	5.6617571643E+03	5.6617571643E+03	9.3827000000E-01	0.000E+00	0.0
	2212	1	0	0	0	0	0.0000000000E+00	0.0000000000E+00	-6.1669793061E+03	6.1669793061E+03	9.3827000000E-01	0.000E+00	0.0
	51	2	1	2	0	0	-1.2259585073E+02	4.6281729339E+01	5.9087946630E+02	1.2177516693E+03	1.0566971389E+03	0.000E+00	0.0
	1000022	2	5	5	0	0	1.2259585073E+02	-4.6281729339E+01	3.3126208589E+02	9.2006193781E+02	8.4829691663E+02	0.000E+00	0.0
	14	1	6	6	0	0	2.9804104980E+02	-8.9010683819E+01	3.1257910547E+02	5.4779746840E+02	3.2500000000E+02	0.000E+00	0.0
	-14	1	6	6	0	0	-1.7544519908E+02	4.2728954480E+01	1.8682980418E+01	3.7226446941E+02	3.2500000000E+02	0.000E+00	0.0
	25	2	5	5	0	0	-1.2259585073E+02	4.6281729339E+01	1.7396005585E+02	2.5120159181E+02	1.2517347008E+02	0.000E+00	0.0
	-5	1	9	9	0	501	-4.2043276066E+01	-1.4273324944E+01	-5.9061673150E+00	4.4985776415E+01	4.1800000000E+00	0.000E+00	0.0
	5	1	9	9	501	0	-8.0552574659E+01	6.0555054283E+01	1.7986622317E+02	2.0621581540E+02	4.1800000000E+00	0.000E+00	0.0
</event>
<event>
    11  -1  1.0000000E+00  1.0000000E+00  -1.0000000E+00  -1.0000000E+00
	2212	-1	0	0	0	0	0.0000000000E+00	0.0000000000E+00	6.5000000000E+03	6.5000000000E+03	9.3827000000E-01	0.000E+00	0.0
	2212	-1	0	0	0	0	0.0000000000E+00	0.0000000000E+00	-6.5000000000E+03	6.5000000000E+03	9.3827000000E-01	0.000E+00	0.0
	2212	1	0	0	0	0	0.0000000000E+00	0.0000000000E+00	5.1275811018E+03	5.1275811018E+03	9.3827000000E-01	0.000E+00	0.0
	2212	1	0	0	0	0	0.0000000000E+00	0.0000000000E+00	-6.3011163891E+03	6.3011163891E+03	9.3827000000E-01	0.000E+00	0.0
	51	2	1	2	0	0	-1.1651923129E+02	-1.8797512244E+00	1.0989142602E+03	1.5208547992E+03	1.0448954514E+03	0.000E+00	0.0
	1000022	2	5	5	0	0	1.1651923129E+02	1.8797512244E+00	1.0551722025E+03	1.3633545637E+03	8.5543382254E+02	0.000E+00	0.0
	14	1	6	6	0	0	-1.4937310016E+02	3.3930902033E+01	7.8417310082E+02	8.6256366792E+02	3.2500000000E+02	0.000E+00	0.0
	-14	1	6	6	0	0	2.6589233145E+02	-3.2051150808E+01	2.7099910165E+02	5.0079089577E+02	3.2500000000E+02	0.000E+00	0.0
	25	2	5	5	0	0	-1.1651923129E+02	-1.8797512244E+00	1.1836308491E+02	2.0794794539E+02	1.2510900607E+02	0.000E+00	0.0
	-5	1	9	9	0	501	-1.3211435014E+02	-2.4045917399E+01	6.7942915528E+01	1.5055271445E+02	4.1800000000E+00	0.000E+00	0.0
	5	1	9	9	501	0	1.5595118852E+01	2.2166166174E+01	5.0420169380E+01	5.7395230945E+01	4.1800000000E+00	0.000E+00	0.0
</event>
<event>
    11  -1  1.0000000E+00  1.0000000E+00  -1.0000000E+00  -1.0000000E+00
	2212	-1	0	0	0	0	0.0000000000E+00	0.0000000000E+00	6.5000000000E+03	6.5000000000E+03	9.3827000000E-01	0.000E+00	0.0
	2212	-1	0	0	0	0	0.0000000000E+00	0.0000000000E+00	-6.5000000000E+03	6.5000000000E+03	9.3827000000E-01	0.000E+00	0.0
	2212	1	0	0	0	0	0.0000000000E+00	0.0000000000E+00	5.9688177707E+03	5.9688177707E+03	9.3827000000E-01	0.000E+00	0.0
	2212	1	0	0	0	0	0.0000000000E+00	0.0000000000E+00	-5.9839268329E+03	5.9839268329E+03	9.3827000000E-01	0.000E+00	0.0
	51	2	1	2	0	0	-7.2225869153E+00	4.5167504473E+00	1.5391084327E+02	1.0584312429E+03	1.0471463993E+03	0.000E+00	0.0
	1000022	2	5	5	0	0	7.2225869153E+00	-4.5167504473E+00	-1.2625841682E+02	8.5824316418E+02	8.4886251787E+02	0.000E+00	0.0
	14	1	6	6	0	0	1.2804154666E+02	-1.1188492408E+02	1.5584979390E+02	3.9853109310E+02	3.2500000000E+02	0.000E+00	0.0
	-14	1	6	6	0	0	-1.2081895975E+02	1.0736817363E+02	-2.8210821071E+02	4.5971207108E+02	3.2500000000E+02	0.000E+00	0.0
	25	2	5	5	0	0	-7.2225869153E+00	4.5167504473E+00	1.4136747901E+02	1.8901223225E+02	1.2517305229E+02	0.000E+00	0.0
	-5	1	9	9	0	501	-3.8326841456E+01	6.7507088226E+00	-4.8571777706E+00	3.9440885151E+01	4.1800000000E+00	0.000E+00	0.0
	5	1	9	9	501	0	3.1104254541E+01	-2.2339583753E+00	1.4622465678E+02	1.4957134710E+02	4.1800000000E+00	0.000E+00	0.0
</event>
<event>
    11  -1  1.0000000E+00  1.0000000E+00  -1.0000000E+00  -1.0000000E+00
	2212	-1	0	0	0	0	0.0000000000E+00	0.0000000000E+00	6.5000000000E+03	6.5000000000E+03	9.3827000000E-01	0.000E+00	0.0
	2212	-1	0	0	0	0	0.0000000000E+00	0.0000000000E+00	-6.5000000000E+03	6.5000000000E+03	9.3827000000E-01	0.000E+00	0.0
	2212	1	0	0	0	0	0.0000000000E+00	0.0000000000E+00	6.2053306871E+03	6.2053306871E+03	9.3827000000E-01	0.000E+00	0.0
	2212	1	0	0	0	0	0.0000000000E+00	0.0000000000E+00	-5.5319935852E+03	5.5319935852E+03	9.3827000000E-01	0.000E+00	0.0
	51	2	1	2	0	0	-1.5238361171E+02	4.5177519847E+01	-6.5240318537E+02	1.2616888801E+03	1.0681606343E+03	0.000E+00	0.0
	1000022	2	5	5	0	0	1.5238361171E+02	-4.5177519847E+01	-5.7341641609E+02	1.0370299234E+03	8.4933085567E+02	0.000E+00	0.0
	14	1	6	6	0	0	9.9820674668E+01	2.4973082310E+02	-2.9207871868E+02	5.1309319719E+02	3.2500000000E+02	0.000E+00	0.0
	-14	1	6	6	0	0	5.2562937045E+01	-2.9490834295E+02	-2.8133769741E+02	5.2393672621E+02	3.2500000000E+02	0.000E+00	0.0
	25	2	5	5	0	0	-1.5238361171E+02	4.5177519847E+01	-9.9920685848E+01	2.2564580433E+02	1.2518031846E+02	0.000E+00	0.0
	-5	1	9	9	0	501	-4.0862342929E+01	-1.6837938104E+01	-8.6554787675E+01	9.7275129909E+01	4.1800000000E+00	0.000E+00	0.0
	5	1	9	9	501	0	-1.1152126878E+02	6.2015457952E+01	-1.3365898173E+01	1.2837067442E+02	4.1800000000E+00	0.000E+00	0.0
</event>
<event>
    11  -1  1.0000000E+00  1.0000000E+00  -1.0000000E+00  -1.0000000E+00
	2212	-1	0	0	0	0	0.0000000000E+00	0.0000000000E+00	6.5000000000E+03	6.5000000000E+03	9.3827000000E-01	0.000E+00	0.0
	2212	-1	0	0	0	0	0.0000000000E+00	0.0000000000E+00	-6.5000000000E+03	6.5000000000E+03	9.3827000000E-01	0.000E+00	0.0
	2212	1	0	0	0	0	0.0000000000E+00	0.0000000000E+00	5.8544717336E+03	5.8544717336E+03	9.3827000000E-01	0.000E+00	0.0
	2212	1	0	0	0	0	0.0000000000E+00	0.0000000000E+00	-6.0723016167E+03	6.0723016167E+03	9.3827000000E-01	0.000E+00	0.0
	51	2	1	2	0	0	8.7744909576E+01	-7.4894256464E+01	3.2979327728E+02	1.1074463906E+03	1.0508879976E+03	0.000E+00	0.0
	1000022	2	5	5	0	0	-8.7744909576E+01	7.4894256464E+01	6.6593047059E+01	8.4551048005E+02	8.3495210591E+02	0.000E+00	0.0
	14	1	6	6	0	0	-6.5664826610E+01	6.5869575535E+01	-2.2675169819E+02	4.0705282589E+02	3.2500000000E+02	0.000E+00	0.0
	-14	1	6	6	0	0	-2.2080082965E+01	9.0246809290E+00	2.9334474525E+02	4.3845765416E+02	3.2500000000E+02	0.000E+00	0.0
	25	2	5	5	0	0	8.7744909576E+01	-7.4894256464E+01	1.5123683604E+02	2.2771616956E+02	1.2519486610E+02	0.000E+00	0.0
	-5	1	9	9	0	501	-1.9718016390E+01	-1.3847344838E+01	-8.3349864387E+00	2.5835896121E+01	4.1800000000E+00	0.000E+00	0.0
	5	1	9	9	501	0	1.0746292597E+02	-6.1046911626E+01	1.5957182248E+02	2.0188027344E+02	4.1800000000E+00	0.000E+00	0.0
</event>
<event>
    11  -1  1.0000000E+00  1.0000000E+00  -1.0000000E+00  -1.0000000E+00
	2212	-1	0	0	0	0	0.0000000000E+00	0.0000000000E+00	6.5000000000E+03	6.5000000000E+03	9.3827000000E-01	0.000E+00	0.0
	2212	-1	0	0	0	0	0.0000000000E+00	0.0000000000E+00	-6.5000000000E+03	6.5000000000E+03	9.3827000000E-01	0.000E+00	0.0
	2212	1	0	0	0	0	0.0000000000E+00	0.0000000000E+00	5.9899403041E+03	5.9899403041E+03	9.3827000000E-01	0.000E+00	0.0
	2212	1	0	0	0	0	0.0000000000E+00	0.0000000000E+00	-5.9465056842E+03	5.9465056842E+03	9.3827000000E-01	0.000E+00	0.0
	51	2	1	2	0	0	-1.4828957250E+02	-1.2615421665E+01	-7.0010398884E+00	1.0730603573E+03	1.0626667255E+03	0.000E+00	0.0
	1000022	2	5	5	0	0	1.4828957250E+02	1.2615421665E+01	-7.2227846961E+01	8.6696353699E+02	8.5103464466E+02	0.000E+00	0.0
	14	1	6	6	0	0	2.0171512042E+01	6.4320653897E+00	2.3506781556E+02	4.0165923278E+02	3.2500000000E+02	0.000E+00	0.0
	-14	1	6	6	0	0	1.2811806045E+02	6.1833562755E+00	-3.0729566252E+02	4.6530430421E+02	3.2500000000E+02	0.000E+00	0.0
	25	2	5	5	0	0	-1.4828957250E+02	-1.2615421665E+01	2.8793227057E+01	1.9659047470E+02	1.2517914620E+02	0.000E+00	0.0
	-5	1	9	9	0	501	-1.1951793667E+02	7.9475063827E+00	-3.3841062834E+01	1.2454071614E+02	4.1800000000E+00	0.000E+00	0.0
	5	1	9	9	501	0	-2.8771635826E+01	-2.0562928048E+01	6.2634289891E+01	7.2049758557E+01	4.1800000000E+00	0.000E+00	0.0
</event>
<event>
    11  -1  1.0000000E+00  1.0000000E+00  -1.0000000E+00  -1.0000000E+00
	2212	-1	0	0	0	0	0.0000000000E+00	0.0000000000E+00	6.5000000000E+03	6.5000000000E+03	9.3827000000E-01	0.000E+00	0.0
	2212	-1	0	0	0	0	0.0000000000E+00	0.0000000000E+00	-6.5000000000E+03	6.5000000000E+03	9.3827000000E-01	0.000E+00	0.0
	2212	1	0	0	0	0	0.0000000000E+00	0.0000000000E+00	6.3173141857E+03	6.3173141857E+03	9.3827000000E-01	0.000E+00	0.0
	2212	1	0	0	0	0	0.0000000000E+00	0.0000000000E+00	-4.9259212991E+03	4.9259212991E+03	9.3827000000E-01	0.000E+00	0.0
	51	2	1	2	0	0	1.2817368478E+02	8.1261830062E+01	-1.3345269405E+03	1.7187907174E+03	1.0724958727E+03	0.000E+00	0.0
	1000022	2	5	5	0	0	-1.2817368478E+02	-8.1261830062E+01	-1.2017798293E+03	1.4835353657E+03	8.5648727069E+02	0.000E+00	0.0
	14	1	6	6	0	0	-8.7892481137E+01	-2.4765294698E+02	-9.5092012828E+02	1.0387161117E+03	3.2500000000E+02	0.000E+00	0.0
	-14	1	6	6	0	0	-4.0281203643E+01	1.6639111692E+02	-2.5085970099E+02	4.4481925401E+02	3.2500000000E+02	0.000E+00	0.0
	25	2	5	5	0	0	1.2817368478E+02	8.1261830062E+01	-1.8961305737E+02	2.7322914950E+02	1.2517618829E+02	0.000E+00	0.0
	-5	1	9	9	0	501	6.7064102568E+01	2.1015140482E+01	-1.7155029973E+02	1.8543518469E+02	4.1800000000E+00	0.000E+00	0.0
	5	1	9	9	501	0	6.1109582213E+01	6.0246689580E+01	-1.8062757641E+01	8.7793964810E+01	4.1800000000E+00	0.000E+00	0.0
</event>
<event>
    11  -1  1.0000000E+00  1.0000000E+00  -1.0000000E+00  -1.0000000E+00
	2212	-1	0	0	0	0	0.0000000000E+00	0.0000000000E+00	6.5000000000E+03	6.5000000000E+03	9.3827000000E-01	0.000E+00	0.0
	2212	-1	0	0	0	0	0.0000000000E+00	0.0000000000E+00	-6.5000000000E+03	6.5000000000E+03	9.3827000000E-01	0.000E+00	0.0
	2212	1	0	0	0	0	0.0000000000E+00	0.0000000000E+00	5.9750837156E+03	5.9750837156E+03	9.3827000000E-01	0.000E+00	0.0
	2212	1	0	0	0	0	0.0000000000E+00	0.0000000000E+00	-5.9745919773E+03	5.9745919773E+03	9.3827000000E-01	0.000E+00	0.0
	51	2	1	2	0	0	7.9746146535E+01	1.0917286680E+02	7.0583680671E+00	1.0590131688E+03	1.0503241920E+03	0.000E+00	0.0
	1000022	2	5	5	0	0	-7.9746146535E+01	-1.0917286680E+02	-7.9595810202E+00	8.6592502134E+02	8.5526874427E+02	0.000E+00	0.0
	14	1	6	6	0	0	-6.9910251864E+01	-2.2814347929E+02	2.1220387336E+02	4.5562306167E+02	3.2500000000E+02	0.000E+00	0.0
	-14	1	6	6	0	0	-9.8358946713E+00	1.1897061249E+02	-2.2016345438E+02	4.1030195967E+02	3.2500000000E+02	0.000E+00	0.0
	25	2	5	5	0	0	7.9746146535E+01	1.0917286680E+02	7.4678427008E+00	1.8439928579E+02	1.2517653611E+02	0.000E+00	0.0
	-5	1	9	9	0	501	2.3304478212E+00	8.3887071323E+00	-4.5603094847E+01	4.6614547665E+01	4.1800000000E+00	0.000E+00	0.0
	5	1	9	9	501	0	7.7415698714E+01	1.0078415967E+02	5.3070937547E+01	1.3778473812E+02	4.1800000000E+00	0.000E+00	0.0
</event>
<event>
    11  -1  1.0000000E+00  1.0000000E+00  -1.0000000E+00  -1.0000000E+00
	2212	-1	0	0	0	0	0.0000000000E+00	0.0000000000E+00	6.5000000000E+03	6.5000000000E+03	9.3827000000E-01	0.000E+00	0.0
	2212	-1	0	0	0	0	0.0000000000E+00	0.0000000000E+00	-6.5000000000E+03	6.5000000000E+03	9.3827000000E-01	0.000E+00	0.0
	2212	1	0	0	0	0	0.0000000000E+00	0.0000000000E+00	5.9724450406E+03	5.9724450406E+03	9.3827000000E-01	0.000E+00	0.0
	2212	1	0	0	0	0	0.0000000000E+00	0.0000000000E+00	-6.0024550256E+03	6.0024550256E+03	9.3827000000E-01	0.000E+00	0.0
	51	2	1	2	0	0	2.1438580241E+01	4.9579738728E+01	-6.1265091004E+01	1.0279107207E+03	1.0246605658E+03	0.000E+00	0.0
	1000022	2	5	5	0	0	-2.1438580241E+01	-4.9579738728E+01	1.1663861285E+02	8.6357285174E+02	8.5395300869E+02	0.000E+00	0.0
	14	1	6	6	0	0	8.8926719669E+01	1.3877869072E+01	3.1553960252E+02	4.6183416664E+02	3.2500000000E+02	0.000E+00	0.0
	-14	1	6	6	0	0	-1.1036529991E+02	-6.3457607799E+01	-1.9890098967E+02	4.0173868510E+02	3.2500000000E+02	0.000E+00	0.0
	25	2	5	5	0	0	2.1438580241E+01	4.9579738728E+01	-8.6628627879E+01	1.6152708210E+02	1.2517474133E+02	0.000E+00	0.0
	-5	1	9	9	0	501	-1.6772357524E+01	8.2655323643E+01	-4.3672356767E+01	9.5068194729E+01	4.1800000000E+00	0.000E+00	0.0
	5	1	9	9	501	0	3.8210937765E+01	-3.3075584916E+01	-4.2956271112E+01	6.6458887368E+01	4.1800000000E+00	0.000E+00	0.0
</event>
<event>
    11  -1  1.0000000E+00  1.0000000E+00  -1.0000000E+00  -1.0000000E+00
	2212	-1	0	0	0	0	0.0000000000E+00	0.0000000000E+00	6.5000000000E+03	6.5000000000E+03	9.3827000000E-01	0.000E+00	0.0
	2212	-1	0	0	0	0	0.0000000000E+00	0.0000000000E+00	-6.5000000000E+03	6.5000000000E+03	9.3827000000E-01	0.000E+00	0.0
	2212	1	0	0	0	0	0.0000000000E+00	0.0000000000E+00	6.3333891847E+03	6.3333891847E+03	9.3827000000E-01	0.000E+00	0.0
	2212	1	0	0	0	0	0.0000000000E+00	0.0000000000E+00	-4.9456646659E+03	4.9456646659E+03	9.3827000000E-01	0.000E+00	0.0
	51	2	1	2	0	0	-4.7434185959E+01	7.6952160036E+01	-1.4591819906E+03	1.7813646532E+03	1.0177800888E+03	0.000E+00	0.0
	1000022	2	5	5	0	0	4.7434185959E+01	-7.6952160036E+01	-1.1057568056E+03	1.3994695002E+03	8.5302117893E+02	0.000E+00	0.0
	14	1	6	6	0	0	-3.1770951008E+01	-2.7584087585E+02	-3.6242276584E+02	5.6042202251E+02	3.2500000000E+02	0.000E+00	0.0
	-14	1	6	6	0	0	7.9205136967E+01	1.9888871582E+02	-7.4333403981E+02	8.3904747764E+02	3.2500000000E+02	0.000E+00	0.0
	25	2	5	5	0	0	-4.7434185959E+01	7.6952160036E+01	-2.8196771313E+02	3.2147664923E+02	1.2517910296E+02	0.000E+00	0.0
	-5	1	9	9	0	501	-5.5503016797E+01	3.6305233949E+01	-4.3560211612E+01	7.9458286674E+01	4.1800000000E+00	0.000E+00	0.0
	5	1	9	9	501	0	8.0688308377E+00	4.0646926088E+01	-2.3840750152E+02	2.4201836255E+02	4.1800000000E+00	0.000E+00	0.0
</event>
<event>
    11  -1  1.0000000E+00  1.0000000E+00  -1.0000000E+00  -1.0000000E+00
	2212	-1	0	0	0	0	0.0000000000E+00	0.0000000000E+00	6.5000000000E+03	6.5000000000E+03	9.3827000000E-01	0.000E+00	0.0
	2212	-1	0	0	0	0	0.0000000000E+00	0.0000000000E+00	-6.5000000000E+03	6.5000000000E+03	9.3827000000E-01	0.000E+00	0.0
	2212	1	0	0	0	0	0.0000000000E+00	0.0000000000E+00	6.2823728038E+03	6.2823728038E+03	9.3827000000E-01	0.000E+00	0.0
	2212	1	0	0	0	0	0.0000000000E+00	0.0000000000E+00	-5.2351745678E+03	5.2351745678E+03	9.3827000000E-01	0.000E+00	0.0
	51	2	1	2	0	0	-1.0511832638E+02	9.4154851657E+01	-1.0357158913E+03	1.4811023112E+03	1.0493053179E+03	0.000E+00	0.0
	1000022	2	5	5	0	0	1.0511832638E+02	-9.4154851657E+01	-8.7937941134E+02	1.2299775661E+03	8.4830517236E+02	0.000E+00	0.0
	14	1	6	6	0	0	2.2816916999E+02	-1.1744684936E+02	-7.5320463244E+02	8.5953310052E+02	3.2500000000E+02	0.000E+00	0.0
	-14	1	6	6	0	0	-1.2305084360E+02	2.3291997700E+01	-1.2617477890E+02	3.7044446561E+02	3.2500000000E+02	0.000E+00	0.0
	25	2	5	5	0	0	-1.0511832638E+02	9.4154851657E+01	-1.6781882465E+02	2.5247506235E+02	1.2516189742E+02	0.000E+00	0.0
	-5	1	9	9	0	501	-7.4794067604E+01	8.6463311524E+01	-4.0587493759E+01	1.2138728862E+02	4.1800000000E+00	0.000E+00	0.0
	5	1	9	9	501	0	-3.0324258778E+01	7.6915401333E+00	-1.2723133089E+02	1.3108777373E+02	4.1800000000E+00	0.000E+00	0.0
</event>
<event>
    11  -1  1.0000000E+00  1.0000000E+00  -1.0000000E+00  -1.0000000E+00
	2212	-1	0	0	0	0	0.0000000000E+00	0.0000000000E+00	6.5000000000E+03	6.5000000000E+03	9.3827000000E-01	0.000E+00	0.0
	2212	-1	0	0	0	0	0.0000000000E+00	0.0000000000E+00	-6.5000000000E+03	6.5000000000E+03	9.3827000000E-01	0.000E+00	0.0
	2212	1	0	0	0	0	0.0000000000E+00	0.0000000000E+00	5.6437871892E+03	5.6437871892E+03	9.3827000000E-01	0.000E+00	0.0
	2212	1	0	0	0	0	0.0000000000E+00	0.0000000000E+00	-6.1781354387E+03	6.1781354387E+03	9.3827000000E-01	0.000E+00	0.0
	51	2	1	2	0	0	7.7587880972E+01	-1.0625452797E+02	6.0121866805E+02	1.2170094633E+03	1.0499229700E+03	0.000E+00	0.0
	1000022	2	5	5	0	0	-7.7587880972E+01	1.0625452797E+02	3.7578377394E+02	9.3698743028E+02	8.4818753573E+02	0.000E+00	0.0
	14	1	6	6	0	0	2.5924443582E+01	2.0517025198E+02	4.3046725328E+02	5.7766250114E+02	3.2500000000E+02	0.000E+00	0.0
	-14	1	6	6	0	0	-1.0351232455E+02	-9.8915724008E+01	-5.4683479344E+01	3.5932492914E+02	3.2500000000E+02	0.000E+00	0.0
	25	2	5	5	0	0	7.7587880972E+01	-1.0625452797E+02	1.5856447550E+02	2.4108994178E+02	1.2518691287E+02	0.000E+00	0.0
	-5	1	9	9	0	501	5.1245752291E+01	-5.1282343833E+01	1.6438678810E+02	1.7971225450E+02	4.1800000000E+00	0.000E+00	0.0
	5	1	9	9	501	0	2.6342128681E+01	-5.4972184135E+01	-5.8223126027E+00	6.1377687282E+01	4.1800000000E+00	0.000E+00	0.0
</event>
<event>
    11  -1  1.0000000E+00  1.0000000E+00  -1.0000000E+00  -1.0000000E+00
	2212	-1	0	0	0	0	0.0000000000E+00	0.0000000000E+00	6.5000000000E+03	6.5000000000E+03	9.3827000000E-01	0.000E+00	0.0
	2212	-1	0	0	0	0	0.0000000000E+00	0.0000000000E+00	-6.5000000000E+03	6.5000000000E+03	9.3827000000E-01	0.000E+00	0.0
	2212	1	0	0	0	0	0.0000000000E+00	0.0000000000E+00	4.9676408475E+03	4.9676408475E+03	9.3827000000E-01	0.000E+00	0.0
	2212	1	0	0	0	0	0.0000000000E+00	0.0000000000E+00	-6.3231363003E+03	6.3231363003E+03	9.3827000000E-01	0.000E+00	0.0
	51	2	1	2	0	0	-7.0258847014E+01	2.7531248880E+01	1.2003172784E+03	1.5907641810E+03	1.0411891450E+03	0.000E+00	0.0
	1000022	2	5	5	0	0	7.0258847014E+01	-2.7531248880E+01	1.2895650305E+03	1.5488728664E+03	8.5459634526E+02	0.000E+00	0.0
	14	1	6	6	0	0	3.0457632944E+01	2.6376470456E+02	6.3025093555E+02	7.5719266276E+02	3.2500000000E+02	0.000E+00	0.0
	-14	1	6	6	0	0	3.9801214070E+01	-2.9129595344E+02	6.5931409493E+02	7.9168020369E+02	3.2500000000E+02	0.000E+00	0.0
	25	2	5	5	0	0	-7.0258847014E+01	2.7531248880E+01	6.5930422400E+01	1.6034998574E+02	1.2518395297E+02	0.000E+00	0.0
	-5	1	9	9	0	501	-2.0598902453E+01	2.7096549672E+01	9.6138883175E+01	1.0207200911E+02	4.1800000000E+00	0.000E+00	0.0
	5	1	9	9	501	0	-4.9659944561E+01	4.3469920822E-01	-3.0208460775E+01	5.8277976626E+01	4.1800000000E+00	0.000E+00	0.0
</event>
<event>
    11  -1  1.0000000E+00  1.0000000E+00  -1.0000000E+00  -1.0000000E+00
	2212	-1	0	0	0	0	0.0000000000E+00	0.0000000000E+00	6.5000000000E+03	6.5000000000E+03	9.3827000000E-01	0.000E+00	0.0
	2212	-1	0	0	0	0	0.0000000000E+00	0.0000000000E+00	-6.5000000000E+03	6.5000000000E+03	9.3827000000E-01	0.000E+00	0.0
	2212	1	0	0	0	0	0.0000000000E+00	0.0000000000E+00	6.0374893921E+03	6.0374893921E+03	9.3827000000E-01	0.000E+00	0.0
	2212	1	0	0	0	0	0.0000000000E+00	0.0000000000E+00	-5.8955023664E+03	5.8955023664E+03	9.3827000000E-01	0.000E+00	0.0
	51	2	1	2	0	0	-9.5825358098E+01	1.1892019428E+02	-1.1403063018E+02	1.0745574757E+03	1.0575189228E+03	0.000E+00	0.0
	1000022	2	5	5	0	0	9.5825358098E+01	-1.1892019428E+02	-1.4466734872E+02	8.6951364017E+02	8.4368288877E+02	0.000E+00	0.0
	14	1	6	6	0	0	-1.8634121365E+02	7.8838692428E+01	-4.4869850404E+01	3.8545673013E+02	3.2500000000E+02	0.000E+00	0.0
	-14	1	6	6	0	0	2.8216657175E+02	-1.9775888671E+02	-9.9797498316E+01	4.8405691004E+02	3.2500000000E+02	0.000E+00	0.0
	25	2	5	5	0	0	-9.5825358098E+01	1.1892019428E+02	2.6803229830E+00	1.9749460139E+02	1.2518954263E+02	0.000E+00	0.0
	-5	1	9	9	0	501	-7.2747871622E-01	1.5898343579E+01	-4.6131276870E+01	4.8978093670E+01	4.1800000000E+00	0.000E+00	0.0
	5	1	9	9	501	0	-9.5097879382E+01	1.0302185070E+02	4.8811599853E+01	1.4851650772E+02	4.1800000000E+00	0.000E+00	0.0
</event>
<event>
    11  -1  1.0000000E+00  1.0000000E+00  -1.0000000E+00  -1.0000000E+00
	2212	-1	0	0	0	0	0.0000000000E+00	0.0000000000E+00	6.5000000000E+03	6.5000000000E+03	9.3827000000E-01	0.000E+00	0.0
	2212	-1	0	0	0	0	0.0000000000E+00	0.0000000000E+00	-6.5000000000E+03	6.5000000000E+03	9.3827000000E-01	0.000E+00	0.0
	2212	1	0	0	0	0	0.0000000000E+00	0.0000000000E+00	6.3310695088E+03	6.3310695088E+03	9.3827000000E-01	0.000E+00	0.0
	2212	1	0	0	0	0	0.0000000000E+00	0.0000000000E+00	-4.8988423145E+03	4.8988423145E+03	9.3827000000E-01	0.000E+00	0.0
	51	2	1	2	0	0	4.2940199137E+01	-3.7721507532E+01	-1.2393416695E+03	1.6190033859E+03	1.0401622071E+03	0.000E+00	0.0
	1000022	2	5	5	0	0	-4.2940199137E+01	3.7721507532E+01	-1.3851864757E+03	1.6246483598E+03	8.4703833903E+02	0.000E+00	0.0
	14	1	6	6	0	0	-8.5637354661E+01	-2.0850388151E+02	-9.3799880040E+02	1.0179756258E+03	3.2500000000E+02	0.000E+00	0.0
	-14	1	6	6	0	0	4.2697155524E+01	2.4622538904E+02	-4.4718767529E+02	6.0667273404E+02	3.2500000000E+02	0.000E+00	0.0
	25	2	5	5	0	0	4.2940199137E+01	-3.7721507532E+01	-4.7040718619E+01	1.4543981685E+02	1.2519240506E+02	0.000E+00	0.0
	-5	1	9	9	0	501	6.3392382103E+01	2.7109533671E+01	-1.7867491912E+01	7.1345922040E+01	4.1800000000E+00	0.000E+00	0.0
	5	1	9	9	501	0	-2.0452182966E+01	-6.4831041203E+01	-2.9173226707E+01	7.4093894809E+01	4.1800000000E+00	0.000E+00	0.0
</event>
<event>
    11  -1  1.0000000E+00  1.0000000E+00  -1.0000000E+00  -1.0000000E+00
	2212	-1	0	0	0	0	0.0000000000E+00	0.0000000000E+00	6.5000000000E+03	6.5000000000E+03	9.3827000000E-01	0.000E+00	0.0
	2212	-1	0	0	0	0	0.0000000000E+00	0.0000000000E+00	-6.5000000000E+03	6.5000000000E+03	9.3827000000E-01	0.000E+00	0.0
	2212	1	0	0	0	0	0.0000000000E+00	0.0000000000E+00	6.1136504343E+03	6.1136504343E+03	9.3827000000E-01	0.000E+00	0.0
	2212	1	0	0	0	0	0.0000000000E+00	0.0000000000E+00	-5.7780506542E+03	5.7780506542E+03	9.3827000000E-01	0.000E+00	0.0
	51	2	1	2	0	0	7.4743493779E+01	3.2564308229E+01	-2.1186087235E+02	1.0803848010E+03	1.0562666637E+03	0.000E+00	0.0
	1000022	2	5	5	0	0	-7.4743493779E+01	-3.2564308229E+01	-4.0145166695E+02	9.4504447544E+02	8.5164464163E+02	0.000E+00	0.0
	14	1	6	6	0	0	-1.5281607858E+02	-5.4998448861E+01	-4.7898639302E+02	6.0119094134E+02	3.2500000000E+02	0.000E+00	0.0
	-14	1	6	6	0	0	7.8072584801E+01	2.2434140631E+01	7.7534726070E+01	3.4385353410E+02	3.2500000000E+02	0.000E+00	0.0
	25	2	5	5	0	0	7.4743493779E+01	3.2564308229E+01	6.5851886872E+01	1.6325443609E+02	1.2517394243E+02	0.000E+00	0.0
	-5	1	9	9	0	501	6.7101718553E+00	7.0064440193E+01	4.1110695059E+01	8.1618710074E+01	4.1800000000E+00	0.000E+00	0.0
	5	1	9	9	501	0	6.8033321924E+01	-3.7500131963E+01	2.4741191813E+01	8.1635726012E+01	4.1800000000E+00	0.000E+00	0.0
</event>
<event>
    11  -1  1.0000000E+00  1.0000000E+00  -1.0000000E+00  -1.0000000E+00
	2212	-1	0	0	0	0	0.0000000000E+00	0.0000000000E+00	6.5000000000E+03	6.5000000000E+03	9.3827000000E-01	0.000E+00	0.0
	2212	-1	0	0	0	0	0.0000000000E+00	0.0000000000E+00	-6.5000000000E+03	6.5000000000E+03	9.3827000000E-01	0.000E+00	0.0
	2212	1	0	0	0	0	0.0000000000E+00	0.0000000000E+00	5.3423787003E+03	5.3423787003E+03	9.3827000000E-01	0.000E+00	0.0
	2212	1	0	0	0	0	0.0000000000E+00	0.0000000000E+00	-6.2631467229E+03	6.2631467229E+03	9.3827000000E-01	0.000E+00	0.0
	51	2	1	2	0	0	7.0550769006E+01	7.3092764709E+01	1.0073250068E+03	1.4566294060E+03	1.0472562217E+03	0.000E+00	0.0
	1000022	2	5	5	0	0	-7.0550769006E+01	-7.3092764709E+01	6.8864399505E+02	1.1118629810E+03	8.6699986923E+02	0.000E+00	0.0
	14	1	6	6	0	0	-2.3547611390E+02	-2.2428786308E+02	2.5565162058E+02	5.2605778850E+02	3.2500000000E+02	0.000E+00	0.0
	-14	1	6	6	0	0	1.6492534489E+02	1.5119509837E+02	4.3299237447E+02	5.8580519246E+02	3.2500000000E+02	0.000E+00	0.0
	25	2	5	5	0	0	7.0550769006E+01	7.3092764709E+01	2.3212402749E+02	2.8261159583E+02	1.2517102980E+02	0.000E+00	0.0
	-5	1	9	9	0	501	6.2563004256E+01	-4.6439147477E-01	1.8364698919E+02	1.9405678087E+02	4.1800000000E+00	0.000E+00	0.0
	5	1	9	9	501	0	7.9877647499E+00	7.3557156184E+01	4.8477038298E+01	8.8554814966E+01	4.1800000000E+00	0.000E+00	0.0
</event>
<event>
    11  -1  1.0000000E+00  1.0000000E+00  -1.0000000E+00  -1.0000000E+00
	2212	-1	0	0	0	0	0.0000000000E+00	0.0000000000E+00	6.5000000000E+03	6.5000000000E+03	9.3827000000E-01	0.000E+00	0.0
	2212	-1	0	0	0	0	0.0000000000E+00	0.0000000000E+00	-6.5000000000E+03	6.5000000000E+03	9.3827000000E-01	0.000E+00	0.0
	2212	1	0	0	0	0	0.0000000000E+00	0.0000000000E+00	5.9097492291E+03	5.9097492291E+03	9.3827000000E-01	0.000E+00	0.0
	2212	1	0	0	0	0	0.0000000000E+00	0.0000000000E+00	-6.0238715006E+03	6.0238715006E+03	9.3827000000E-01	0.000E+00	0.0
	51	2	1	2	0	0	-1.0971140046E+02	-9.7577264380E+01	1.3029631270E+02	1.0782745004E+03	1.0602550897E+03	0.000E+00	0.0
	1000022	2	5	5	0	0	1.0971140046E+02	9.7577264380E+01	7.8219054124E+01	8.7013102747E+02	8.5407954584E+02	0.000E+00	0.0
	14	1	6	6	0	0	-2.2043522174E+02	8.2800596964E+01	8.6582475692E+00	4.0143192585E+02	3.2500000000E+02	0.000E+00	0.0
	-14	1	6	6	0	0	3.3014662220E+02	1.4776667416E+01	6.9560806555E+01	4.6869910162E+02	3.2500000000E+02	0.000E+00	0.0
	25	2	5	5	0	0	-1.0971140046E+02	-9.7577264380E+01	3.5903217414E+01	1.9624824285E+02	1.2516556190E+02	0.000E+00	0.0
	-5	1	9	9	0	501	-1.2439731415E+02	-1.0734025585E+02	1.0038607348E+01	1.6466592949E+02	4.1800000000E+00	0.000E+00	0.0
	5	1	9	9	501	0	1.4685913691E+01	9.7629914737E+00	2.5864610066E+01	3.1582313363E+01	4.1800000000E+00	0.000E+00	0.0
</event>
<event>
    11  -1  1.0000000E+00  1.0000000E+00  -1.0000000E+00  -1.0000000E+00
	2212	-1	0	0	0	0	0.0000000000E+00	0.0000000000E+00	6.5000000000E+03	6.5000000000E+03	9.3827000000E-01	0.000E+00	0.0
	2212	-1	0	0	0	0	0.0000000000E+00	0.0000000000E+00	-6.5000000000E+03	6.5000000000E+03	9.3827000000E-01	0.000E+00	0.0
	2212	1	0	0	0	0	0.0000000000E+00	0.0000000000E+00	6.1808364746E+03	6.1808364746E+03	9.3827000000E-01	0.000E+00	0.0
	2212	1	0	0	0	0	0.0000000000E+00	0.0000000000E+00	-5.6375532505E+03	5.6375532505E+03	9.3827000000E-01	0.000E+00	0.0
	51	2	1	2	0	0	-6.5744636880E+01	1.2981703484E+02	-6.2635873250E+02	1.2306690302E+03	1.0493074765E+03	0.000E+00	0.0
	1000022	2	5	5	0	0	6.5744636880E+01	-1.2981703484E+02	-3.6108058163E+02	9.1695561141E+02	8.3021297693E+02	0.000E+00	0.0
	14	1	6	6	0	0	9.1763082406E+01	4.2444046448E+01	-4.2311780348E+02	5.4302452614E+02	3.2500000000E+02	0.000E+00	0.0
	-14	1	6	6	0	0	-2.6018445526E+01	-1.7226108129E+02	6.2037221853E+01	3.7393108527E+02	3.2500000000E+02	0.000E+00	0.0
	25	2	5	5	0	0	-6.5744636880E+01	1.2981703484E+02	-1.8220264248E+02	2.6465466352E+02	1.2517774637E+02	0.000E+00	0.0
	-5	1	9	9	0	501	-6.6541559205E+01	1.1572441149E+02	-6.8679024531E+01	1.5018055575E+02	4.1800000000E+00	0.000E+00	0.0
	5	1	9	9	501	0	7.9692232489E-01	1.4092623353E+01	-1.1352361795E+02	1.1447410777E+02	4.1800000000E+00	0.000E+00	0.0
</event>
<event>
    11  -1  1.0000000E+00  1.0000000E+00  -1.0000000E+00  -1.0000000E+00
	2212	-1	0	0	0	0	0.0000000000E+00	0.0000000000E+00	6.5000000000E+03	6.5000000000E+03	9.3827000000E-01	0.000E+00	0.0
	2212	-1	0	0	0	0	0.0000000000E+00	0.0000000000E+00	-6.5000000000E+03	6.5000000000E+03	9.3827000000E-01	0.000E+00	0.0
	2212	1	0	0	0	0	0.0000000000E+00	0.0000000000E+00	5.0090291611E+03	5.0090291611E+03	9.3827000000E-01	0.000E+00	0.0
	2212	1	0	0	0	0	0.0000000000E+00	0.0000000000E+00	-6.3132389895E+03	6.3132389895E+03	9.3827000000E-01	0.000E+00	0.0
	51	2	1	2	0	0	1.2166286604E+02	-7.0304413036E+01	1.3737246913E+03	1.7380117874E+03	1.0553771280E+03	0.000E+00	0.0
	1000022	2	5	5	0	0	-1.2166286604E+02	7.0304413036E+01	1.0101766994E+03	1.3286322465E+03	8.5150579503E+02	0.000E+00	0.0
	14	1	6	6	0	0	-2.9772991545E+01	2.3641484660E+02	2.3397611773E+02	4.6599166772E+02	3.2500000000E+02	0.000E+00	0.0
	-14	1	6	6	0	0	-9.1889874495E+01	-1.6611043356E+02	7.7620058166E+02	8.6264057877E+02	3.2500000000E+02	0.000E+00	0.0
	25	2	5	5	0	0	1.2166286604E+02	-7.0304413036E+01	2.9403312899E+02	3.4909960298E+02	1.2518182134E+02	0.000E+00	0.0
	-5	1	9	9	0	501	3.5550742061E+01	2.0822993219E+01	1.6102996493E+02	1.6626958325E+02	4.1800000000E+00	0.000E+00	0.0
	5	1	9	9	501	0	8.6112123979E+01	-9.1127406255E+01	1.3300316405E+02	1.8283001973E+02	4.1800000000E+00	0.000E+00	0.0
</event>
<event>
    11  -1  1.0000000E+00  1.0000000E+00  -1.0000000E+00  -1.0000000E+00
	2212	-1	0	0	0	0	0.0000000000E+00	0.0000000000E+00	6.5000000000E+03	6.5000000000E+03	9.3827000000E-01	0.000E+00	0.0
	2212	-1	0	0	0	0	0.0000000000E+00	0.0000000000E+00	-6.5000000000E+03	6.5000000000E+03	9.3827000000E-01	0.000E+00	0.0
	2212	1	0	0	0	0	0.0000000000E+00	0.0000000000E+00	5.0634786407E+03	5.0634786407E+03	9.3827000000E-01	0.000E+00	0.0
	2212	1	0	0	0	0	0.0000000000E+00	0.0000000000E+00	-6.3047763625E+03	6.3047763625E+03	9.3827000000E-01	0.000E+00	0.0
	51	2	1	2	0	0	-9.5037252088E+01	-1.0182734006E+02	1.1848784324E+03	1.5953399281E+03	1.0591372433E+03	0.000E+00	0.0
	1000022	2	5	5	0	0	9.5037252088E+01	1.0182734006E+02	1.0839054287E+03	1.3870845530E+03	8.5425505115E+02	0.000E+00	0.0
	14	1	6	6	0	0	5.8062282354E+01	3.1096324501E+02	4.2078502830E+02	6.1867148668E+02	3.2500000000E+02	0.000E+00	0.0
	-14	1	6	6	0	0	3.6974969734E+01	-2.0913590495E+02	6.6312040035E+02	7.6841306632E+02	3.2500000000E+02	0.000E+00	0.0
	25	2	5	5	0	0	-9.5037252088E+01	-1.0182734006E+02	1.5739229321E+02	2.4466044377E+02	1.2524181537E+02	0.000E+00	0.0
	-5	1	9	9	0	501	-5.5227801472E+01	-1.2313190855E+02	1.4396337681E+02	1.9736895202E+02	4.1800000000E+00	0.000E+00	0.0
	5	1	9	9	501	0	-3.9809450616E+01	2.1304568486E+01	1.3428916400E+01	4.7291491755E+01	4.1800000000E+00	0.000E+00	0.0
</event>
<event>
    11  -1  1.0000000E+00  1.0000000E+00  -1.0000000E+00  -1.0000000E+00
	2212	-1	0	0	0	0	0.0000000000E+00	0.0000000000E+00	6.5000000000E+03	6.5000000000E+03	9.3827000000E-01	0.000E+00	0.0
	2212	-1	0	0	0	0	0.0000000000E+00	0.0000000000E+00	-6.5000000000E+03	6.5000000000E+03	9.3827000000E-01	0.000E+00	0.0
	2212	1	0	0	0	0	0.0000000000E+00	0.0000000000E+00	5.3018552267E+03	5.3018552267E+03	9.3827000000E-01	0.000E+00	0.0
	2212	1	0	0	0	0	0.0000000000E+00	0.0000000000E+00	-6.2685108387E+03	6.2685108387E+03	9.3827000000E-01	0.000E+00	0.0
	51	2	1	2	0	0	7.4511759079E+01	-1.0122893946E+01	8.7263689888E+02	1.3698831145E+03	1.0532948851E+03	0.000E+00	0.0
	1000022	2	5	5	0	0	-7.4511759079E+01	1.0122893946E+01	9.1570487894E+02	1.2749823998E+03	8.8397410551E+02	0.000E+00	0.0
	14	1	6	6	0	0	-3.2157773101E+02	8.6522541644E+01	5.6042698445E+02	7.2842418425E+02	3.2500000000E+02	0.000E+00	0.0
	-14	1	6	6	0	0	2.4706597193E+02	-7.6399647698E+01	3.5527789449E+02	5.4655821553E+02	3.2500000000E+02	0.000E+00	0.0
	25	2	5	5	0	0	7.4511759079E+01	-1.0122893946E+01	5.0950733050E+01	1.5465153490E+02	1.2516646846E+02	0.000E+00	0.0
	-5	1	9	9	0	501	9.1637483928E+01	2.1116745277E+01	2.2401484553E+00	9.4158568685E+01	4.1800000000E+00	0.000E+00	0.0
	5	1	9	9	501	0	-1.7125724849E+01	-3.1239639223E+01	4.8710584595E+01	6.0492966219E+01	4.1800000000E+00	0.000E+00	0.0
</event>
<event>
    11  -1  1.0000000E+00  1.0000000E+00  -1.0000000E+00  -1.0000000E+00
	2212	-1	0	0	0	0	0.0000000000E+00	0.0000000000E+00	6.5000000000E+03	6.5000000000E+03	9.3827000000E-01	0.000E+00	0.0
	2212	-1	0	0	0	0	0.0000000000E+00	0.0000000000E+00	-6.5000000000E+03	6.5000000000E+03	9.3827000000E-01	0.000E+00	0.0
	2212	1	0	0	0	0	0.0000000000E+00	0.0000000000E+00	5.1925763024E+03	5.1925763024E+03	9.3827000000E-01	0.000E+00	0.0
	2212	1	0	0	0	0	0.0000000000E+00	0.0000000000E+00	-6.2893619670E+03	6.2893619670E+03	9.3827000000E-01	0.000E+00	0.0
	51	2	1	2	0	0	1.0861311384E+02	1.0634335514E+01	1.2397875943E+03	1.6280527634E+03	1.0495582994E+03	0.000E+00	0.0
	1000022	2	5	5	0	0	-1.0861311384E+02	-1.0634335514E+01	7.6552429458E+02	1.1475006877E+03	8.4783281669E+02	0.000E+00	0.0
	14	1	6	6	0	0	-3.2343195930E+02	1.1457729288E+01	4.8065507814E+02	6.6437475569E+02	3.2500000000E+02	0.000E+00	0.0
	-14	1	6	6	0	0	2.1481884546E+02	-2.2092064802E+01	2.8486921644E+02	4.8312593199E+02	3.2500000000E+02	0.000E+00	0.0
	25	2	5	5	0	0	1.0861311384E+02	1.0634335514E+01	3.3126136998E+02	3.7056104287E+02	1.2518583651E+02	0.000E+00	0.0
	-5	1	9	9	0	501	1.2671218528E+02	1.0518274798E+01	3.2785998503E+02	3.5167634863E+02	4.1800000000E+00	0.000E+00	0.0
	5	1	9	9	501	0	-1.8099071439E+01	1.1606071678E-01	3.4013849538E+00	1.8884694243E+01	4.1800000000E+00	0.000E+00	0.0
</event>
<event>
    11  -1  1.0000000E+00  1.0000000E+00  -1.0000000E+00  -1.0000000E+00
	2212	-1	0	0	0	0	0.0000000000E+00	0.0000000000E+00	6.5000000000E+03	6.5000000000E+03	9.3827000000E-01	0.000E+00	0.0
	2212	-1	0	0	0	0	0.0000000000E+00	0.0000000000E+00	-6.5000000000E+03	6.5000000000E+03	9.3827000000E-01	0.000E+00	0.0
	2212	1	0	0	0	0	0.0000000000E+00	0.0000000000E+00	5.7436747240E+03	5.7436747240E+03	9.3827000000E-01	0.000E+00	0.0
	2212	1	0	0	0	0	0.0000000000E+00	0.0000000000E+00	-6.1340244697E+03	6.1340244697E+03	9.3827000000E-01	0.000E+00	0.0
	51	2	1	2	0	0	-7.7742764327E+01	-5.9922138679E+01	3.0379571714E+02	1.0995965686E+03	1.0522291461E+03	0.000E+00	0.0
	1000022	2	5	5	0	0	7.7742764327E+01	5.9922138679E+01	4.1311374045E+02	9.6160129576E+02	8.6277429803E+02	0.000E+00	0.0
	14	1	6	6	0	0	8.1320396194E+01	-5.4593100834E+01	5.0174954875E+02	6.0578133280E+02	3.2500000000E+02	0.000E+00	0.0
	-14	1	6	6	0	0	-3.5776318666E+00	1.1451523951E+02	-8.8635808296E+01	3.5581996296E+02	3.2500000000E+02	0.000E+00	0.0
	25	2	5	5	0	0	-7.7742764327E+01	-5.9922138679E+01	-2.2763994701E+01	1.6069951053E+02	1.2518599411E+02	0.000E+00	0.0
	-5	1	9	9	0	501	-8.4150585279E+01	-4.0046541373E+01	-6.4794026165E+01	1.1358162134E+02	4.1800000000E+00	0.000E+00	0.0
	5	1	9	9	501	0	6.4078209523E+00	-1.9875597307E+01	4.2030031463E+01	4.7117889198E+01	4.1800000000E+00	0.000E+00	0.0
</event>
<event>
    11  -1  1.0000000E+00  1.0000000E+00  -1.0000000E+00  -1.0000000E+00
	2212	-1	0	0	0	0	0.0000000000E+00	0.0000000000E+00	6.5000000000E+03	6.5000000000E+03	9.3827000000E-01	0.000E+00	0.0
	2212	-1	0	0	0	0	0.0000000000E+00	0.0000000000E+00	-6.5000000000E+03	6.5000000000E+03	9.3827000000E-01	0.000E+00	0.0
	2212	1	0	0	0	0	0.0000000000E+00	0.0000000000E+00	5.9313954653E+03	5.9313954653E+03	9.3827000000E-01	0.000E+00	0.0
	2212	1	0	0	0	0	0.0000000000E+00	0.0000000000E+00	-6.0113163533E+03	6.0113163533E+03	9.3827000000E-01	0.000E+00	0.0
	51	2	1	2	0	0	-6.7646299749E+01	8.4038250183E+01	-1.7179076884E+01	1.0599077886E+03	1.0542632263E+03	0.000E+00	0.0
	1000022	2	5	5	0	0	6.7646299749E+01	-8.4038250183E+01	1.6322949499E+02	8.7222015599E+02	8.4999157827E+02	0.000E+00	0.0
	14	1	6	6	0	0	-1.7813517770E+02	-1.8525625804E+02	1.8063911315E+02	4.5200388480E+02	3.2500000000E+02	0.000E+00	0.0
	-14	1	6	6	0	0	2.4578147745E+02	1.0121800786E+02	-1.7409618161E+01	4.2021627119E+02	3.2500000000E+02	0.000E+00	0.0
	25	2	5	5	0	0	-6.7646299749E+01	8.4038250183E+01	-8.3308607046E+01	1.8506802542E+02	1.2518546506E+02	0.000E+00	0.0
	-5	1	9	9	0	501	-5.3904660833E-01	4.6147715005E+01	2.4549568281E+01	5.2440975146E+01	4.1800000000E+00	0.000E+00	0.0
	5	1	9	9	501	0	-6.7107253140E+01	3.7890535178E+01	-1.0785817533E+02	1.3262705028E+02	4.1800000000E+00	0.000E+00	0.0
</event>
<event>
    11  -1  1.0000000E+00  1.0000000E+00  -1.0000000E+00  -1.0000000E+00
	2212	-1	0	0	0	0	0.0000000000E+00	0.0000000000E+00	6.5000000000E+03	6.5000000000E+03	9.3827000000E-01	0.000E+00	0.0
	2212	-1	0	0	0	0	0.0000000000E+00	0.0000000000E+00	-6.5000000000E+03	6.5000000000E+03	9.3827000000E-01	0.000E+00	0.0
	2212	1	0	0	0	0	0.0000000000E+00	0.0000000000E+00	5.4329185857E+03	5.4329185857E+03	9.3827000000E-01	0.000E+00	0.0
	2212	1	0	0	0	0	0.0000000000E+00	0.0000000000E+00	-6.2382736577E+03	6.2382736577E+03	9.3827000000E-01	0.000E+00	0.0
	51	2	1	2	0	0	-1.1144953386E+02	-1.8427977396E+01	8.2340355914E+02	1.3445769864E+03	1.0569452503E+03	0.000E+00	0.0
	1000022	2	5	5	0	0	1.1144953386E+02	1.8427977396E+01	6.6319619962E+02	1.1082607235E+03	8.8071110081E+02	0.000E+00	0.0
	14	1	6	6	0	0	8.2139705021E+01	-2.8664223978E+02	3.1924649792E+02	5.4447592343E+02	3.2500000000E+02	0.000E+00	0.0
	-14	1	6	6	0	0	2.9309828837E+01	3.0507021717E+02	3.4394970170E+02	5.6378480005E+02	3.2500000000E+02	0.000E+00	0.0
	25	2	5	5	0	0	-1.1144953386E+02	-1.8427977396E+01	1.4215887240E+02	2.2054703316E+02	1.2518490279E+02	0.000E+00	0.0
	-5	1	9	9	0	501	-1.1039607123E+01	-1.0880850779E+01	-2.2412716707E+01	2.7569332768E+01	4.1800000000E+00	0.000E+00	0.0
	5	1	9	9	501	0	-1.0040992674E+02	-7.5471266173E+00	1.6457158911E+02	1.9297770040E+02	4.1800000000E+00	0.000E+00	0.0
</event>
<event>
    11  -1  1.0000000E+00  1.0000000E+00  -1.0000000E+00  -1.0000000E+00
	2212	-1	0	0	0	0	0.0000000000E+00	0.0000000000E+00	6.5000000000E+03	6.5000000000E+03	9.3827000000E-01	0.000E+00	0.0
	2212	-1	0	0	0	0	0.0000000000E+00	0.0000000000E+00	-6.5000000000E+03	6.5000000000E+03	9.3827000000E-01	0.000E+00	0.0
	2212	1	0	0	0	0	0.0000000000E+00	0.0000000000E+00	5.1149312496E+03	5.1149312496E+03	9.3827000000E-01	0.000E+00	0.0
	2212	1	0	0	0	0	0.0000000000E+00	0.0000000000E+00	-6.2949367404E+03	6.2949367404E+03	9.3827000000E-01	0.000E+00	0.0
	51	2	1	2	0	0	3.1527256096E+01	-7.6589157799E+01	9.9658890583E+02	1.4615594976E+03	1.0658831318E+03	0.000E+00	0.0
	1000022	2	5	5	0	0	-3.1527256096E+01	7.6589157799E+01	1.1550955027E+03	1.4379712928E+03	8.5244117190E+02	0.000E+00	0.0
	14	1	6	6	0	0	-2.0094408117E+02	-1.3238698636E+02	3.7704629622E+02	5.5289578350E+02	3.2500000000E+02	0.000E+00	0.0
	-14	1	6	6	0	0	1.6941682507E+02	2.0897614416E+02	7.7804920652E+02	8.8507550933E+02	3.2500000000E+02	0.000E+00	0.0
	25	2	5	5	0	0	3.1527256096E+01	-7.6589157799E+01	2.4909988037E+01	1.5216071711E+02	1.2518989320E+02	0.000E+00	0.0
	-5	1	9	9	0	501	7.9424064225E+01	-5.8527027379E+01	1.6165634577E+01	1.0006195607E+02	4.1800000000E+00	0.000E+00	0.0
	5	1	9	9	501	0	-4.7896808130E+01	-1.8062130420E+01	8.7443534598E+00	5.2098761039E+01	4.1800000000E+00	0.000E+00	0.0
</event>
<event>
    11  -1  1.0000000E+00  1.0000000E+00  -1.0000000E+00  -1.0000000E+00
	2212	-1	0	0	0	0	0.0000000000E+00	0.0000000000E+00	6.5000000000E+03	6.5000000000E+03	9.3827000000E-01	0.000E+00	0.0
	2212	-1	0	0	0	0	0.0000000000E+00	0.0000000000E+00	-6.5000000000E+03	6.5000000000E+03	9.3827000000E-01	0.000E+00	0.0
	2212	1	0	0	0	0	0.0000000000E+00	0.0000000000E+00	6.2407363343E+03	6.2407363343E+03	9.3827000000E-01	0.000E+00	0.0
	2212	1	0	0	0	0	0.0000000000E+00	0.0000000000E+00	-5.4373471427E+03	5.4373471427E+03	9.3827000000E-01	0.000E+00	0.0
	51	2	1	2	0	0	-6.4110572410E+01	1.1212992692E+02	-7.1909197139E+02	1.2789861805E+03	1.0497757382E+03	0.000E+00	0.0
	1000022	2	5	5	0	0	6.4110572410E+01	-1.1212992692E+02	-7.4704390598E+02	1.1334301944E+03	8.4255926916E+02	0.000E+00	0.0
	14	1	6	6	0	0	-2.0818713286E+02	6.7035368350E+01	-3.2692244848E+02	5.1023417194E+02	3.2500000000E+02	0.000E+00	0.0
	-14	1	6	6	0	0	2.7229770527E+02	-1.7916529527E+02	-4.2012145750E+02	6.2319602243E+02	3.2500000000E+02	0.000E+00	0.0
	25	2	5	5	0	0	-6.4110572410E+01	1.1212992692E+02	-5.6345285647E+01	1.8848632864E+02	1.2517595162E+02	0.000E+00	0.0
	-5	1	9	9	0	501	-1.7156387590E+01	8.5079522495E+01	2.5214100739E+01	9.0477013982E+01	4.1800000000E+00	0.000E+00	0.0
	5	1	9	9	501	0	-4.6954184820E+01	2.7050404426E+01	-8.1559386386E+01	9.8009314656E+01	4.1800000000E+00	0.000E+00	0.0
</event>
<event>
    11  -1  1.0000000E+00  1.0000000E+00  -1.0000000E+00  -1.0000000E+00
	2212	-1	0	0	0	0	0.0000000000E+00	0.0000000000E+00	6.5000000000E+03	6.5000000000E+03	9.3827000000E-01	0.000E+00	0.0
	2212	-1	0	0	0	0	0.0000000000E+00	0.0000000000E+00	-6.5000000000E+03	6.5000000000E+03	9.3827000000E-01	0.000E+00	0.0
	2212	1	0	0	0	0	0.0000000000E+00	0.0000000000E+00	6.3241807382E+03	6.3241807382E+03	9.3827000000E-01	0.000E+00	0.0
	2212	1	0	0	0	0	0.0000000000E+00	0.0000000000E+00	-4.9341945807E+03	4.9341945807E+03	9.3827000000E-01	0.000E+00	0.0
	51	2	1	2	0	0	4.9337005393E+01	-1.1392200764E+02	-1.3737385381E+03	1.7331373134E+03	1.0493783931E+03	0.000E+00	0.0
	1000022	2	5	5	0	0	-4.9337005393E+01	1.1392200764E+02	-1.1816327551E+03	1.4686914890E+03	8.6335760716E+02	0.000E+00	0.0
	14	1	6	6	0	0	-1.7923097693E+02	1.0006363270E+01	-9.8792718327E+02	1.0553904443E+03	3.2500000000E+02	0.000E+00	0.0
	-14	1	6	6	0	0	1.2989397153E+02	1.0391564437E+02	-1.9370557187E+02	4.1330104471E+02	3.2500000000E+02	0.000E+00	0.0
	25	2	5	5	0	0	4.9337005393E+01	-1.1392200764E+02	-2.0835340227E+02	2.7293319212E+02	1.2517596892E+02	0.000E+00	0.0
	-5	1	9	9	0	501	-4.1059856138E+01	-1.9973394494E+01	-5.5089413325E+01	7.1674012963E+01	4.1800000000E+00	0.000E+00	0.0
	5	1	9	9	501	0	9.0396861531E+01	-9.3948613147E+01	-1.5326398894E+02	2.0125917916E+02	4.1800000000E+00	0.000E+00	0.0
</event>
<event>
    11  -1  1.0000000E+00  1.0000000E+00  -1.0000000E+00  -1.0000000E+00
	2212	-1	0	0	0	0	0.0000000000E+00	0.0000000000E+00	6.5000000000E+03	6.5000000000E+03	9.3827000000E-01	0.000E+00	0.0
	2212	-1	0	0	0	0	0.0000000000E+00	0.0000000000E+00	-6.5000000000E+03	6.5000000000E+03	9.3827000000E-01	0.000E+00	0.0
	2212	1	0	0	0	0	0.0000000000E+00	0.0000000000E+00	6.0122645501E+03	6.0122645501E+03	9.3827000000E-01	0.000E+00	0.0
	2212	1	0	0	0	0	0.0000000000E+00	0.0000000000E+00	-5.9330092076E+03	5.9330092076E+03	9.3827000000E-01	0.000E+00	0.0
	51	2	1	2	0	0	-5.3098358900E+01	-3.2949021417E+01	-2.1803981327E+02	1.0759240080E+03	1.0517442831E+03	0.000E+00	0.0
	1000022	2	5	5	0	0	5.3098358900E+01	3.2949021417E+01	7.3500952799E+01	8.4759211608E+02	8.4208368435E+02	0.000E+00	0.0
	14	1	6	6	0	0	2.5545524499E+02	6.9350293352E+01	1.6800982233E+02	4.5157407563E+02	3.2500000000E+02	0.000E+00	0.0
	-14	1	6	6	0	0	-2.0235688609E+02	-3.6401271935E+01	-9.4508869532E+01	3.9601804046E+02	3.2500000000E+02	0.000E+00	0.0
	25	2	5	5	0	0	-5.3098358900E+01	-3.2949021417E+01	-1.5275629528E+02	2.0713412629E+02	1.2515984498E+02	0.000E+00	0.0
	-5	1	9	9	0	501	-2.5092552183E+01	6.5317315364E+00	1.6517498940E+01	3.1025793514E+01	4.1800000000E+00	0.000E+00	0.0
	5	1	9	9	501	0	-2.8005806718E+01	-3.9480752954E+01	-1.6927379422E+02	1.7610833278E+02	4.1800000000E+00	0.000E+00	0.0
</event>
<event>
    11  -1  1.0000000E+00  1.0000000E+00  -1.0000000E+00  -1.0000000E+00
	2212	-1	0	0	0	0	0.0000000000E+00	0.0000000000E+00	6.5000000000E+03	6.5000000000E+03	9.3827000000E-01	0.000E+00	0.0
	2212	-1	0	0	0	0	0.0000000000E+00	0.0000000000E+00	-6.5000000000E+03	6.5000000000E+03	9.3827000000E-01	0.000E+00	0.0
	2212	1	0	0	0	0	0.0000000000E+00	0.0000000000E+00	6.2174141941E+03	6.2174141941E+03	9.3827000000E-01	0.000E+00	0.0
	2212	1	0	0	0	0	0.0000000000E+00	0.0000000000E+00	-5.4566987690E+03	5.4566987690E+03	9.3827000000E-01	0.000E+00	0.0
	51	2	1	2	0	0	-1.5460280676E+01	-8.2325936731E+01	-9.6386849609E+02	1.4544234372E+03	1.0859504946E+03	0.000E+00	0.0
	1000022	2	5	5	0	0	1.5460280676E+01	8.2325936731E+01	-4.1489056797E+02	9.4868120607E+02	8.4902606981E+02	0.000E+00	0.0
	14	1	6	6	0	0	-1.5520913474E+02	1.0640437174E+02	-4.4176882874E+02	5.7982451128E+02	3.2500000000E+02	0.000E+00	0.0
	-14	1	6	6	0	0	1.7066941542E+02	-2.4078435006E+01	2.6878260768E+01	3.6885669479E+02	3.2500000000E+02	0.000E+00	0.0
	25	2	5	5	0	0	-1.5460280676E+01	-8.2325936731E+01	-3.4582485704E+02	3.7720583084E+02	1.2519116155E+02	0.000E+00	0.0
	-5	1	9	9	0	501	2.5627447661E+01	-5.3943908971E+01	-5.2486770886E+01	7.9618119211E+01	4.1800000000E+00	0.000E+00	0.0
	5	1	9	9	501	0	-4.1087728336E+01	-2.8382027760E+01	-2.9333808616E+02	2.9758771163E+02	4.1800000000E+00	0.000E+00	0.0
</event>
<event>
    11  -1  1.0000000E+00  1.0000000E+00  -1.0000000E+00  -1.0000000E+00
	2212	-1	0	0	0	0	0.0000000000E+00	0.0000000000E+00	6.5000000000E+03	6.5000000000E+03	9.3827000000E-01	0.000E+00	0.0
	2212	-1	0	0	0	0	0.0000000000E+00	0.0000000000E+00	-6.5000000000E+03	6.5000000000E+03	9.3827000000E-01	0.000E+00	0.0
	2212	1	0	0	0	0	0.0000000000E+00	0.0000000000E+00	6.0777781623E+03	6.0777781623E+03	9.3827000000E-01	0.000E+00	0.0
	2212	1	0	0	0	0	0.0000000000E+00	0.0000000000E+00	-5.8515627997E+03	5.8515627997E+03	9.3827000000E-01	0.000E+00	0.0
	51	2	1	2	0	0	1.0149863991E+02	8.1579839839E+01	-3.0250835034E+02	1.0970897555E+03	1.0464881201E+03	0.000E+00	0.0
	1000022	2	5	5	0	0	-1.0149863991E+02	-8.1579839839E+01	-1.1014101840E+02	8.5594637432E+02	8.3878239586E+02	0.000E+00	0.0
	14	1	6	6	0	0	-2.3887349817E+02	7.5102383330E+01	9.1558580702E+01	4.2036756513E+02	3.2500000000E+02	0.000E+00	0.0
	-14	1	6	6	0	0	1.3737485825E+02	-1.5668222317E+02	-2.0169959911E+02	4.3557880919E+02	3.2500000000E+02	0.000E+00	0.0
	25	2	5	5	0	0	1.0149863991E+02	8.1579839839E+01	-1.1607434414E+02	2.1471266372E+02	1.2518398628E+02	0.000E+00	0.0
	-5	1	9	9	0	501	2.6765762790E+01	8.9698891407E+01	-2.5848171411E+01	9.7200296001E+01	4.1800000000E+00	0.000E+00	0.0
	5	1	9	9	501	0	7.4732877125E+01	-8.1190515682E+00	-9.0226172733E+01	1.1751236772E+02	4.1800000000E+00	0.000E+00	0.0
</event>
<event>
    11  -1  1.0000000E+00  1.0000000E+00  -1.0000000E+00  -1.0000000E+00
	2212	-1	0	0	0	0	0.0000000000E+00	0.0000000000E+00	6.5000000000E+03	6.5000000000E+03	9.3827000000E-01	0.000E+00	0.0
	2212	-1	0	0	0	0	0.0000000000E+00	0.0000000000E+00	-6.5000000000E+03	6.5000000000E+03	9.3827000000E-01	0.000E+00	0.0
	2212	1	0	0	0	0	0.0000000000E+00	0.0000000000E+00	5.7467031509E+03	5.7467031509E+03	9.3827000000E-01	0.000E+00	0.0
	2212	1	0	0	0	0	0.0000000000E+00	0.0000000000E+00	-6.1341285735E+03	6.1341285735E+03	9.3827000000E-01	0.000E+00	0.0
	51	2	1	2	0	0	1.1165732398E+02	-2.8095292769E+00	4.8343607943E+02	1.1613030894E+03	1.0499710334E+03	0.000E+00	0.0
	1000022	2	5	5	0	0	-1.1165732398E+02	2.8095292769E+00	2.2522706495E+02	8.8583492195E+02	8.4941216539E+02	0.000E+00	0.0
	14	1	6	6	0	0	-3.0202289426E+02	6.2063098175E+01	2.3199071679E+02	5.0449415209E+02	3.2500000000E+02	0.000E+00	0.0
	-14	1	6	6	0	0	1.9036557028E+02	-5.9253568898E+01	-6.7636518376E+00	3.8134076987E+02	3.2500000000E+02	0.000E+00	0.0
	25	2	5	5	0	0	1.1165732398E+02	-2.8095292769E+00	1.6219835771E+02	2.3333335367E+02	1.2514349859E+02	0.000E+00	0.0
	-5	1	9	9	0	501	5.5966397470E+01	-5.9353258813E+01	1.1447651991E+02	1.4063211933E+02	4.1800000000E+00	0.000E+00	0.0
	5	1	9	9	501	0	5.5690926508E+01	5.6543729536E+01	4.7721837808E+01	9.2701234345E+01	4.1800000000E+00	0.000E+00	0.0
</event>
<event>
    11  -1  1.0000000E+00  1.0000000E+00  -1.0000000E+00  -1.0000000E+00
	2212	-1	0	0	0	0	0.0000000000E+00	0.0000000000E+00	6.5000000000E+03	6.5000000000E+03	9.3827000000E-01	0.000E+00	0.0
	2212	-1	0	0	0	0	0.0000000000E+00	0.0000000000E+00	-6.5000000000E+03	6.5000000000E+03	9.3827000000E-01	0.000E+00	0.0
	2212	1	0	0	0	0	0.0000000000E+00	0.0000000000E+00	6.0520592755E+03	6.0520592755E+03	9.3827000000E-01	0.000E+00	0.0
	2212	1	0	0	0	0	0.0000000000E+00	0.0000000000E+00	-5.8876184052E+03	5.8876184052E+03	9.3827000000E-01	0.000E+00	0.0
	51	2	1	2	0	0	-1.1781428754E+02	1.2032110206E+01	-2.2782569991E+02	1.0785045890E+03	1.0474934945E+03	0.000E+00	0.0
	1000022	2	5	5	0	0	1.1781428754E+02	-1.2032110206E+01	-7.3670484071E+01	8.6555671708E+02	8.5424593194E+02	0.000E+00	0.0
	14	1	6	6	0	0	3.3461612959E+02	3.2186722109E+01	-1.3210095963E+01	4.6776430592E+02	3.2500000000E+02	0.000E+00	0.0
	-14	1	6	6	0	0	-2.1680184205E+02	-4.4218832316E+01	-6.0460388108E+01	3.9779241116E+02	3.2500000000E+02	0.000E+00	0.0
	25	2	5	5	0	0	-1.1781428754E+02	1.2032110206E+01	-9.0770386214E+01	1.9476560224E+02	1.2517746913E+02	0.000E+00	0.0
	-5	1	9	9	0	501	-1.3405255618E+02	-3.0912766474E+00	-1.0295640989E+02	1.6910688498E+02	4.1800000000E+00	0.000E+00	0.0
	5	1	9	9	501	0	1.6238268640E+01	1.5123386854E+01	1.2186023679E+01	2.5658717261E+01	4.1800000000E+00	0.000E+00	0.0
</event>
<event>
    11  -1  1.0000000E+00  1.0000000E+00  -1.0000000E+00  -1.0000000E+00
	2212	-1	0	0	0	0	0.0000000000E+00	0.0000000000E+00	6.5000000000E+03	6.5000000000E+03	9.3827000000E-01	0.000E+00	0.0
	2212	-1	0	0	0	0	0.0000000000E+00	0.0000000000E+00	-6.5000000000E+03	6.5000000000E+03	9.3827000000E-01	0.000E+00	0.0
	2212	1	0	0	0	0	0.0000000000E+00	0.0000000000E+00	6.3414325721E+03	6.3414325721E+03	9.3827000000E-01	0.000E+00	0.0
	2212	1	0	0	0	0	0.0000000000E+00	0.0000000000E+00	-4.8960330493E+03	4.8960330493E+03	9.3827000000E-01	0.000E+00	0.0
	51	2	1	2	0	0	2.3888169521E+01	7.6286786226E+01	-1.5210539551E+03	1.8268396504E+03	1.0086365329E+03	0.000E+00	0.0
	1000022	2	5	5	0	0	-2.3888169521E+01	-7.6286786226E+01	-1.1549639910E+03	1.4363229241E+03	8.5011258273E+02	0.000E+00	0.0
	14	1	6	6	0	0	1.0605314234E+01	-2.1916442563E+02	-2.5371667722E+02	4.6705745947E+02	3.2500000000E+02	0.000E+00	0.0
	-14	1	6	6	0	0	-3.4493483756E+01	1.4287763940E+02	-9.0124731378E+02	9.6926546460E+02	3.2500000000E+02	0.000E+00	0.0
	25	2	5	5	0	0	2.3888169521E+01	7.6286786226E+01	-2.9043553178E+02	3.2621145456E+02	1.2518305225E+02	0.000E+00	0.0
	-5	1	9	9	0	501	5.9573900985E+01	-2.0193116047E+00	-1.4987380348E+02	1.6134669711E+02	4.1800000000E+00	0.000E+00	0.0
	5	1	9	9	501	0	-3.5685731463E+01	7.8306097831E+01	-1.4056172830E+02	1.6486475745E+02	4.1800000000E+00	0.000E+00	0.0
</event>
<event>
    11  -1  1.0000000E+00  1.0000000E+00  -1.0000000E+00  -1.0000000E+00
	2212	-1	0	0	0	0	0.0000000000E+00	0.0000000000E+00	6.5000000000E+03	6.5000000000E+03	9.3827000000E-01	0.000E+00	0.0
	2212	-1	0	0	0	0	0.0000000000E+00	0.0000000000E+00	-6.5000000000E+03	6.5000000000E+03	9.3827000000E-01	0.000E+00	0.0
	2212	1	0	0	0	0	0.0000000000E+00	0.0000000000E+00	6.3266653622E+03	6.3266653622E+03	9.3827000000E-01	0.000E+00	0.0
	2212	1	0	0	0	0	0.0000000000E+00	0.0000000000E+00	-4.9174706543E+03	4.9174706543E+03	9.3827000000E-01	0.000E+00	0.0
	51	2	1	2	0	0	-1.1427289714E+02	-1.0560725200E+01	-1.3169013813E+03	1.6866024060E+03	1.0474868037E+03	0.000E+00	0.0
	1000022	2	5	5	0	0	1.1427289714E+02	1.0560725200E+01	-1.2691090129E+03	1.5355800836E+03	8.5685394474E+02	0.000E+00	0.0
	14	1	6	6	0	0	3.3765022102E+02	-1.5727674763E+01	-6.6676521294E+02	8.1514163229E+02	3.2500000000E+02	0.000E+00	0.0
	-14	1	6	6	0	0	-2.2337732388E+02	2.6288399963E+01	-6.0234379991E+02	7.2043845128E+02	3.2500000000E+02	0.000E+00	0.0
	25	2	5	5	0	0	-1.1427289714E+02	-1.0560725200E+01	-1.4008569502E+02	2.2028389994E+02	1.2542396376E+02	0.000E+00	0.0
	-5	1	9	9	0	501	-5.5155365551E+01	4.5618339562E+01	-1.1378899401E+02	1.3449369803E+02	4.1800000000E+00	0.000E+00	0.0
	5	1	9	9	501	0	-5.9117531589E+01	-5.6179064762E+01	-2.6296701011E+01	8.5790201904E+01	4.1800000000E+00	0.000E+00	0.0
</event>
<event>
    11  -1  1.0000000E+00  1.0000000E+00  -1.0000000E+00  -1.0000000E+00
	2212	-1	0	0	0	0	0.0000000000E+00	0.0000000000E+00	6.5000000000E+03	6.5000000000E+03	9.3827000000E-01	0.000E+00	0.0
	2212	-1	0	0	0	0	0.0000000000E+00	0.0000000000E+00	-6.5000000000E+03	6.5000000000E+03	9.3827000000E-01	0.000E+00	0.0
	2212	1	0	0	0	0	0.0000000000E+00	0.0000000000E+00	4.8621749955E+03	4.8621749955E+03	9.3827000000E-01	0.000E+00	0.0
	2212	1	0	0	0	0	0.0000000000E+00	0.0000000000E+00	-6.3320525365E+03	6.3320525365E+03	9.3827000000E-01	0.000E+00	0.0
	51	2	1	2	0	0	-3.7300924546E+01	1.0493309921E+02	1.3220949338E+03	1.6913342510E+03	1.0489395695E+03	0.000E+00	0.0
	1000022	2	5	5	0	0	3.7300924546E+01	-1.0493309921E+02	1.3625424638E+03	1.6067937655E+03	8.4431150949E+02	0.000E+00	0.0
	14	1	6	6	0	0	-1.4836907580E+02	-8.9643906074E+01	1.0695930951E+03	1.1312399399E+03	3.2500000000E+02	0.000E+00	0.0
	-14	1	6	6	0	0	1.8567000034E+02	-1.5289193137E+01	2.9294936868E+02	4.7555382562E+02	3.2500000000E+02	0.000E+00	0.0
	25	2	5	5	0	0	-3.7300924546E+01	1.0493309921E+02	1.0733507728E+02	1.9897870247E+02	1.2517743783E+02	0.000E+00	0.0
	-5	1	9	9	0	501	-6.4548643998E+01	7.4744108143E+01	1.2066124614E+02	1.5598018420E+02	4.1800000000E+00	0.000E+00	0.0
	5	1	9	9	501	0	2.7247719452E+01	3.0188991067E+01	-1.3326168860E+01	4.2998518271E+01	4.1800000000E+00	0.000E+00	0.0
</event>
<event>
    11  -1  1.0000000E+00  1.0000000E+00  -1.0000000E+00  -1.0000000E+00
	2212	-1	0	0	0	0	0.0000000000E+00	0.0000000000E+00	6.5000000000E+03	6.5000000000E+03	9.3827000000E-01	0.000E+00	0.0
	2212	-1	0	0	0	0	0.0000000000E+00	0.0000000000E+00	-6.5000000000E+03	6.5000000000E+03	9.3827000000E-01	0.000E+00	0.0
	2212	1	0	0	0	0	0.0000000000E+00	0.0000000000E+00	6.0699755358E+03	6.0699755358E+03	9.3827000000E-01	0.000E+00	0.0
	2212	1	0	0	0	0	0.0000000000E+00	0.0000000000E+00	-5.8503537582E+03	5.8503537582E+03	9.3827000000E-01	0.000E+00	0.0
	51	2	1	2	0	0	-1.4829676445E+02	6.3501136971E+00	-2.2470030011E+02	1.0908609386E+03	1.0570974923E+03	0.000E+00	0.0
	1000022	2	5	5	0	0	1.4829676445E+02	-6.3501136971E+00	-1.7635985923E+02	8.8076915309E+02	8.5007014228E+02	0.000E+00	0.0
	14	1	6	6	0	0	2.7515857407E+02	1.2091559598E+02	-2.4068128934E+02	5.0387032585E+02	3.2500000000E+02	0.000E+00	0.0
	-14	1	6	6	0	0	-1.2686180962E+02	-1.2726570967E+02	6.4321430114E+01	3.7689882723E+02	3.2500000000E+02	0.000E+00	0.0
	25	2	5	5	0	0	-1.4829676445E+02	6.3501136971E+00	-4.3261918306E+01	1.9890155291E+02	1.2513185000E+02	0.000E+00	0.0
	-5	1	9	9	0	501	-1.4999112872E+02	2.8494881961E+01	-3.0350729067E+00	1.5276118964E+02	4.1800000000E+00	0.000E+00	0.0
	5	1	9	9	501	0	1.6943642717E+00	-2.2144768264E+01	-4.0226845399E+01	4.6140363268E+01	4.1800000000E+00	0.000E+00	0.0
</event>
<event>
    11  -1  1.0000000E+00  1.0000000E+00  -1.0000000E+00  -1.0000000E+00
	2212	-1	0	0	0	0	0.0000000000E+00	0.0000000000E+00	6.5000000000E+03	6.5000000000E+03	9.3827000000E-01	0.000E+00	0.0
	2212	-1	0	0	0	0	0.0000000000E+00	0.0000000000E+00	-6.5000000000E+03	6.5000000000E+03	9.3827000000E-01	0.000E+00	0.0
	2212	1	0	0	0	0	0.0000000000E+00	0.0000000000E+00	5.6501857194E+03	5.6501857194E+03	9.3827000000E-01	0.000E+00	0.0
	2212	1	0	0	0	0	0.0000000000E+00	0.0000000000E+00	-6.1779160651E+03	6.1779160651E+03	9.3827000000E-01	0.000E+00	0.0
	51	2	1	2	0	0	-8.5566842132E+01	2.0375846811E+01	4.0451024364E+02	1.1252606393E+03	1.0463489425E+03	0.000E+00	0.0
	1000022	2	5	5	0	0	8.5566842132E+01	-2.0375846811E+01	5.5958792773E+02	1.0156526807E+03	8.4301533753E+02	0.000E+00	0.0
	14	1	6	6	0	0	1.4658036639E+02	-1.0131100606E+02	1.1963046135E+01	3.7083397664E+02	3.2500000000E+02	0.000E+00	0.0
	-14	1	6	6	0	0	-6.1013524255E+01	8.0935159246E+01	5.4762488159E+02	6.4481870404E+02	3.2500000000E+02	0.000E+00	0.0
	25	2	5	5	0	0	-8.5566842132E+01	2.0375846811E+01	-3.1857581999E+01	1.5624553475E+02	1.2514352558E+02	0.000E+00	0.0
	-5	1	9	9	0	501	-7.0058189636E+01	-1.9777079211E+01	-6.8137084667E+01	9.9796881235E+01	4.1800000000E+00	0.000E+00	0.0
	5	1	9	9	501	0	-1.5508652496E+01	4.0152926021E+01	3.6279502668E+01	5.6448653519E+01	4.1800000000E+00	0.000E+00	0.0
</event>
<event>
    11  -1  1.0000000E+00  1.0000000E+00  -1.0000000E+00  -1.0000000E+00
	2212	-1	0	0	0	0	0.0000000000E+00	0.0000000000E+00	6.5000000000E+03	6.5000000000E+03	9.3827000000E-01	0.000E+00	0.0
	2212	-1	0	0	0	0	0.0000000000E+00	0.0000000000E+00	-6.5000000000E+03	6.5000000000E+03	9.3827000000E-01	0.000E+00	0.0
	2212	1	0	0	0	0	0.0000000000E+00	0.0000000000E+00	5.2395203191E+03	5.2395203191E+03	9.3827000000E-01	0.000E+00	0.0
	2212	1	0	0	0	0	0.0000000000E+00	0.0000000000E+00	-6.2806269008E+03	6.2806269008E+03	9.3827000000E-01	0.000E+00	0.0
	51	2	1	2	0	0	1.0201871369E+02	-3.2931719685E+01	9.0442842029E+02	1.3912384483E+03	1.0516945072E+03	0.000E+00	0.0
	1000022	2	5	5	0	0	-1.0201871369E+02	3.2931719685E+01	9.9502105951E+02	1.3086826192E+03	8.4326210212E+02	0.000E+00	0.0
	14	1	6	6	0	0	-2.4134701535E+02	-1.7327511923E+02	4.9631195126E+02	6.6349318137E+02	3.2500000000E+02	0.000E+00	0.0
	-14	1	6	6	0	0	1.3932830166E+02	2.0620683892E+02	4.9870910825E+02	6.4518943785E+02	3.2500000000E+02	0.000E+00	0.0
	25	2	5	5	0	0	1.0201871369E+02	-3.2931719685E+01	4.6085522176E+01	1.7117016092E+02	1.2523191498E+02	0.000E+00	0.0
	-5	1	9	9	0	501	1.0176557875E+02	7.9283439445E+00	-8.8895377168E+00	1.0254554079E+02	4.1800000000E+00	0.000E+00	0.0
	5	1	9	9	501	0	2.5313494168E-01	-4.0860063629E+01	5.4975059893E+01	6.8624620125E+01	4.1800000000E+00	0.000E+00	0.0
</event>
<event>
    11  -1  1.0000000E+00  1.0000000E+00  -1.0000000E+00  -1.0000000E+00
	2212	-1	0	0	0	0	0.0000000000E+00	0.0000000000E+00	6.5000000000E+03	6.5000000000E+03	9.3827000000E-01	0.000E+00	0.0
	2212	-1	0	0	0	0	0.0000000000E+00	0.0000000000E+00	-6.5000000000E+03	6.5000000000E+03	9.3827000000E-01	0.000E+00	0.0
	2212	1	0	0	0	0	0.0000000000E+00	0.0000000000E+00	5.8519062228E+03	5.8519062228E+03	9.3827000000E-01	0.000E+00	0.0
	2212	1	0	0	0	0	0.0000000000E+00	0.0000000000E+00	-6.0747713274E+03	6.0747713274E+03	9.3827000000E-01	0.000E+00	0.0
	51	2	1	2	0	0	9.7677179012E+01	9.6893260856E+01	2.3943533902E+02	1.0856383575E+03	1.0499296292E+03	0.000E+00	0.0
	1000022	2	5	5	0	0	-9.7677179012E+01	-9.6893260856E+01	1.6862157993E+02	8.7957128150E+02	8.5222254530E+02	0.000E+00	0.0
	14	1	6	6	0	0	-9.0137986353E+01	2.1486024972E+01	-1.8464912968E+02	3.8510622813E+02	3.2500000000E+02	0.000E+00	0.0
	-14	1	6	6	0	0	-7.5391926596E+00	-1.1837928583E+02	3.5327070961E+02	4.9446505337E+02	3.2500000000E+02	0.000E+00	0.0
	25	2	5	5	0	0	9.7677179012E+01	9.6893260856E+01	5.4243524746E+01	1.9375116828E+02	1.2517196146E+02	0.000E+00	0.0
	-5	1	9	9	0	501	9.0754471273E+01	6.0334318254E+01	9.0434081835E+01	1.4167709615E+02	4.1800000000E+00	0.000E+00	0.0
	5	1	9	9	501	0	6.9227077394E+00	3.6558942602E+01	-3.6190557089E+01	5.2074072138E+01	4.1800000000E+00	0.000E+00	0.0
</event>
<event>
    11  -1  1.0000000E+00  1.0000000E+00  -1.0000000E+00  -1.0000000E+00
	2212	-1	0	0	0	0	0.0000000000E+00	0.0000000000E+00	6.5000000000E+03	6.5000000000E+03	9.3827000000E-01	0.000E+00	0.0
	2212	-1	0	0	0	0	0.0000000000E+00	0.0000000000E+00	-6.5000000000E+03	6.5000000000E+03	9.3827000000E-01	0.000E+00	0.0
	2212	1	0	0	0	0	0.0000000000E+00	0.0000000000E+00	6.1581286540E+03	6.1581286540E+03	9.3827000000E-01	0.000E+00	0.0
	2212	1	0	0	0	0	0.0000000000E+00	0.0000000000E+00	-5.7540347328E+03	5.7540347328E+03	9.3827000000E-01	0.000E+00	0.0
	51	2	1	2	0	0	5.6192324336E+01	-6.8072695168E+01	-4.0272556962E+02	1.0909060241E+03	1.0099983168E+03	0.000E+00	0.0
	1000022	2	5	5	0	0	-5.6192324336E+01	6.8072695168E+01	-3.4573275643E+02	9.2397301231E+02	8.5229309481E+02	0.000E+00	0.0
	14	1	6	6	0	0	1.6915168370E+02	-1.0938936761E+02	-3.0401948880E+02	4.8849890012E+02	3.2500000000E+02	0.000E+00	0.0
	-14	1	6	6	0	0	-2.2534400804E+02	1.7746206278E+02	-4.1713267628E+01	4.3547411218E+02	3.2500000000E+02	0.000E+00	0.0
	25	2	5	5	0	0	5.6192324336E+01	-6.8072695168E+01	-5.8361164754E+01	1.6386360091E+02	1.2511508706E+02	0.000E+00	0.0
	-5	1	9	9	0	501	8.2595349128E+01	-2.2011178522E+01	-9.9264137276E-01	8.5585871582E+01	4.1800000000E+00	0.000E+00	0.0
	5	1	9	9	501	0	-2.6403024792E+01	-4.6061516645E+01	-5.7368523381E+01	7.8277729328E+01	4.1800000000E+00	0.000E+00	0.0
</event>
<event>
    11  -1  1.0000000E+00  1.0000000E+00  -1.0000000E+00  -1.0000000E+00
	2212	-1	0	0	0	0	0.0000000000E+00	0.0000000000E+00	6.5000000000E+03	6.5000000000E+03	9.3827000000E-01	0.000E+00	0.0
	2212	-1	0	0	0	0	0.0000000000E+00	0.0000000000E+00	-6.5000000000E+03	6.5000000000E+03	9.3827000000E-01	0.000E+00	0.0
	2212	1	0	0	0	0	0.0000000000E+00	0.0000000000E+00	5.4087250313E+03	5.4087250313E+03	9.3827000000E-01	0.000E+00	0.0
	2212	1	0	0	0	0	0.0000000000E+00	0.0000000000E+00	-6.2461364350E+03	6.2461364350E+03	9.3827000000E-01	0.000E+00	0.0
	51	2	1	2	0	0	-7.2206018936E+01	7.9616296363E+01	7.4581166471E+02	1.2945761155E+03	1.0526822007E+03	0.000E+00	0.0
	1000022	2	5	5	0	0	7.2206018936E+01	-7.9616296363E+01	7.9079659434E+02	1.1736861644E+03	8.6059717349E+02	0.000E+00	0.0
	14	1	6	6	0	0	1.7786739125E+02	-2.7937397378E+02	3.4983819353E+02	5.8111822184E+02	3.2500000000E+02	0.000E+00	0.0
	-14	1	6	6	0	0	-1.0566137231E+02	1.9975767742E+02	4.4095840080E+02	5.9256794254E+02	3.2500000000E+02	0.000E+00	0.0
	25	2	5	5	0	0	-7.2206018936E+01	7.9616296363E+01	4.6614809320E+01	1.7145236927E+02	1.2518191029E+02	0.000E+00	0.0
	-5	1	9	9	0	501	-1.0483243504E+02	7.2265717305E+01	5.1469800664E+01	1.3740009503E+02	4.1800000000E+00	0.000E+00	0.0
	5	1	9	9	501	0	3.2626416101E+01	7.3505790575E+00	-4.8549913443E+00	3.4052274242E+01	4.1800000000E+00	0.000E+00	0.0
</event>
<event>
    11  -1  1.0000000E+00  1.0000000E+00  -1.0000000E+00  -1.0000000E+00
	2212	-1	0	0	0	0	0.0000000000E+00	0.0000000000E+00	6.5000000000E+03	6.5000000000E+03	9.3827000000E-01	0.000E+00	0.0
	2212	-1	0	0	0	0	0.0000000000E+00	0.0000000000E+00	-6.5000000000E+03	6.5000000000E+03	9.3827000000E-01	0.000E+00	0.0
	2212	1	0	0	0	0	0.0000000000E+00	0.0000000000E+00	5.7413448507E+03	5.7413448507E+03	9.3827000000E-01	0.000E+00	0.0
	2212	1	0	0	0	0	0.0000000000E+00	0.0000000000E+00	-6.1351430231E+03	6.1351430231E+03	9.3827000000E-01	0.000E+00	0.0
	51	2	1	2	0	0	4.2477883794E+01	5.6778689105E+00	5.4372439126E+02	1.1851899930E+03	1.0522369016E+03	0.000E+00	0.0
	1000022	2	5	5	0	0	-4.2477883794E+01	-5.6778689105E+00	1.7623916967E+02	8.6887690638E+02	8.4973538511E+02	0.000E+00	0.0
	14	1	6	6	0	0	2.3552654300E+02	9.1919132123E+01	9.8287014908E+01	4.2332873350E+02	3.2500000000E+02	0.000E+00	0.0
	-14	1	6	6	0	0	-2.7800442679E+02	-9.7597001034E+01	7.7952154765E+01	4.4554817288E+02	3.2500000000E+02	0.000E+00	0.0
	25	2	5	5	0	0	4.2477883794E+01	5.6778689105E+00	2.1755900280E+02	2.5463521980E+02	1.2518213393E+02	0.000E+00	0.0
	-5	1	9	9	0	501	2.2647140531E+01	5.8567071040E+01	1.6790903711E+02	1.7931511907E+02	4.1800000000E+00	0.000E+00	0.0
	5	1	9	9	501	0	1.9830743263E+01	-5.2889202130E+01	4.9649965693E+01	7.5320100728E+01	4.1800000000E+00	0.000E+00	0.0
</event>
<event>
    11  -1  1.0000000E+00  1.0000000E+00  -1.0000000E+00  -1.0000000E+00
	2212	-1	0	0	0	0	0.0000000000E+00	0.0000000000E+00	6.5000000000E+03	6.5000000000E+03	9.3827000000E-01	0.000E+00	0.0
	2212	-1	0	0	0	0	0.0000000000E+00	0.0000000000E+00	-6.5000000000E+03	6.5000000000E+03	9.3827000000E-01	0.000E+00	0.0
	2212	1	0	0	0	0	0.0000000000E+00	0.0000000000E+00	5.8595432853E+03	5.8595432853E+03	9.3827000000E-01	0.000E+00	0.0
	2212	1	0	0	0	0	0.0000000000E+00	0.0000000000E+00	-6.0700594997E+03	6.0700594997E+03	9.3827000000E-01	0.000E+00	0.0
	51	2	1	2	0	0	5.1717670146E+01	-9.2097965701E+01	1.3715748688E+02	1.0636738459E+03	1.0494918396E+03	0.000E+00	0.0
	1000022	2	5	5	0	0	-5.1717670146E+01	9.2097965701E+01	2.4944072623E+02	9.0203531290E+02	8.6040123031E+02	0.000E+00	0.0
	14	1	6	6	0	0	1.9168865076E+02	-5.2506522569E+01	-3.9692448514E+01	3.8301692418E+02	3.2500000000E+02	0.000E+00	0.0
	-14	1	6	6	0	0	-2.4340632090E+02	1.4460448827E+02	2.8913317475E+02	5.1901838871E+02	3.2500000000E+02	0.000E+00	0.0
	25	2	5	5	0	0	5.1717670146E+01	-9.2097965701E+01	-3.8924511861E+01	1.6836190216E+02	1.2519528658E+02	0.000E+00	0.0
	-5	1	9	9	0	501	5.7049911435E+01	-8.2648986574E+01	2.4846820531E+01	1.0353928852E+02	4.1800000000E+00	0.000E+00	0.0
	5	1	9	9	501	0	-5.3322412892E+00	-9.4489791262E+00	-6.3771332391E+01	6.4822613637E+01	4.1800000000E+00	0.000E+00	0.0
</event>
<event>
    11  -1  1.0000000E+00  1.0000000E+00  -1.0000000E+00  -1.0000000E+00
	2212	-1	0	0	0	0	0.0000000000E+00	0.0000000000E+00	6.5000000000E+03	6.5000000000E+03	9.3827000000E-01	0.000E+00	0.0
	2212	-1	0	0	0	0	0.0000000000E+00	0.0000000000E+00	-6.5000000000E+03	6.5000000000E+03	9.3827000000E-01	0.000E+00	0.0
	2212	1	0	0	0	0	0.0000000000E+00	0.0000000000E+00	4.9969169820E+03	4.9969169820E+03	9.3827000000E-01	0.000E+00	0.0
	2212	1	0	0	0	0	0.0000000000E+00	0.0000000000E+00	-6.3144536341E+03	6.3144536341E+03	9.3827000000E-01	0.000E+00	0.0
	51	2	1	2	0	0	5.8198344202E+01	-2.0297609284E+01	1.1216070273E+03	1.5418715025E+03	1.0562037523E+03	0.000E+00	0.0
	1000022	2	5	5	0	0	-5.8198344202E+01	2.0297609284E+01	1.2876050589E+03	1.5459107723E+03	8.5329613142E+02	0.000E+00	0.0
	14	1	6	6	0	0	-2.7248488355E+02	-1.2115034768E+02	6.8282716075E+02	8.1289811782E+02	3.2500000000E+02	0.000E+00	0.0
	-14	1	6	6	0	0	2.1428653935E+02	1.4144795697E+02	6.0477789819E+02	7.3301265447E+02	3.2500000000E+02	0.000E+00	0.0
	25	2	5	5	0	0	5.8198344202E+01	-2.0297609284E+01	2.9931593152E+01	1.4271861154E+02	1.2519449509E+02	0.000E+00	0.0
	-5	1	9	9	0	501	2.2525302811E+01	-2.2172210421E+01	-4.7577176332E+01	5.7271775679E+01	4.1800000000E+00	0.000E+00	0.0
	5	1	9	9	501	0	3.5673041391E+01	1.8746011370E+00	7.7508769484E+01	8.5446835860E+01	4.1800000000E+00	0.000E+00	0.0
</event>
<event>
    11  -1  1.0000000E+00  1.0000000E+00  -1.0000000E+00  -1.0000000E+00
	2212	-1	0	0	0	0	0.0000000000E+00	0.0000000000E+00	6.5000000000E+03	6.5000000000E+03	9.3827000000E-01	0.000E+00	0.0
	2212	-1	0	0	0	0	0.0000000000E+00	0.0000000000E+00	-6.5000000000E+03	6.5000000000E+03	9.3827000000E-01	0.000E+00	0.0
	2212	1	0	0	0	0	0.0000000000E+00	0.0000000000E+00	4.8371266713E+03	4.8371266713E+03	9.3827000000E-01	0.000E+00	0.0
	2212	1	0	0	0	0	0.0000000000E+00	0.0000000000E+00	-6.3121994724E+03	6.3121994724E+03	9.3827000000E-01	0.000E+00	0.0
	51	2	1	2	0	0	-1.0163980755E+02	-2.7985209656E+01	1.7929114285E+03	2.1153721107E+03	1.1176555614E+03	0.000E+00	0.0
	1000022	2	5	5	0	0	1.0163980755E+02	2.7985209656E+01	8.6396680354E+02	1.2180329116E+03	8.5208668197E+02	0.000E+00	0.0
	14	1	6	6	0	0	-1.6074630972E+02	-8.6379447196E+01	1.9376320985E+02	4.2008328517E+02	3.2500000000E+02	0.000E+00	0.0
	-14	1	6	6	0	0	2.6238611727E+02	1.1436465685E+02	6.7020359369E+02	7.9794962639E+02	3.2500000000E+02	0.000E+00	0.0
	25	2	5	5	0	0	-1.0163980755E+02	-2.7985209656E+01	6.1110599758E+02	6.3264094476E+02	1.2518067851E+02	0.000E+00	0.0
	-5	1	9	9	0	501	-9.2843416413E+01	7.4414082667E+00	2.0891778496E+02	2.2877803173E+02	4.1800000000E+00	0.000E+00	0.0
	5	1	9	9	501	0	-8.7963911360E+00	-3.5426617922E+01	4.0218821262E+02	4.0386291303E+02	4.1800000000E+00	0.000E+00	0.0
</event>
<event>
    11  -1  1.0000000E+00  1.0000000E+00  -1.0000000E+00  -1.0000000E+00
	2212	-1	0	0	0	0	0.0000000000E+00	0.0000000000E+00	6.5000000000E+03	6.5000000000E+03	9.3827000000E-01	0.000E+00	0.0
	2212	-1	0	0	0	0	0.0000000000E+00	0.0000000000E+00	-6.5000000000E+03	6.5000000000E+03	9.3827000000E-01	0.000E+00	0.0
	2212	1	0	0	0	0	0.0000000000E+00	0.0000000000E+00	6.1588038649E+03	6.1588038649E+03	9.3827000000E-01	0.000E+00	0.0
	2212	1	0	0	0	0	0.0000000000E+00	0.0000000000E+00	-5.7070476260E+03	5.7070476260E+03	9.3827000000E-01	0.000E+00	0.0
	51	2	1	2	0	0	-1.1806293194E+02	-3.8545943810E+01	-4.1807426224E+02	1.1280159022E+03	1.0402928151E+03	0.000E+00	0.0
	1000022	2	5	5	0	0	1.1806293194E+02	3.8545943810E+01	-4.1089598551E+02	9.5314045940E+02	8.5100915315E+02	0.000E+00	0.0
	14	1	6	6	0	0	-1.4014934191E+02	1.9063263610E+02	-1.0480668626E+02	4.1544203142E+02	3.2500000000E+02	0.000E+00	0.0
	-14	1	6	6	0	0	2.5821227384E+02	-1.5208669229E+02	-3.0608929925E+02	5.3769842798E+02	3.2500000000E+02	0.000E+00	0.0
	25	2	5	5	0	0	-1.1806293194E+02	-3.8545943810E+01	-4.0860253426E+01	1.8100804969E+02	1.2517870450E+02	0.000E+00	0.0
	-5	1	9	9	0	501	2.6428416302E+01	-1.2125125700E+01	-7.6390827484E+00	3.0353053334E+01	4.1800000000E+00	0.000E+00	0.0
	5	1	9	9	501	0	-1.4449134824E+02	-2.6420818110E+01	-3.3221170677E+01	1.5065499636E+02	4.1800000000E+00	0.000E+00	0.0
</event>
<event>
    11  -1  1.0000000E+00  1.0000000E+00  -1.0000000E+00  -1.0000000E+00
	2212	-1	0	0	0	0	0.0000000000E+00	0.0000000000E+00	6.5000000000E+03	6.5000000000E+03	9.3827000000E-01	0.000E+00	0.0
	2212	-1	0	0	0	0	0.0000000000E+00	0.0000000000E+00	-6.5000000000E+03	6.5000000000E+03	9.3827000000E-01	0.000E+00	0.0
	2212	1	0	0	0	0	0.0000000000E+00	0.0000000000E+00	4.9936617654E+03	4.9936617654E+03	9.3827000000E-01	0.000E+00	0.0
	2212	1	0	0	0	0	0.0000000000E+00	0.0000000000E+00	-6.3028717679E+03	6.3028717679E+03	9.3827000000E-01	0.000E+00	0.0
	51	2	1	2	0	0	-7.6239686069E+01	-1.6196784237E+02	1.3771225337E+03	1.7652987614E+03	1.0898473162E+03	0.000E+00	0.0
	1000022	2	5	5	0	0	7.6239686069E+01	1.6196784237E+02	9.9419718617E+02	1.3201219251E+03	8.4985162266E+02	0.000E+00	0.0
	14	1	6	6	0	0	-4.0528197641E+01	-1.0141825037E+02	7.4324702554E+02	8.1851654674E+02	3.2500000000E+02	0.000E+00	0.0
	-14	1	6	6	0	0	1.1676788371E+02	2.6338609274E+02	2.5095016063E+02	5.0160537840E+02	3.2500000000E+02	0.000E+00	0.0
	25	2	5	5	0	0	-7.6239686069E+01	-1.6196784237E+02	3.1501281625E+02	3.8334454155E+02	1.2519541301E+02	0.000E+00	0.0
	-5	1	9	9	0	501	-2.1258156447E+01	1.9195736959E+01	4.6465541245E+01	5.4743990137E+01	4.1800000000E+00	0.000E+00	0.0
	5	1	9	9	501	0	-5.4981529622E+01	-1.8116357933E+02	2.6854727501E+02	3.2860055141E+02	4.1800000000E+00	0.000E+00	0.0
</event>
<event>
    11  -1  1.0000000E+00  1.0000000E+00  -1.0000000E+00  -1.0000000E+00
	2212	-1	0	0	0	0	0.0000000000E+00	0.0000000000E+00	6.5000000000E+03	6.5000000000E+03	9.3827000000E-01	0.000E+00	0.0
	2212	-1	0	0	0	0	0.0000000000E+00	0.0000000000E+00	-6.5000000000E+03	6.5000000000E+03	9.3827000000E-01	0.000E+00	0.0
	2212	1	0	0	0	0	0.0000000000E+00	0.0000000000E+00	5.7475148751E+03	5.7475148751E+03	9.3827000000E-01	0.000E+00	0.0
	2212	1	0	0	0	0	0.0000000000E+00	0.0000000000E+00	-6.1356484010E+03	6.1356484010E+03	9.3827000000E-01	0.000E+00	0.0
	51	2	1	2	0	0	-1.1861912302E+02	6.1573553364E+01	3.8599637868E+02	1.1240692315E+03	1.0472232971E+03	0.000E+00	0.0
	1000022	2	5	5	0	0	1.1861912302E+02	-6.1573553364E+01	3.2552864308E+02	9.2331194374E+02	8.5362418497E+02	0.000E+00	0.0
	14	1	6	6	0	0	-8.2073049088E+01	9.5378168895E+01	3.6961018837E+02	5.0800558248E+02	3.2500000000E+02	0.000E+00	0.0
	-14	1	6	6	0	0	2.0069217211E+02	-1.5695172226E+02	-4.4081545290E+01	4.1530636126E+02	3.2500000000E+02	0.000E+00	0.0
	25	2	5	5	0	0	-1.1861912302E+02	6.1573553364E+01	6.2604882769E+01	1.9352478020E+02	1.2518254824E+02	0.000E+00	0.0
	-5	1	9	9	0	501	-1.0115040509E+02	1.2133387039E+01	-1.1543979668E+01	1.0261266685E+02	4.1800000000E+00	0.000E+00	0.0
	5	1	9	9	501	0	-1.7468717924E+01	4.9440166325E+01	7.4148862437E+01	9.0912113345E+01	4.1800000000E+00	0.000E+00	0.0
</event>
<event>
    11  -1  1.0000000E+00  1.0000000E+00  -1.0000000E+00  -1.0000000E+00
	2212	-1	0	0	0	0	0.0000000000E+00	0.0000000000E+00	6.5000000000E+03	6.5000000000E+03	9.3827000000E-01	0.000E+00	0.0
	2212	-1	0	0	0	0	0.0000000000E+00	0.0000000000E+00	-6.5000000000E+03	6.5000000000E+03	9.3827000000E-01	0.000E+00	0.0
	2212	1	0	0	0	0	0.0000000000E+00	0.0000000000E+00	6.0608912640E+03	6.0608912640E+03	9.3827000000E-01	0.000E+00	0.0
	2212	1	0	0	0	0	0.0000000000E+00	0.0000000000E+00	-5.8794943624E+03	5.8794943624E+03	9.3827000000E-01	0.000E+00	0.0
	51	2	1	2	0	0	1.6712760240E+01	-1.2493602880E+02	-2.1562472164E+02	1.0734338047E+03	1.0439721188E+03	0.000E+00	0.0
	1000022	2	5	5	0	0	-1.6712760240E+01	1.2493602880E+02	-1.1719842092E+02	8.7072391023E+02	8.5354339687E+02	0.000E+00	0.0
	14	1	6	6	0	0	-2.5925998473E+02	1.1832076325E+02	4.3566259607E+01	4.3444051569E+02	3.2500000000E+02	0.000E+00	0.0
	-14	1	6	6	0	0	2.4254722449E+02	6.6152655495E+00	-1.6076468052E+02	4.3628339454E+02	3.2500000000E+02	0.000E+00	0.0
	25	2	5	5	0	0	1.6712760240E+01	-1.2493602880E+02	-6.4198480691E+01	1.8889046340E+02	1.2517920990E+02	0.000E+00	0.0
	-5	1	9	9	0	501	-7.2513300434E+00	-1.3828708557E+02	-7.6812173031E+01	1.5840922369E+02	4.1800000000E+00	0.000E+00	0.0
	5	1	9	9	501	0	2.3964090284E+01	1.3351056769E+01	1.2613692339E+01	3.0481239713E+01	4.1800000000E+00	0.000E+00	0.0
</event>
<event>
    11  -1  1.0000000E+00  1.0000000E+00  -1.0000000E+00  -1.0000000E+00
	2212	-1	0	0	0	0	0.0000000000E+00	0.0000000000E+00	6.5000000000E+03	6.5000000000E+03	9.3827000000E-01	0.000E+00	0.0
	2212	-1	0	0	0	0	0.0000000000E+00	0.0000000000E+00	-6.5000000000E+03	6.5000000000E+03	9.3827000000E-01	0.000E+00	0.0
	2212	1	0	0	0	0	0.0000000000E+00	0.0000000000E+00	6.3153083963E+03	6.3153083963E+03	9.3827000000E-01	0.000E+00	0.0
	2212	1	0	0	0	0	0.0000000000E+00	0.0000000000E+00	-5.0043467326E+03	5.0043467326E+03	9.3827000000E-01	0.000E+00	0.0
	51	2	1	2	0	0	2.5233654707E+01	6.6303287078E+01	-1.5216400853E+03	1.8507727614E+03	1.0511605024E+03	0.000E+00	0.0
	1000022	2	5	5	0	0	-2.5233654707E+01	-6.6303287078E+01	-8.7529060956E+02	1.2215292828E+03	8.4909791806E+02	0.000E+00	0.0
	14	1	6	6	0	0	-1.8084214097E+02	-7.2761409133E+01	-1.4244369328E+02	4.0486208561E+02	3.2500000000E+02	0.000E+00	0.0
	-14	1	6	6	0	0	1.5560848626E+02	6.4581220542E+00	-7.3284691628E+02	8.1666719723E+02	3.2500000000E+02	0.000E+00	0.0
	25	2	5	5	0	0	2.5233654707E+01	6.6303287078E+01	-4.3567105417E+02	4.5881558819E+02	1.2517832607E+02	0.000E+00	0.0
	-5	1	9	9	0	501	-6.4051595008E+00	9.7594777969E+01	-3.2618069132E+02	3.4055408168E+02	4.1800000000E+00	0.000E+00	0.0
	5	1	9	9	501	0	3.1638814208E+01	-3.1291490891E+01	-1.0949036284E+02	1.1826150651E+02	4.1800000000E+00	0.000E+00	0.0
</event>
<event>
    11  -1  1.0000000E+00  1.0000000E+00  -1.0000000E+00  -1.0000000E+00
	2212	-1	0	0	0	0	0.0000000000E+00	0.0000000000E+00	6.5000000000E+03	6.5000000000E+03	9.3827000000E-01	0.000E+00	0.0
	2212	-1	0	0	0	0	0.0000000000E+00	0.0000000000E+00	-6.5000000000E+03	6.5000000000E+03	9.3827000000E-01	0.000E+00	0.0
	2212	1	0	0	0	0	0.0000000000E+00	0.0000000000E+00	6.3035019724E+03	6.3035019724E+03	9.3827000000E-01	0.000E+00	0.0
	2212	1	0	0	0	0	0.0000000000E+00	0.0000000000E+00	-5.0882805078E+03	5.0882805078E+03	9.3827000000E-01	0.000E+00	0.0
	51	2	1	2	0	0	-6.6502675476E+01	1.0911933293E+01	-1.0232958205E+03	1.4701280201E+03	1.0533757084E+03	0.000E+00	0.0
	1000022	2	5	5	0	0	6.6502675476E+01	-1.0911933293E+01	-1.1942127122E+03	1.4645107897E+03	8.4504803128E+02	0.000E+00	0.0
	14	1	6	6	0	0	3.0119714548E+02	8.4481468553E+00	-5.6304671761E+02	7.1654567046E+02	3.2500000000E+02	0.000E+00	0.0
	-14	1	6	6	0	0	-2.3469447001E+02	-1.9360080148E+01	-6.3116599455E+02	7.4796511926E+02	3.2500000000E+02	0.000E+00	0.0
	25	2	5	5	0	0	-6.6502675476E+01	1.0911933293E+01	-2.1008752468E+01	1.4370673013E+02	1.2517420050E+02	0.000E+00	0.0
	-5	1	9	9	0	501	-7.5304585694E+01	1.4927186238E+01	-6.3631735869E+01	9.9800158944E+01	4.1800000000E+00	0.000E+00	0.0
	5	1	9	9	501	0	8.8019102179E+00	-4.0152529447E+00	4.2622983401E+01	4.3906571191E+01	4.1800000000E+00	0.000E+00	0.0
</event>
<event>
    11  -1  1.0000000E+00  1.0000000E+00  -1.0000000E+00  -1.0000000E+00
	2212	-1	0	0	0	0	0.0000000000E+00	0.0000000000E+00	6.5000000000E+03	6.5000000000E+03	9.3827000000E-01	0.000E+00	0.0
	2212	-1	0	0	0	0	0.0000000000E+00	0.0000000000E+00	-6.5000000000E+03	6.5000000000E+03	9.3827000000E-01	0.000E+00	0.0
	2212	1	0	0	0	0	0.0000000000E+00	0.0000000000E+00	6.2106439637E+03	6.2106439637E+03	9.3827000000E-01	0.000E+00	0.0
	2212	1	0	0	0	0	0.0000000000E+00	0.0000000000E+00	-5.5436676310E+03	5.5436676310E+03	9.3827000000E-01	0.000E+00	0.0
	51	2	1	2	0	0	4.7640574710E+01	4.1645693846E+01	-8.3903867670E+02	1.3471718761E+03	1.0520846804E+03	0.000E+00	0.0
	1000022	2	5	5	0	0	-4.7640574710E+01	-4.1645693846E+01	-3.7657715374E+02	9.2319136027E+02	8.4051647621E+02	0.000E+00	0.0
	14	1	6	6	0	0	-4.3538975895E+01	-2.5430255417E+02	-5.4319363458E+01	4.1849853611E+02	3.2500000000E+02	0.000E+00	0.0
	-14	1	6	6	0	0	-4.1015988151E+00	2.1265686033E+02	-3.2225779028E+02	5.0469282416E+02	3.2500000000E+02	0.000E+00	0.0
	25	2	5	5	0	0	4.7640574710E+01	4.1645693846E+01	-2.9039917892E+02	3.2249704499E+02	1.2517456903E+02	0.000E+00	0.0
	-5	1	9	9	0	501	-6.2894013340E+00	9.1956896185E+00	-2.4375634642E+02	2.4404660640E+02	4.1800000000E+00	0.000E+00	0.0
	5	1	9	9	501	0	5.3929976044E+01	3.2450004227E+01	-4.6642832508E+01	7.8450438589E+01	4.1800000000E+00	0.000E+00	0.0
</event>
<event>
    11  -1  1.0000000E+00  1.0000000E+00  -1.0000000E+00  -1.0000000E+00
	2212	-1	0	0	0	0	0.0000000000E+00	0.0000000000E+00	6.5000000000E+03	6.5000000000E+03	9.3827000000E-01	0.000E+00	0.0
	2212	-1	0	0	0	0	0.0000000000E+00	0.0000000000E+00	-6.5000000000E+03	6.5000000000E+03	9.3827000000E-01	0.000E+00	0.0
	2212	1	0	0	0	0	0.0000000000E+00	0.0000000000E+00	4.9161057799E+03	4.9161057799E+03	9.3827000000E-01	0.000E+00	0.0
	2212	1	0	0	0	0	0.0000000000E+00	0.0000000000E+00	-6.3226670950E+03	6.3226670950E+03	9.3827000000E-01	0.000E+00	0.0
	51	2	1	2	0	0	5.6226027347E+01	2.6474831144E+01	1.6535861422E+03	1.9651248474E+03	1.0599557789E+03	0.000E+00	0.0
	1000022	2	5	5	0	0	-5.6226027347E+01	-2.6474831144E+01	9.1172075465E+02	1.2470266903E+03	8.4851549723E+02	0.000E+00	0.0
	14	1	6	6	0	0	2.4259861909E+02	-4.3853826450E+01	4.6825773315E+02	6.2102137864E+02	3.2500000000E+02	0.000E+00	0.0
	-14	1	6	6	0	0	-2.9882464643E+02	1.7378995306E+01	4.4346302150E+02	6.2600531166E+02	3.2500000000E+02	0.000E+00	0.0
	25	2	5	5	0	0	5.6226027347E+01	2.6474831144E+01	4.9484056041E+02	5.1420043484E+02	1.2519035157E+02	0.000E+00	0.0
	-5	1	9	9	0	501	3.8203044436E+01	-4.6019142893E+01	2.8977645723E+02	2.9591401063E+02	4.1800000000E+00	0.000E+00	0.0
	5	1	9	9	501	0	1.8022982911E+01	7.2493974036E+01	2.0506410318E+02	2.1828642421E+02	4.1800000000E+00	0.000E+00	0.0
</event>
<event>
    11  -1  1.0000000E+00  1.0000000E+00  -1.0000000E+00  -1.0000000E+00
	2212	-1	0	0	0	0	0.0000000000E+00	0.0000000000E+00	6.5000000000E+03	6.5000000000E+03	9.3827000000E-01	0.000E+00	0.0
	2212	-1	0	0	0	0	0.0000000000E+00	0.0000000000E+00	-6.5000000000E+03	6.5000000000E+03	9.3827000000E-01	0.000E+00	0.0
	2212	1	0	0	0	0	0.0000000000E+00	0.0000000000E+00	4.9738327392E+03	4.9738327392E+03	9.3827000000E-01	0.000E+00	0.0
	2212	1	0	0	0	0	0.0000000000E+00	0.0000000000E+00	-6.3192332514E+03	6.3192332514E+03	9.3827000000E-01	0.000E+00	0.0
	51	2	1	2	0	0	9.3879240407E+01	-2.3681343216E+01	1.5264620508E+03	1.8555273332E+03	1.0504861608E+03	0.000E+00	0.0
	1000022	2	5	5	0	0	-9.3879240407E+01	2.3681343216E+01	9.3409146367E+02	1.2662214974E+03	8.4936205477E+02	0.000E+00	0.0
	14	1	6	6	0	0	3.1061008878E+01	7.3783411383E+01	8.3677230174E+02	9.0123341207E+02	3.2500000000E+02	0.000E+00	0.0
	-14	1	6	6	0	0	-1.2494024929E+02	-5.0102068167E+01	9.7319161929E+01	3.6498808529E+02	3.2500000000E+02	0.000E+00	0.0
	25	2	5	5	0	0	9.3879240407E+01	-2.3681343216E+01	4.1130904855E+02	4.4071251200E+02	1.2521288682E+02	0.000E+00	0.0
	-5	1	9	9	0	501	-1.0479998401E+01	-2.3231173404E+01	1.2953601373E+01	2.8892662957E+01	4.1800000000E+00	0.000E+00	0.0
	5	1	9	9	501	0	1.0435923881E+02	-4.5016981201E-01	3.9835544717E+02	4.1181984905E+02	4.1800000000E+00	0.000E+00	0.0
</event>
<event>
    11  -1  1.0000000E+00  1.0000000E+00  -1.0000000E+00  -1.0000000E+00
	2212	-1	0	0	0	0	0.0000000000E+00	0.0000000000E+00	6.5000000000E+03	6.5000000000E+03	9.3827000000E-01	0.000E+00	0.0
	2212	-1	0	0	0	0	0.0000000000E+00	0.0000000000E+00	-6.5000000000E+03	6.5000000000E+03	9.3827000000E-01	0.000E+00	0.0
	2212	1	0	0	0	0	0.0000000000E+00	0.0000000000E+00	5.5561078687E+03	5.5561078687E+03	9.3827000000E-01	0.000E+00	0.0
	2212	1	0	0	0	0	0.0000000000E+00	0.0000000000E+00	-6.2087415357E+03	6.2087415357E+03	9.3827000000E-01	0.000E+00	0.0
	51	2	1	2	0	0	9.7432084426E+01	-7.1079111259E+01	5.7535793255E+02	1.2021847995E+03	1.0486497463E+03	0.000E+00	0.0
	1000022	2	5	5	0	0	-9.7432084426E+01	7.1079111259E+01	6.1888751336E+02	1.0580004291E+03	8.4958690112E+02	0.000E+00	0.0
	14	1	6	6	0	0	-1.9719621974E+02	-1.9227587918E+02	2.7137019733E+02	5.0509716570E+02	3.2500000000E+02	0.000E+00	0.0
	-14	1	6	6	0	0	9.9764135315E+01	2.6335499044E+02	3.4751731603E+02	5.5290326336E+02	3.2500000000E+02	0.000E+00	0.0
	25	2	5	5	0	0	9.7432084426E+01	-7.1079111259E+01	3.3746153629E+01	1.7715016653E+02	1.2529216849E+02	0.000E+00	0.0
	-5	1	9	9	0	501	1.0007849454E+02	-6.6790406398E+01	-2.0832042512E+01	1.2218064434E+02	4.1800000000E+00	0.000E+00	0.0
	5	1	9	9	501	0	-2.6464101124E+00	-4.2887048611E+00	5.4578196141E+01	5.4969522191E+01	4.1800000000E+00	0.000E+00	0.0
</event>
<event>
    11  -1  1.0000000E+00  1.0000000E+00  -1.0000000E+00  -1.0000000E+00
	2212	-1	0	0	0	0	0.0000000000E+00	0.0000000000E+00	6.5000000000E+03	6.5000000000E+03	9.3827000000E-01	0.000E+00	0.0
	2212	-1	0	0	0	0	0.0000000000E+00	0.0000000000E+00	-6.5000000000E+03	6.5000000000E+03	9.3827000000E-01	0.000E+00	0.0
	2212	1	0	0	0	0	0.0000000000E+00	0.0000000000E+00	6.2314525443E+03	6.2314525443E+03	9.3827000000E-01	0.000E+00	0.0
	2212	1	0	0	0	0	0.0000000000E+00	0.0000000000E+00	-5.4849236804E+03	5.4849236804E+03	9.3827000000E-01	0.000E+00	0.0
	51	2	1	2	0	0	-6.0880067266E+01	1.7700876048E+01	-8.5548149309E+02	1.3513892630E+03	1.0442148494E+03	0.000E+00	0.0
	1000022	2	5	5	0	0	6.0880067266E+01	-1.7700876048E+01	-5.2397659509E+02	1.0205286687E+03	8.7344581281E+02	0.000E+00	0.0
	14	1	6	6	0	0	-1.9723386510E+02	-1.1310652099E+02	-4.2890981584E+02	5.8419424232E+02	3.2500000000E+02	0.000E+00	0.0
	-14	1	6	6	0	0	2.5811393236E+02	9.5405644937E+01	-9.5066779248E+01	4.3633442642E+02	3.2500000000E+02	0.000E+00	0.0
	25	2	5	5	0	0	-6.0880067266E+01	1.7700876048E+01	-2.2255226882E+02	2.6309510647E+02	1.2517914799E+02	0.000E+00	0.0
	-5	1	9	9	0	501	-7.6112863588E+01	-3.2167256788E+01	-9.9626832719E+01	1.2950242705E+02	4.1800000000E+00	0.000E+00	0.0
	5	1	9	9	501	0	1.5232796323E+01	4.9868132836E+01	-1.2292543610E+02	1.3359267943E+02	4.1800000000E+00	0.000E+00	0.0
</event>
<event>
    11  -1  1.0000000E+00  1.0000000E+00  -1.0000000E+00  -1.0000000E+00
	2212	-1	0	0	0	0	0.0000000000E+00	0.0000000000E+00	6.5000000000E+03	6.5000000000E+03	9.3827000000E-01	0.000E+00	0.0
	2212	-1	0	0	0	0	0.0000000000E+00	0.0000000000E+00	-6.5000000000E+03	6.5000000000E+03	9.3827000000E-01	0.000E+00	0.0
	2212	1	0	0	0	0	0.0000000000E+00	0.0000000000E+00	5.7129469310E+03	5.7129469310E+03	9.3827000000E-01	0.000E+00	0.0
	2212	1	0	0	0	0	0.0000000000E+00	0.0000000000E+00	-6.1511678492E+03	6.1511678492E+03	9.3827000000E-01	0.000E+00	0.0
	51	2	1	2	0	0	-1.5684824096E+01	-7.6397603393E+01	5.6781048282E+02	1.1944408781E+03	1.0479492638E+03	0.000E+00	0.0
	1000022	2	5	5	0	0	1.5684824096E+01	7.6397603393E+01	2.3405469629E+02	8.8402404092E+02	8.4890181797E+02	0.000E+00	0.0
	14	1	6	6	0	0	3.3264030158E+01	-8.3930987795E+01	-1.3791098712E+02	3.6441095865E+02	3.2500000000E+02	0.000E+00	0.0
	-14	1	6	6	0	0	-1.7579206062E+01	1.6032859119E+02	3.7196568341E+02	5.1961308227E+02	3.2500000000E+02	0.000E+00	0.0
	25	2	5	5	0	0	-1.5684824096E+01	-7.6397603393E+01	2.0416622189E+02	2.5186117887E+02	1.2517028302E+02	0.000E+00	0.0
	-5	1	9	9	0	501	4.8333350004E+01	-6.2290073785E+01	1.3557874199E+02	1.5689242714E+02	4.1800000000E+00	0.000E+00	0.0
	5	1	9	9	501	0	-6.4018174100E+01	-1.4107529608E+01	6.8587479898E+01	9.4968751732E+01	4.1800000000E+00	0.000E+00	0.0
</event>
<event>
    11  -1  1.0000000E+00  1.0000000E+00  -1.0000000E+00  -1.0000000E+00
	2212	-1	0	0	0	0	0.0000000000E+00	0.0000000000E+00	6.5000000000E+03	6.5000000000E+03	9.3827000000E-01	0.000E+00	0.0
	2212	-1	0	0	0	0	0.0000000000E+00	0.0000000000E+00	-6.5000000000E+03	6.5000000000E+03	9.3827000000E-01	0.000E+00	0.0
	2212	1	0	0	0	0	0.0000000000E+00	0.0000000000E+00	6.3074656991E+03	6.3074656991E+03	9.3827000000E-01	0.000E+00	0.0
	2212	1	0	0	0	0	0.0000000000E+00	0.0000000000E+00	-5.0653050212E+03	5.0653050212E+03	9.3827000000E-01	0.000E+00	0.0
	51	2	1	2	0	0	8.8533797687E+01	8.7013241679E+01	-1.2362332326E+03	1.6274501902E+03	1.0511479338E+03	0.000E+00	0.0
	1000022	2	5	5	0	0	-8.8533797687E+01	-8.7013241679E+01	-1.0481093570E+03	1.3650363798E+03	8.6566827161E+02	0.000E+00	0.0
	14	1	6	6	0	0	-2.7711505756E+02	-1.5330310627E+02	-3.6406904639E+02	5.8177819490E+02	3.2500000000E+02	0.000E+00	0.0
	-14	1	6	6	0	0	1.8858125988E+02	6.6289864589E+01	-6.8404031063E+02	7.8325818495E+02	3.2500000000E+02	0.000E+00	0.0
	25	2	5	5	0	0	8.8533797687E+01	8.7013241679E+01	-1.9405132089E+02	2.6219289978E+02	1.2521846508E+02	0.000E+00	0.0
	-5	1	9	9	0	501	1.1089696493E+02	7.4170705279E+01	-1.9469818029E+02	2.3605991646E+02	4.1800000000E+00	0.000E+00	0.0
	5	1	9	9	501	0	-2.2363167241E+01	1.2842536400E+01	6.4685939913E-01	2.6132983322E+01	4.1800000000E+00	0.000E+00	0.0
</event>
<event>
    11  -1  1.0000000E+00  1.0000000E+00  -1.0000000E+00  -1.0000000E+00
	2212	-1	0	0	0	0	0.0000000000E+00	0.0000000000E+00	6.5000000000E+03	6.5000000000E+03	9.3827000000E-01	0.000E+00	0.0
	2212	-1	0	0	0	0	0.0000000000E+00	0.0000000000E+00	-6.5000000000E+03	6.5000000000E+03	9.3827000000E-01	0.000E+00	0.0
	2212	1	0	0	0	0	0.0000000000E+00	0.0000000000E+00	6.2751133216E+03	6.2751133216E+03	9.3827000000E-01	0.000E+00	0.0
	2212	1	0	0	0	0	0.0000000000E+00	0.0000000000E+00	-5.2984967006E+03	5.2984967006E+03	9.3827000000E-01	0.000E+00	0.0
	51	2	1	2	0	0	-5.3791846212E+01	1.0471891488E+02	-9.1107458422E+02	1.3873445341E+03	1.0396193267E+03	0.000E+00	0.0
	1000022	2	5	5	0	0	5.3791846212E+01	-1.0471891488E+02	-8.8068202946E+02	1.2295919602E+03	8.4996231545E+02	0.000E+00	0.0
	14	1	6	6	0	0	1.6649569124E+02	-9.6181063098E+01	-1.2251775250E+02	3.9699774783E+02	3.2500000000E+02	0.000E+00	0.0
	-14	1	6	6	0	0	-1.1270384503E+02	-8.5378517853E+00	-7.5816427696E+02	8.3259421236E+02	3.2500000000E+02	0.000E+00	0.0
	25	2	5	5	0	0	-5.3791846212E+01	1.0471891488E+02	-9.5934591554E+01	1.9679801763E+02	1.2516549058E+02	0.000E+00	0.0
	-5	1	9	9	0	501	-9.0880004253E+01	4.5547408488E+01	-5.3051918115E+01	1.1474197143E+02	4.1800000000E+00	0.000E+00	0.0
	5	1	9	9	501	0	3.7088158041E+01	5.9171506395E+01	-4.2882673439E+01	8.2056046196E+01	4.1800000000E+00	0.000E+00	0.0
</event>
<event>
    11  -1  1.0000000E+00  1.0000000E+00  -1.0000000E+00  -1.0000000E+00
	2212	-1	0	0	0	0	0.0000000000E+00	0.0000000000E+00	6.5000000000E+03	6.5000000000E+03	9.3827000000E-01	0.000E+00	0.0
	2212	-1	0	0	0	0	0.0000000000E+00	0.0000000000E+00	-6.5000000000E+03	6.5000000000E+03	9.3827000000E-01	0.000E+00	0.0
	2212	1	0	0	0	0	0.0000000000E+00	0.0000000000E+00	6.2842242928E+03	6.2842242928E+03	9.3827000000E-01	0.000E+00	0.0
	2212	1	0	0	0	0	0.0000000000E+00	0.0000000000E+00	-5.2186904760E+03	5.2186904760E+03	9.3827000000E-01	0.000E+00	0.0
	51	2	1	2	0	0	-1.0388487374E+02	4.1496810551E+01	-1.1843064157E+03	1.5877649741E+03	1.0516186925E+03	0.000E+00	0.0
	1000022	2	5	5	0	0	1.0388487374E+02	-4.1496810551E+01	-7.6840450091E+02	1.1558125903E+03	8.5612102801E+02	0.000E+00	0.0
	14	1	6	6	0	0	1.8685573908E+02	2.2303149232E+02	-3.8953531624E+02	5.8482550936E+02	3.2500000000E+02	0.000E+00	0.0
	-14	1	6	6	0	0	-8.2970865337E+01	-2.6452830287E+02	-3.7886918466E+02	5.7098708094E+02	3.2500000000E+02	0.000E+00	0.0
	25	2	5	5	0	0	-1.0388487374E+02	4.1496810551E+01	-2.9712931591E+02	3.4127264082E+02	1.2516841744E+02	0.000E+00	0.0
	-5	1	9	9	0	501	7.6664526088E+00	2.8598360844E+01	-7.8219450743E+00	3.0907862484E+01	4.1800000000E+00	0.000E+00	0.0
	5	1	9	9	501	0	-1.1155132635E+02	1.2898449707E+01	-2.8930737083E+02	3.1036477834E+02	4.1800000000E+00	0.000E+00	0.0
</event>
<event>
    11  -1  1.0000000E+00  1.0000000E+00  -1.0000000E+00  -1.0000000E+00
	2212	-1	0	0	0	0	0.0000000000E+00	0.0000000000E+00	6.5000000000E+03	6.5000000000E+03	9.3827000000E-01	0.000E+00	0.0
	2212	-1	0	0	0	0	0.0000000000E+00	0.0000000000E+00	-6.5000000000E+03	6.5000000000E+03	9.3827000000E-01	0.000E+00	0.0
	2212	1	0	0	0	0	0.0000000000E+00	0.0000000000E+00	5.6540582629E+03	5.6540582629E+03	9.3827000000E-01	0.000E+00	0.0
	2212	1	0	0	0	0	0.0000000000E+00	0.0000000000E+00	-6.1776626559E+03	6.1776626559E+03	9.3827000000E-01	0.000E+00	0.0
	51	2	1	2	0	0	-6.2832086106E+01	1.1948851464E+02	4.9194871497E+02	1.1623051947E+03	1.0443727550E+03	0.000E+00	0.0
	1000022	2	5	5	0	0	6.2832086106E+01	-1.1948851464E+02	4.6614343303E+02	9.7541371938E+02	8.4611869594E+02	0.000E+00	0.0
	14	1	6	6	0	0	-1.4080128112E+02	1.3448622169E+02	3.1036422375E+02	4.8975758899E+02	3.2500000000E+02	0.000E+00	0.0
	-14	1	6	6	0	0	2.0363336723E+02	-2.5397473632E+02	1.5577920928E+02	4.8565613039E+02	3.2500000000E+02	0.000E+00	0.0
	25	2	5	5	0	0	-6.2832086106E+01	1.1948851464E+02	5.7460959971E+01	1.9286536188E+02	1.2517950997E+02	0.000E+00	0.0
	-5	1	9	9	0	501	-1.4555407050E+01	4.0262952313E+01	-3.9644685193E+01	5.8499048432E+01	4.1800000000E+00	0.000E+00	0.0
	5	1	9	9	501	0	-4.8276679057E+01	7.9225562324E+01	9.7105645164E+01	1.3436631345E+02	4.1800000000E+00	0.000E+00	0.0
</event>
<event>
    11  -1  1.0000000E+00  1.0000000E+00  -1.0000000E+00  -1.0000000E+00
	2212	-1	0	0	0	0	0.0000000000E+00	0.0000000000E+00	6.5000000000E+03	6.5000000000E+03	9.3827000000E-01	0.000E+00	0.0
	2212	-1	0	0	0	0	0.0000000000E+00	0.0000000000E+00	-6.5000000000E+03	6.5000000000E+03	9.3827000000E-01	0.000E+00	0.0
	2212	1	0	0	0	0	0.0000000000E+00	0.0000000000E+00	6.3000950398E+03	6.3000950398E+03	9.3827000000E-01	0.000E+00	0.0
	2212	1	0	0	0	0	0.0000000000E+00	0.0000000000E+00	-5.1404416146E+03	5.1404416146E+03	9.3827000000E-01	0.000E+00	0.0
	51	2	1	2	0	0	-6.9389577287E+01	1.0596649640E+02	-1.1032933387E+03	1.5232957239E+03	1.0426551968E+03	0.000E+00	0.0
	1000022	2	5	5	0	0	6.9389577287E+01	-1.0596649640E+02	-1.0215479302E+03	1.3341201228E+03	8.4868870416E+02	0.000E+00	0.0
	14	1	6	6	0	0	-1.3483559826E+02	-2.6178128505E+02	-5.9892765502E+02	7.4232702747E+02	3.2500000000E+02	0.000E+00	0.0
	-14	1	6	6	0	0	2.0422517554E+02	1.5581478865E+02	-4.2262027514E+02	5.9179309530E+02	3.2500000000E+02	0.000E+00	0.0
	25	2	5	5	0	0	-6.9389577287E+01	1.0596649640E+02	-1.3810549506E+02	2.2534322277E+02	1.2515042345E+02	0.000E+00	0.0
	-5	1	9	9	0	501	-9.8347829317E+01	4.9562146432E+01	-6.2928537814E+01	1.2691010662E+02	4.1800000000E+00	0.000E+00	0.0
	5	1	9	9	501	0	2.8958252030E+01	5.6404349968E+01	-7.5176957243E+01	9.8433116156E+01	4.1800000000E+00	0.000E+00	0.0
</event>
<event>
    11  -1  1.0000000E+00  1.0000000E+00  -1.0000000E+00  -1.0000000E+00
	2212	-1	0	0	0	0	0.0000000000E+00	0.0000000000E+00	6.5000000000E+03	6.5000000000E+03	9.3827000000E-01	0.000E+00	0.0
	2212	-1	0	0	0	0	0.0000000000E+00	0.0000000000E+00	-6.5000000000E+03	6.5000000000E+03	9.3827000000E-01	0.000E+00	0.0
	2212	1	0	0	0	0	0.0000000000E+00	0.0000000000E+00	5.3851548079E+03	5.3851548079E+03	9.3827000000E-01	0.000E+00	0.0
	2212	1	0	0	0	0	0.0000000000E+00	0.0000000000E+00	-6.2529080752E+03	6.2529080752E+03	9.3827000000E-01	0.000E+00	0.0
	51	2	1	2	0	0	1.1591767362E+02	6.1756436241E+01	8.0671261174E+02	1.3303807650E+03	1.0497032807E+03	0.000E+00	0.0
	1000022	2	5	5	0	0	-1.1591767362E+02	-6.1756436241E+01	7.8037621419E+02	1.1605521549E+03	8.4890724113E+02	0.000E+00	0.0
	14	1	6	6	0	0	3.8736708260E+01	-1.8723904041E+02	1.1584934839E+02	3.9446807519E+02	3.2500000000E+02	0.000E+00	0.0
	-14	1	6	6	0	0	-1.5465438188E+02	1.2548260416E+02	6.6452686580E+02	7.6608407969E+02	3.2500000000E+02	0.000E+00	0.0
	25	2	5	5	0	0	1.1591767362E+02	6.1756436241E+01	8.7377053102E+01	2.0138496200E+02	1.2518142449E+02	0.000E+00	0.0
	-5	1	9	9	0	501	-8.9316955911E+00	6.0575119775E+00	6.1002893612E+01	6.2091014378E+01	4.1800000000E+00	0.000E+00	0.0
	5	1	9	9	501	0	1.2484936921E+02	5.5698924264E+01	2.6374159490E+01	1.3929394762E+02	4.1800000000E+00	0.000E+00	0.0
</event>
<event>
    11  -1  1.0000000E+00  1.0000000E+00  -1.0000000E+00  -1.0000000E+00
	2212	-1	0	0	0	0	0.0000000000E+00	0.0000000000E+00	6.5000000000E+03	6.5000000000E+03	9.3827000000E-01	0.000E+00	0.0
	2212	-1	0	0	0	0	0.0000000000E+00	0.0000000000E+00	-6.5000000000E+03	6.5000000000E+03	9.3827000000E-01	0.000E+00	0.0
	2212	1	0	0	0	0	0.0000000000E+00	0.0000000000E+00	6.2994362470E+03	6.2994362470E+03	9.3827000000E-01	0.000E+00	0.0
	2212	1	0	0	0	0	0.0000000000E+00	0.0000000000E+00	-5.1149936673E+03	5.1149936673E+03	9.3827000000E-01	0.000E+00	0.0
	51	2	1	2	0	0	-1.0443695048E+02	-8.1137495281E+01	-1.2983799796E+03	1.6776201039E+03	1.0541006934E+03	0.000E+00	0.0
	1000022	2	5	5	0	0	1.0443695048E+02	8.1137495281E+01	-8.6381216876E+02	1.2168276714E+03	8.4676310101E+02	0.000E+00	0.0
	14	1	6	6	0	0	-3.8094618120E+01	-2.5366485713E+01	-7.6639843813E+02	8.3371831244E+02	3.2500000000E+02	0.000E+00	0.0
	-14	1	6	6	0	0	1.4253156860E+02	1.0650398099E+02	-9.7413730635E+01	3.8310935897E+02	3.2500000000E+02	0.000E+00	0.0
	25	2	5	5	0	0	-1.0443695048E+02	-8.1137495281E+01	-3.2063041098E+02	3.6874241426E+02	1.2520678041E+02	0.000E+00	0.0
	-5	1	9	9	0	501	-2.3607318007E+00	-5.1986061248E+01	-2.0573908268E+02	2.1225966682E+02	4.1800000000E+00	0.000E+00	0.0
	5	1	9	9	501	0	-1.0207621868E+02	-2.9151434033E+01	-1.1489132831E+02	1.5648274744E+02	4.1800000000E+00	0.000E+00	0.0
</event>
<event>
    11  -1  1.0000000E+00  1.0000000E+00  -1.0000000E+00  -1.0000000E+00
	2212	-1	0	0	0	0	0.0000000000E+00	0.0000000000E+00	6.5000000000E+03	6.5000000000E+03	9.3827000000E-01	0.000E+00	0.0
	2212	-1	0	0	0	0	0.0000000000E+00	0.0000000000E+00	-6.5000000000E+03	6.5000000000E+03	9.3827000000E-01	0.000E+00	0.0
	2212	1	0	0	0	0	0.0000000000E+00	0.0000000000E+00	5.7428963295E+03	5.7428963295E+03	9.3827000000E-01	0.000E+00	0.0
	2212	1	0	0	0	0	0.0000000000E+00	0.0000000000E+00	-6.1255751363E+03	6.1255751363E+03	9.3827000000E-01	0.000E+00	0.0
	51	2	1	2	0	0	5.3309248393E+01	6.3815392262E+01	2.4851769392E+02	1.0966262258E+03	1.0648538654E+03	0.000E+00	0.0
	1000022	2	5	5	0	0	-5.3309248393E+01	-6.3815392262E+01	4.4942510377E+02	9.6709451560E+02	8.5227612776E+02	0.000E+00	0.0
	14	1	6	6	0	0	-6.3764162422E+01	2.0364082147E+02	5.9651248998E+01	3.9334301072E+02	3.2500000000E+02	0.000E+00	0.0
	-14	1	6	6	0	0	1.0454914029E+01	-2.6745621373E+02	3.8977385477E+02	5.7375150488E+02	3.2500000000E+02	0.000E+00	0.0
	25	2	5	5	0	0	5.3309248393E+01	6.3815392262E+01	-6.6746296990E+01	1.6443401861E+02	1.2517666740E+02	0.000E+00	0.0
	-5	1	9	9	0	501	-1.2901577383E+01	1.9434170859E+01	3.0500324689E+01	3.8624861192E+01	4.1800000000E+00	0.000E+00	0.0
	5	1	9	9	501	0	6.6210825776E+01	4.4381221403E+01	-9.7246621680E+01	1.2580915742E+02	4.1800000000E+00	0.000E+00	0.0
</event>
<event>
    11  -1  1.0000000E+00  1.0000000E+00  -1.0000000E+00  -1.0000000E+00
	2212	-1	0	0	0	0	0.0000000000E+00	0.0000000000E+00	6.5000000000E+03	6.5000000000E+03	9.3827000000E-01	0.000E+00	0.0
	2212	-1	0	0	0	0	0.0000000000E+00	0.0000000000E+00	-6.5000000000E+03	6.5000000000E+03	9.3827000000E-01	0.000E+00	0.0
	2212	1	0	0	0	0	0.0000000000E+00	0.0000000000E+00	5.6252269873E+03	5.6252269873E+03	9.3827000000E-01	0.000E+00	0.0
	2212	1	0	0	0	0	0.0000000000E+00	0.0000000000E+00	-6.1967674622E+03	6.1967674622E+03	9.3827000000E-01	0.000E+00	0.0
	51	2	1	2	0	0	6.0095252268E+01	5.3096164444E+01	4.7946598203E+02	1.1390157298E+03	1.0300672612E+03	0.000E+00	0.0
	1000022	2	5	5	0	0	-6.0095252268E+01	-5.3096164444E+01	5.7257182746E+02	1.0293458009E+03	8.5163586010E+02	0.000E+00	0.0
	14	1	6	6	0	0	-4.0219227162E+01	2.4499843521E+02	3.3082882829E+02	5.2603662716E+02	3.2500000000E+02	0.000E+00	0.0
	-14	1	6	6	0	0	-1.9876025106E+01	-2.9809459966E+02	2.4174299918E+02	5.0330917374E+02	3.2500000000E+02	0.000E+00	0.0
	25	2	5	5	0	0	6.0095252268E+01	5.3096164444E+01	-1.0313525716E+00	1.4865974965E+02	1.2517194356E+02	0.000E+00	0.0
	-5	1	9	9	0	501	1.0530876233E+01	8.7119258081E+01	5.6082076652E+00	8.8031749250E+01	4.1800000000E+00	0.000E+00	0.0
	5	1	9	9	501	0	4.9564376035E+01	-3.4023093637E+01	-6.6395602368E+00	6.0628000400E+01	4.1800000000E+00	0.000E+00	0.0
</event>
<event>
    11  -1  1.0000000E+00  1.0000000E+00  -1.0000000E+00  -1.0000000E+00
	2212	-1	0	0	0	0	0.0000000000E+00	0.0000000000E+00	6.5000000000E+03	6.5000000000E+03	9.3827000000E-01	0.000E+00	0.0
	2212	-1	0	0	0	0	0.0000000000E+00	0.0000000000E+00	-6.5000000000E+03	6.5000000000E+03	9.3827000000E-01	0.000E+00	0.0
	2212	1	0	0	0	0	0.0000000000E+00	0.0000000000E+00	6.0090182548E+03	6.0090182548E+03	9.3827000000E-01	0.000E+00	0.0
	2212	1	0	0	0	0	0.0000000000E+00	0.0000000000E+00	-5.9365020519E+03	5.9365020519E+03	9.3827000000E-01	0.000E+00	0.0
	51	2	1	2	0	0	-5.7785831140E+01	8.3869909668E+01	3.1929349539E+01	1.0573843536E+03	1.0519832811E+03	0.000E+00	0.0
	1000022	2	5	5	0	0	5.7785831140E+01	-8.3869909668E+01	-1.6439134299E+02	8.6878492428E+02	8.4698841018E+02	0.000E+00	0.0
	14	1	6	6	0	0	-1.7196383670E+02	-1.9626864142E+02	1.7089239895E+01	4.1714503816E+02	3.2500000000E+02	0.000E+00	0.0
	-14	1	6	6	0	0	2.2974966784E+02	1.1239873175E+02	-1.8148058289E+02	4.5163988612E+02	3.2500000000E+02	0.000E+00	0.0
	25	2	5	5	0	0	-5.7785831140E+01	8.3869909668E+01	9.1875140066E+01	1.8569476896E+02	1.2517244835E+02	0.000E+00	0.0
	-5	1	9	9	0	501	-1.2911009396E+01	1.9186559544E+01	1.0338529162E+02	1.0602268226E+02	4.1800000000E+00	0.000E+00	0.0
	5	1	9	9	501	0	-4.4874821744E+01	6.4683350124E+01	-1.1510151551E+01	7.9672086696E+01	4.1800000000E+00	0.000E+00	0.0
</event>
<event>
    11  -1  1.0000000E+00  1.0000000E+00  -1.0000000E+00  -1.0000000E+00
	2212	-1	0	0	0	0	0.0000000000E+00	0.0000000000E+00	6.5000000000E+03	6.5000000000E+03	9.3827000000E-01	0.000E+00	0.0
	2212	-1	0	0	0	0	0.0000000000E+00	0.0000000000E+00	-6.5000000000E+03	6.5000000000E+03	9.3827000000E-01	0.000E+00	0.0
	2212	1	0	0	0	0	0.0000000000E+00	0.0000000000E+00	6.1944045399E+03	6.1944045399E+03	9.3827000000E-01	0.000E+00	0.0
	2212	1	0	0	0	0	0.0000000000E+00	0.0000000000E+00	-5.5758293842E+03	5.5758293842E+03	9.3827000000E-01	0.000E+00	0.0
	51	2	1	2	0	0	1.2771551012E+02	-4.2798573340E+01	-7.0232489850E+02	1.2810513692E+03	1.0628684670E+03	0.000E+00	0.0
	1000022	2	5	5	0	0	-1.2771551012E+02	4.2798573340E+01	-4.2707795970E+02	9.6427211033E+02	8.5398018109E+02	0.000E+00	0.0
	14	1	6	6	0	0	-4.7657801884E+01	-2.5538701909E+02	-1.9551871213E+02	4.5972422428E+02	3.2500000000E+02	0.000E+00	0.0
	-14	1	6	6	0	0	-8.0057708233E+01	2.9818559243E+02	-2.3155924757E+02	5.0454788605E+02	3.2500000000E+02	0.000E+00	0.0
	25	2	5	5	0	0	1.2771551012E+02	-4.2798573340E+01	-1.9149719604E+02	2.6549396558E+02	1.2519145445E+02	0.000E+00	0.0
	-5	1	9	9	0	501	1.4594496682E+01	9.0131389354E+00	1.5796459379E+01	2.3690431313E+01	4.1800000000E+00	0.000E+00	0.0
	5	1	9	9	501	0	1.1312101343E+02	-5.1811712276E+01	-2.0729365542E+02	2.4180353427E+02	4.1800000000E+00	0.000E+00	0.0
</event>
<event>
    11  -1  1.0000000E+00  1.0000000E+00  -1.0000000E+00  -1.0000000E+00
	2212	-1	0	0	0	0	0.0000000000E+00	0.0000000000E+00	6.5000000000E+03	6.5000000000E+03	9.3827000000E-01	0.000E+00	0.0
	2212	-1	0	0	0	0	0.0000000000E+00	0.0000000000E+00	-6.5000000000E+03	6.5000000000E+03	9.3827000000E-01	0.000E+00	0.0
	2212	1	0	0	0	0	0.0000000000E+00	0.0000000000E+00	6.3040175222E+03	6.3040175222E+03	9.3827000000E-01	0.000E+00	0.0
	2212	1	0	0	0	0	0.0000000000E+00	0.0000000000E+00	-5.0844666146E+03	5.0844666146E+03	9.3827000000E-01	0.000E+00	0.0
	51	2	1	2	0	0	1.0688845709E+02	2.0015576686E+00	-1.0556481402E+03	1.4951592241E+03	1.0534130059E+03	0.000E+00	0.0
	1000022	2	5	5	0	0	-1.0688845709E+02	-2.0015576686E+00	-1.1638815189E+03	1.4377296223E+03	8.3726765618E+02	0.000E+00	0.0
	14	1	6	6	0	0	-2.7841123056E+02	1.3813725156E+02	-6.5700877381E+02	7.9616596412E+02	3.2500000000E+02	0.000E+00	0.0
	-14	1	6	6	0	0	1.7152277347E+02	-1.4013880923E+02	-5.0687274513E+02	6.4156365813E+02	3.2500000000E+02	0.000E+00	0.0
	25	2	5	5	0	0	1.0688845709E+02	2.0015576686E+00	-5.5669388669E+01	1.7378624090E+02	1.2519356294E+02	0.000E+00	0.0
	-5	1	9	9	0	501	5.1160996323E+01	-2.2254858570E+01	-8.8409142381E+01	1.0462492596E+02	4.1800000000E+00	0.000E+00	0.0
	5	1	9	9	501	0	5.5727460762E+01	2.4256416239E+01	3.2739753712E+01	6.9161314945E+01	4.1800000000E+00	0.000E+00	0.0
</event>
<event>
    11  -1  1.0000000E+00  1.0000000E+00  -1.0000000E+00  -1.0000000E+00
	2212	-1	0	0	0	0	0.0000000000E+00	0.0000000000E+00	6.5000000000E+03	6.5000000000E+03	9.3827000000E-01	0.000E+00	0.0
	2212	-1	0	0	0	0	0.0000000000E+00	0.0000000000E+00	-6.5000000000E+03	6.5000000000E+03	9.3827000000E-01	0.000E+00	0.0
	2212	1	0	0	0	0	0.0000000000E+00	0.0000000000E+00	4.9021666361E+03	4.9021666361E+03	9.3827000000E-01	0.000E+00	0.0
	2212	1	0	0	0	0	0.0000000000E+00	0.0000000000E+00	-6.3239426924E+03	6.3239426924E+03	9.3827000000E-01	0.000E+00	0.0
	51	2	1	2	0	0	-1.5302192306E+02	2.9093902372E+01	1.4548914416E+03	1.8072665080E+03	1.0607737554E+03	0.000E+00	0.0
	1000022	2	5	5	0	0	1.5302192306E+02	-2.9093902372E+01	1.1358318864E+03	1.4250709079E+03	8.4643419972E+02	0.000E+00	0.0
	14	1	6	6	0	0	1.9492060355E+02	1.9697273603E+02	3.8401338613E+02	5.7435492612E+02	3.2500000000E+02	0.000E+00	0.0
	-14	1	6	6	0	0	-4.1898680481E+01	-2.2606663840E+02	7.5181850023E+02	8.5071598181E+02	3.2500000000E+02	0.000E+00	0.0
	25	2	5	5	0	0	-1.5302192306E+02	2.9093902372E+01	2.8594416993E+02	3.4881976357E+02	1.2509594336E+02	0.000E+00	0.0
	-5	1	9	9	0	501	1.8024861811E+01	1.7970130731E+01	2.1124688490E+01	3.3339857612E+01	4.1800000000E+00	0.000E+00	0.0
	5	1	9	9	501	0	-1.7104678488E+02	1.1123771641E+01	2.6481948144E+02	3.1547990596E+02	4.1800000000E+00	0.000E+00	0.0
</event>
<event>
    11  -1  1.0000000E+00  1.0000000E+00  -1.0000000E+00  -1.0000000E+00
	2212	-1	0	0	0	0	0.0000000000E+00	0.0000000000E+00	6.5000000000E+03	6.5000000000E+03	9.3827000000E-01	0.000E+00	0.0
	2212	-1	0	0	0	0	0.0000000000E+00	0.0000000000E+00	-6.5000000000E+03	6.5000000000E+03	9.3827000000E-01	0.000E+00	0.0
	2212	1	0	0	0	0	0.0000000000E+00	0.0000000000E+00	6.2602445992E+03	6.2602445992E+03	9.3827000000E-01	0.000E+00	0.0
	2212	1	0	0	0	0	0.0000000000E+00	0.0000000000E+00	-5.3619964036E+03	5.3619964036E+03	9.3827000000E-01	0.000E+00	0.0
	51	2	1	2	0	0	-1.0343224684E+02	-8.0102066998E+01	-8.5523971908E+02	1.3564363536E+03	1.0446865719E+03	0.000E+00	0.0
	1000022	2	5	5	0	0	1.0343224684E+02	8.0102066998E+01	-7.8973049805E+02	1.1666664233E+03	8.4871768741E+02	0.000E+00	0.0
	14	1	6	6	0	0	-1.8898416662E+01	-1.7774720150E+02	-1.6293358781E+02	4.0512167534E+02	3.2500000000E+02	0.000E+00	0.0
	-14	1	6	6	0	0	1.2233066350E+02	2.5784926849E+02	-6.2679691024E+02	7.6154474798E+02	3.2500000000E+02	0.000E+00	0.0
	25	2	5	5	0	0	-1.0343224684E+02	-8.0102066998E+01	-1.0851769760E+02	2.1109257389E+02	1.2517752688E+02	0.000E+00	0.0
	-5	1	9	9	0	501	-3.9538416369E+01	-7.4547816871E+01	5.5858918202E-01	8.4489335369E+01	4.1800000000E+00	0.000E+00	0.0
	5	1	9	9	501	0	-6.3893830469E+01	-5.5542501269E+00	-1.0907628678E+02	1.2660323852E+02	4.1800000000E+00	0.000E+00	0.0
</event>
<event>
    11  -1  1.0000000E+00  1.0000000E+00  -1.0000000E+00  -1.0000000E+00
	2212	-1	0	0	0	0	0.0000000000E+00	0.0000000000E+00	6.5000000000E+03	6.5000000000E+03	9.3827000000E-01	0.000E+00	0.0
	2212	-1	0	0	0	0	0.0000000000E+00	0.0000000000E+00	-6.5000000000E+03	6.5000000000E+03	9.3827000000E-01	0.000E+00	0.0
	2212	1	0	0	0	0	0.0000000000E+00	0.0000000000E+00	6.3291078616E+03	6.3291078616E+03	9.3827000000E-01	0.000E+00	0.0
	2212	1	0	0	0	0	0.0000000000E+00	0.0000000000E+00	-5.0065361667E+03	5.0065361667E+03	9.3827000000E-01	0.000E+00	0.0
	51	2	1	2	0	0	1.1311696050E+02	3.9113691925E+01	-1.3779463758E+03	1.7128766607E+03	1.0103884959E+03	0.000E+00	0.0
	1000022	2	5	5	0	0	-1.1311696050E+02	-3.9113691925E+01	-1.0473513162E+03	1.3391761790E+03	8.2590721697E+02	0.000E+00	0.0
	14	1	6	6	0	0	1.3209999235E+01	1.5198867171E+02	-7.8387148880E+02	8.6218012698E+02	3.2500000000E+02	0.000E+00	0.0
	-14	1	6	6	0	0	-1.2632695973E+02	-1.9110236363E+02	-2.6347982741E+02	4.7699605197E+02	3.2500000000E+02	0.000E+00	0.0
	25	2	5	5	0	0	1.1311696050E+02	3.9113691925E+01	-2.7522037864E+02	3.2517979279E+02	1.2518112147E+02	0.000E+00	0.0
	-5	1	9	9	0	501	7.8784393170E+01	6.3475140080E+01	-9.0925774032E+01	1.3609203797E+02	4.1800000000E+00	0.000E+00	0.0
	5	1	9	9	501	0	3.4332567329E+01	-2.4361448155E+01	-1.8429460461E+02	1.8908775482E+02	4.1800000000E+00	0.000E+00	0.0
</event>
<event>
    11  -1  1.0000000E+00  1.0000000E+00  -1.0000000E+00  -1.0000000E+00
	2212	-1	0	0	0	0	0.0000000000E+00	0.0000000000E+00	6.5000000000E+03	6.5000000000E+03	9.3827000000E-01	0.000E+00	0.0
	2212	-1	0	0	0	0	0.0000000000E+00	0.0000000000E+00	-6.5000000000E+03	6.5000000000E+03	9.3827000000E-01	0.000E+00	0.0
	2212	1	0	0	0	0	0.0000000000E+00	0.0000000000E+00	5.7368199231E+03	5.7368199231E+03	9.3827000000E-01	0.000E+00	0.0
	2212	1	0	0	0	0	0.0000000000E+00	0.0000000000E+00	-6.1360949876E+03	6.1360949876E+03	9.3827000000E-01	0.000E+00	0.0
	51	2	1	2	0	0	-6.8486549213E+01	-1.2299057257E+02	4.4717269678E+02	1.1535513559E+03	1.0539925149E+03	0.000E+00	0.0
	1000022	2	5	5	0	0	6.8486549213E+01	1.2299057257E+02	2.8217871337E+02	9.0528269723E+02	8.4858402487E+02	0.000E+00	0.0
	14	1	6	6	0	0	2.6174599439E+02	2.1716784151E+02	1.4791695159E+02	4.9313006554E+02	3.2500000000E+02	0.000E+00	0.0
	-14	1	6	6	0	0	-1.9325944518E+02	-9.4177268940E+01	1.3426176178E+02	4.1215263169E+02	3.2500000000E+02	0.000E+00	0.0
	25	2	5	5	0	0	-6.8486549213E+01	-1.2299057257E+02	1.1709635110E+02	2.2180239214E+02	1.2517051311E+02	0.000E+00	0.0
	-5	1	9	9	0	501	-7.3700439332E+01	-5.0001338031E+01	1.1874233140E+02	1.4848940106E+02	4.1800000000E+00	0.000E+00	0.0
	5	1	9	9	501	0	5.2138901186E+00	-7.2989234539E+01	-1.6459802983E+00	7.3312991072E+01	4.1800000000E+00	0.000E+00	0.0
</event>
<event>
    11  -1  1.0000000E+00  1.0000000E+00  -1.0000000E+00  -1.0000000E+00
	2212	-1	0	0	0	0	0.0000000000E+00	0.0000000000E+00	6.5000000000E+03	6.5000000000E+03	9.3827000000E-01	0.000E+00	0.0
	2212	-1	0	0	0	0	0.0000000000E+00	0.0000000000E+00	-6.5000000000E+03	6.5000000000E+03	9.3827000000E-01	0.000E+00	0.0
	2212	1	0	0	0	0	0.0000000000E+00	0.0000000000E+00	6.3305191885E+03	6.3305191885E+03	9.3827000000E-01	0.000E+00	0.0
	2212	1	0	0	0	0	0.0000000000E+00	0.0000000000E+00	-4.8321117054E+03	4.8321117054E+03	9.3827000000E-01	0.000E+00	0.0
	51	2	1	2	0	0	3.3964691478E+01	1.0787409220E+02	-1.3140761580E+03	1.6941920836E+03	1.0633438987E+03	0.000E+00	0.0
	1000022	2	5	5	0	0	-3.3964691478E+01	-1.0787409220E+02	-1.4110167497E+03	1.6473565783E+03	8.4262981680E+02	0.000E+00	0.0
	14	1	6	6	0	0	7.0495690236E+00	5.3911425706E+01	-2.0702781239E+02	3.8915505052E+02	3.2500000000E+02	0.000E+00	0.0
	-14	1	6	6	0	0	-4.1014260501E+01	-1.6178551791E+02	-1.2039889373E+03	1.2582015278E+03	3.2500000000E+02	0.000E+00	0.0
	25	2	5	5	0	0	3.3964691478E+01	1.0787409220E+02	-8.7390733387E+01	1.9001252785E+02	1.2520862758E+02	0.000E+00	0.0
	-5	1	9	9	0	501	8.0148383421E+01	5.0020383252E+01	-4.9999510810E+01	1.0697301336E+02	4.1800000000E+00	0.000E+00	0.0
	5	1	9	9	501	0	-4.6183691944E+01	5.7853708949E+01	-3.7391222577E+01	8.3039514489E+01	4.1800000000E+00	0.000E+00	0.0
</event>
<event>
    11  -1  1.0000000E+00  1.0000000E+00  -1.0000000E+00  -1.0000000E+00
	2212	-1	0	0	0	0	0.0000000000E+00	0.0000000000E+00	6.5000000000E+03	6.5000000000E+03	9.3827000000E-01	0.000E+00	0.0
	2212	-1	0	0	0	0	0.0000000000E+00	0.0000000000E+00	-6.5000000000E+03	6.5000000000E+03	9.3827000000E-01	0.000E+00	0.0
	2212	1	0	0	0	0	0.0000000000E+00	0.0000000000E+00	6.1636210248E+03	6.1636210248E+03	9.3827000000E-01	0.000E+00	0.0
	2212	1	0	0	0	0	0.0000000000E+00	0.0000000000E+00	-5.7073272035E+03	5.7073272035E+03	9.3827000000E-01	0.000E+00	0.0
	51	2	1	2	0	0	4.5669090242E+00	1.1703399026E+02	-5.0240992438E+02	1.1544208052E+03	1.0327409413E+03	0.000E+00	0.0
	1000022	2	5	5	0	0	-4.5669090242E+00	-1.1703399026E+02	-3.3573339753E+02	9.1947798172E+02	8.4794164488E+02	0.000E+00	0.0
	14	1	6	6	0	0	-1.2576673454E+02	4.5680435835E+01	7.3304102329E+01	3.5902989451E+02	3.2500000000E+02	0.000E+00	0.0
	-14	1	6	6	0	0	1.2119982551E+02	-1.6271442609E+02	-4.0903749986E+02	5.6044808721E+02	3.2500000000E+02	0.000E+00	0.0
	25	2	5	5	0	0	4.5669090242E+00	1.1703399026E+02	-1.2056042380E+02	2.0957378996E+02	1.2517406327E+02	0.000E+00	0.0
	-5	1	9	9	0	501	3.7895386725E+01	9.8627357585E+01	-2.7974069028E+01	1.0937749740E+02	4.1800000000E+00	0.000E+00	0.0
	5	1	9	9	501	0	-3.3328477701E+01	1.8406632672E+01	-9.2586354775E+01	1.0019629256E+02	4.1800000000E+00	0.000E+00	0.0
</event>
<event>
    11  -1  1.0000000E+00  1.0000000E+00  -1.0000000E+00  -1.0000000E+00
	2212	-1	0	0	0	0	0.0000000000E+00	0.0000000000E+00	6.5000000000E+03	6.5000000000E+03	9.3827000000E-01	0.000E+00	0.0
	2212	-1	0	0	0	0	0.0000000000E+00	0.0000000000E+00	-6.5000000000E+03	6.5000000000E+03	9.3827000000E-01	0.000E+00	0.0
	2212	1	0	0	0	0	0.0000000000E+00	0.0000000000E+00	6.3053983947E+03	6.3053983947E+03	9.3827000000E-01	0.000E+00	0.0
	2212	1	0	0	0	0	0.0000000000E+00	0.0000000000E+00	-5.0715600749E+03	5.0715600749E+03	9.3827000000E-01	0.000E+00	0.0
	51	2	1	2	0	0	1.2817339523E+02	6.7946927245E+01	-1.2568074027E+03	1.6469720282E+03	1.0544699189E+03	0.000E+00	0.0
	1000022	2	5	5	0	0	-1.2817339523E+02	-6.7946927245E+01	-9.9815364871E+02	1.3192962236E+03	8.5040379531E+02	0.000E+00	0.0
	14	1	6	6	0	0	-1.1389248949E+01	1.7152621821E+02	-2.0315868947E+02	4.2005881925E+02	3.2500000000E+02	0.000E+00	0.0
	-14	1	6	6	0	0	-1.1678414628E+02	-2.3947314545E+02	-7.9499495924E+02	8.9923740438E+02	3.2500000000E+02	0.000E+00	0.0
	25	2	5	5	0	0	1.2817339523E+02	6.7946927245E+01	-2.3568467107E+02	3.0374530675E+02	1.2517484982E+02	0.000E+00	0.0
	-5	1	9	9	0	501	1.4571307414E+02	8.2888671356E+01	-2.1355992905E+02	2.7152927561E+02	4.1800000000E+00	0.000E+00	0.0
	5	1	9	9	501	0	-1.7539678908E+01	-1.4941744111E+01	-2.2124742019E+01	3.2216031145E+01	4.1800000000E+00	0.000E+00	0.0
</event>
<event>
    11  -1  1.0000000E+00  1.0000000E+00  -1.0000000E+00  -1.0000000E+00
	2212	-1	0	0	0	0	0.0000000000E+00	0.0000000000E+00	6.5000000000E+03	6.5000000000E+03	9.3827000000E-01	0.000E+00	0.0
	2212	-1	0	0	0	0	0.0000000000E+00	0.0000000000E+00	-6.5000000000E+03	6.5000000000E+03	9.3827000000E-01	0.000E+00	0.0
	2212	1	0	0	0	0	0.0000000000E+00	0.0000000000E+00	6.2788774485E+03	6.2788774485E+03	9.3827000000E-01	0.000E+00	0.0
	2212	1	0	0	0	0	0.0000000000E+00	0.0000000000E+00	-5.2558382268E+03	5.2558382268E+03	9.3827000000E-01	0.000E+00	0.0
	51	2	1	2	0	0	7.3344887652E+00	1.4014935943E+02	-9.3056928213E+02	1.4092919248E+03	1.0490228324E+03	0.000E+00	0.0
	1000022	2	5	5	0	0	-7.3344887652E+00	-1.4014935943E+02	-9.2990201383E+02	1.2554342836E+03	8.3168614717E+02	0.000E+00	0.0
	14	1	6	6	0	0	-1.8857098977E+02	-2.3185203717E+02	-6.2740283634E+02	7.6718557362E+02	3.2500000000E+02	0.000E+00	0.0
	-14	1	6	6	0	0	1.8123650100E+02	9.1702677738E+01	-3.0249917749E+02	4.8824870997E+02	3.2500000000E+02	0.000E+00	0.0
	25	2	5	5	0	0	7.3344887652E+00	1.4014935943E+02	-9.3137207936E+01	2.0985004109E+02	1.2516733826E+02	0.000E+00	0.0
	-5	1	9	9	0	501	-5.3173382884E+01	2.7264699638E+01	-2.9476712525E+01	6.6761676694E+01	4.1800000000E+00	0.000E+00	0.0
	5	1	9	9	501	0	6.0507871649E+01	1.1288465980E+02	-6.3660495411E+01	1.4308836439E+02	4.1800000000E+00	0.000E+00	0.0
</event>
<event>
    11  -1  1.0000000E+00  1.0000000E+00  -1.0000000E+00  -1.0000000E+00
	2212	-1	0	0	0	0	0.0000000000E+00	0.0000000000E+00	6.5000000000E+03	6.5000000000E+03	9.3827000000E-01	0.000E+00	0.0
	2212	-1	0	0	0	0	0.0000000000E+00	0.0000000000E+00	-6.5000000000E+03	6.5000000000E+03	9.3827000000E-01	0.000E+00	0.0
	2212	1	0	0	0	0	0.0000000000E+00	0.0000000000E+00	6.2666507739E+03	6.2666507739E+03	9.3827000000E-01	0.000E+00	0.0
	2212	1	0	0	0	0	0.0000000000E+00	0.0000000000E+00	-5.0333195705E+03	5.0333195705E+03	9.3827000000E-01	0.000E+00	0.0
	51	2	1	2	0	0	-1.1834013691E+02	-1.7252051756E+02	-1.4641689435E+03	1.8858826539E+03	1.1700405858E+03	0.000E+00	0.0
	1000022	2	5	5	0	0	1.1834013691E+02	1.7252051756E+02	-7.3457047997E+02	1.1448703297E+03	8.5285788079E+02	0.000E+00	0.0
	14	1	6	6	0	0	-6.1121299760E+01	-1.4983963051E+02	-1.8506209376E+02	4.0750546831E+02	3.2500000000E+02	0.000E+00	0.0
	-14	1	6	6	0	0	1.7946143667E+02	3.2236014807E+02	-5.4950838621E+02	7.3736486140E+02	3.2500000000E+02	0.000E+00	0.0
	25	2	5	5	0	0	-1.1834013691E+02	-1.7252051756E+02	-4.9876072349E+02	5.5515932585E+02	1.2518746266E+02	0.000E+00	0.0
	-5	1	9	9	0	501	-6.9953557564E+01	-7.8531517969E+01	-1.0993161714E+02	1.5219439010E+02	4.1800000000E+00	0.000E+00	0.0
	5	1	9	9	501	0	-4.8386579344E+01	-9.3988999591E+01	-3.8882910635E+02	4.0296493576E+02	4.1800000000E+00	0.000E+00	0.0
</event>
<event>
    11  -1  1.0000000E+00  1.0000000E+00  -1.0000000E+00  -1.0000000E+00
	2212	-1	0	0	0	0	0.0000000000E+00	0.0000000000E+00	6.5000000000E+03	6.5000000000E+03	9.3827000000E-01	0.000E+00	0.0
	2212	-1	0	0	0	0	0.0000000000E+00	0.0000000000E+00	-6.5000000000E+03	6.5000000000E+03	9.3827000000E-01	0.000E+00	0.0
	2212	1	0	0	0	0	0.0000000000E+00	0.0000000000E+00	5.7248888754E+03	5.7248888754E+03	9.3827000000E-01	0.000E+00	0.0
	2212	1	0	0	0	0	0.0000000000E+00	0.0000000000E+00	-6.1425034546E+03	6.1425034546E+03	9.3827000000E-01	0.000E+00	0.0
	51	2	1	2	0	0	9.2509843671E+01	1.1642203430E+02	4.7266521581E+02	1.1635818685E+03	1.0528049189E+03	0.000E+00	0.0
	1000022	2	5	5	0	0	-9.2509843671E+01	-1.1642203430E+02	2.8780142116E+02	8.9887090173E+02	8.3846710055E+02	0.000E+00	0.0
	14	1	6	6	0	0	-2.9438061880E+02	-1.2089015581E+02	7.4835949696E+01	4.6097700362E+02	3.2500000000E+02	0.000E+00	0.0
	-14	1	6	6	0	0	2.0187077513E+02	4.4681215046E+00	2.1296547147E+02	4.3789389811E+02	3.2500000000E+02	0.000E+00	0.0
	25	2	5	5	0	0	9.2509843671E+01	1.1642203430E+02	1.2981315804E+02	2.3373676820E+02	1.2517691304E+02	0.000E+00	0.0
	-5	1	9	9	0	501	8.5488224638E+00	9.3025570111E+01	1.0977735119E+02	1.4420602725E+02	4.1800000000E+00	0.000E+00	0.0
	5	1	9	9	501	0	8.3961021208E+01	2.3396464193E+01	2.0035806849E+01	8.9530740950E+01	4.1800000000E+00	0.000E+00	0.0
</event>
<event>
    11  -1  1.0000000E+00  1.0000000E+00  -1.0000000E+00  -1.0000000E+00
	2212	-1	0	0	0	0	0.0000000000E+00	0.0000000000E+00	6.5000000000E+03	6.5000000000E+03	9.3827000000E-01	0.000E+00	0.0
	2212	-1	0	0	0	0	0.0000000000E+00	0.0000000000E+00	-6.5000000000E+03	6.5000000000E+03	9.3827000000E-01	0.000E+00	0.0
	2212	1	0	0	0	0	0.0000000000E+00	0.0000000000E+00	6.3150834608E+03	6.3150834608E+03	9.3827000000E-01	0.000E+00	0.0
	2212	1	0	0	0	0	0.0000000000E+00	0.0000000000E+00	-5.0717976857E+03	5.0717976857E+03	9.3827000000E-01	0.000E+00	0.0
	51	2	1	2	0	0	-1.8415063448E+01	4.6086018627E+01	-1.4295032764E+03	1.7613448185E+03	1.0278097668E+03	0.000E+00	0.0
	1000022	2	5	5	0	0	1.8415063448E+01	-4.6086018627E+01	-8.5338749945E+02	1.2006243639E+03	8.4306915692E+02	0.000E+00	0.0
	14	1	6	6	0	0	-3.6206237304E+01	-2.7594293244E+02	-5.5166729517E+02	6.9815270403E+02	3.2500000000E+02	0.000E+00	0.0
	-14	1	6	6	0	0	5.4621300752E+01	2.2985691381E+02	-3.0172020428E+02	5.0247165989E+02	3.2500000000E+02	0.000E+00	0.0
	25	2	5	5	0	0	-1.8415063448E+01	4.6086018627E+01	-3.8989827573E+02	4.1249448959E+02	1.2517189322E+02	0.000E+00	0.0
	-5	1	9	9	0	501	-5.1143033385E+01	-2.4404673722E+01	-1.6442587421E+02	1.7396706146E+02	4.1800000000E+00	0.000E+00	0.0
	5	1	9	9	501	0	3.2727969937E+01	7.0490692348E+01	-2.2547240152E+02	2.3852742813E+02	4.1800000000E+00	0.000E+00	0.0
</event>
<event>
    11  -1  1.0000000E+00  1.0000000E+00  -1.0000000E+00  -1.0000000E+00
	2212	-1	0	0	0	0	0.0000000000E+00	0.0000000000E+00	6.5000000000E+03	6.5000000000E+03	9.3827000000E-01	0.000E+00	0.0
	2212	-1	0	0	0	0	0.0000000000E+00	0.0000000000E+00	-6.5000000000E+03	6.5000000000E+03	9.3827000000E-01	0.000E+00	0.0
	2212	1	0	0	0	0	0.0000000000E+00	0.0000000000E+00	5.7365612845E+03	5.7365612845E+03	9.3827000000E-01	0.000E+00	0.0
	2212	1	0	0	0	0	0.0000000000E+00	0.0000000000E+00	-6.1427537660E+03	6.1427537660E+03	9.3827000000E-01	0.000E+00	0.0
	51	2	1	2	0	0	1.3389257737E+02	-2.4536458331E+01	4.0559995289E+02	1.1287085566E+03	1.0444818925E+03	0.000E+00	0.0
	1000022	2	5	5	0	0	-1.3389257737E+02	2.4536458331E+01	3.3829256025E+02	9.2369069110E+02	8.4866564466E+02	0.000E+00	0.0
	14	1	6	6	0	0	1.8717477973E+02	-8.5316706613E+01	2.0204852192E+02	4.3446742548E+02	3.2500000000E+02	0.000E+00	0.0
	-14	1	6	6	0	0	-3.2106735710E+02	1.0985316494E+02	1.3624403834E+02	4.8922326562E+02	3.2500000000E+02	0.000E+00	0.0
	25	2	5	5	0	0	1.3389257737E+02	-2.4536458331E+01	6.7899921265E+01	1.9699425834E+02	1.2516820063E+02	0.000E+00	0.0
	-5	1	9	9	0	501	-1.4809781960E+01	2.2075868250E+01	2.1197692355E+01	3.4256213478E+01	4.1800000000E+00	0.000E+00	0.0
	5	1	9	9	501	0	1.4870235933E+02	-4.6612326581E+01	4.6702228910E+01	1.6273804486E+02	4.1800000000E+00	0.000E+00	0.0
</event>
<event>
    11  -1  1.0000000E+00  1.0000000E+00  -1.0000000E+00  -1.0000000E+00
	2212	-1	0	0	0	0	0.0000000000E+00	0.0000000000E+00	6.5000000000E+03	6.5000000000E+03	9.3827000000E-01	0.000E+00	0.0
	2212	-1	0	0	0	0	0.0000000000E+00	0.0000000000E+00	-6.5000000000E+03	6.5000000000E+03	9.3827000000E-01	0.000E+00	0.0
	2212	1	0	0	0	0	0.0000000000E+00	0.0000000000E+00	6.2046731386E+03	6.2046731386E+03	9.3827000000E-01	0.000E+00	0.0
	2212	1	0	0	0	0	0.0000000000E+00	0.0000000000E+00	-5.5592692766E+03	5.5592692766E+03	9.3827000000E-01	0.000E+00	0.0
	51	2	1	2	0	0	8.6911529112E+01	-4.2113535567E+01	-7.8181040182E+02	1.3159965334E+03	1.0541784516E+03	0.000E+00	0.0
	1000022	2	5	5	0	0	-8.6911529112E+01	4.2113535567E+01	-3.9697904435E+02	9.4158468290E+02	8.4832905741E+02	0.000E+00	0.0
	14	1	6	6	0	0	-1.7637129930E+02	-3.4442296215E+01	-4.5896896905E+02	5.9039869710E+02	3.2500000000E+02	0.000E+00	0.0
	-14	1	6	6	0	0	8.9459770183E+01	7.6555831782E+01	6.1989924701E+01	3.5118598580E+02	3.2500000000E+02	0.000E+00	0.0
	25	2	5	5	0	0	8.6911529112E+01	-4.2113535567E+01	-2.4842481765E+02	2.9447290187E+02	1.2518880198E+02	0.000E+00	0.0
	-5	1	9	9	0	501	3.4974188455E+01	-7.7330780638E+01	-1.9206823198E+02	2.1002600226E+02	4.1800000000E+00	0.000E+00	0.0
	5	1	9	9	501	0	5.1937340657E+01	3.5217245071E+01	-5.6356585677E+01	8.4446899612E+01	4.1800000000E+00	0.000E+00	0.0
</event>
<event>
    11  -1  1.0000000E+00  1.0000000E+00  -1.0000000E+00  -1.0000000E+00
	2212	-1	0	0	0	0	0.0000000000E+00	0.0000000000E+00	6.5000000000E+03	6.5000000000E+03	9.3827000000E-01	0.000E+00	0.0
	2212	-1	0	0	0	0	0.0000000000E+00	0.0000000000E+00	-6.5000000000E+03	6.5000000000E+03	9.3827000000E-01	0.000E+00	0.0
	2212	1	0	0	0	0	0.0000000000E+00	0.0000000000E+00	6.2342188733E+03	6.2342188733E+03	9.3827000000E-01	0.000E+00	0.0
	2212	1	0	0	0	0	0.0000000000E+00	0.0000000000E+00	-5.4854362386E+03	5.4854362386E+03	9.3827000000E-01	0.000E+00	0.0
	51	2	1	2	0	0	-5.2055477901E+01	-1.9889344551E+01	-8.8727207430E+02	1.3671008342E+03	1.0385603489E+03	0.000E+00	0.0
	1000022	2	5	5	0	0	5.2055477901E+01	1.9889344551E+01	-4.8953232916E+02	9.8709970150E+02	8.5534704103E+02	0.000E+00	0.0
	14	1	6	6	0	0	1.1259562796E+01	2.6803938086E+02	-3.6553446698E+02	5.5786408201E+02	3.2500000000E+02	0.000E+00	0.0
	-14	1	6	6	0	0	4.0795915105E+01	-2.4815003631E+02	-1.2399786218E+02	4.2923561949E+02	3.2500000000E+02	0.000E+00	0.0
	25	2	5	5	0	0	-5.2055477901E+01	-1.9889344551E+01	-2.5925030557E+02	2.9324518656E+02	1.2520646827E+02	0.000E+00	0.0
	-5	1	9	9	0	501	3.2703803710E+01	9.2329449995E+00	-2.4980585629E+01	4.2382639239E+01	4.1800000000E+00	0.000E+00	0.0
	5	1	9	9	501	0	-8.4759281611E+01	-2.9122289551E+01	-2.3426971994E+02	2.5086254733E+02	4.1800000000E+00	0.000E+00	0.0
</event>
<event>
    11  -1  1.0000000E+00  1.0000000E+00  -1.0000000E+00  -1.0000000E+00
	2212	-1	0	0	0	0	0.0000000000E+00	0.0000000000E+00	6.5000000000E+03	6.5000000000E+03	9.3827000000E-01	0.000E+00	0.0
	2212	-1	0	0	0	0	0.0000000000E+00	0.0000000000E+00	-6.5000000000E+03	6.5000000000E+03	9.3827000000E-01	0.000E+00	0.0
	2212	1	0	0	0	0	0.0000000000E+00	0.0000000000E+00	6.2752309323E+03	6.2752309323E+03	9.3827000000E-01	0.000E+00	0.0
	2212	1	0	0	0	0	0.0000000000E+00	0.0000000000E+00	-5.2653586746E+03	5.2653586746E+03	9.3827000000E-01	0.000E+00	0.0
	51	2	1	2	0	0	-1.4176924501E+02	1.7368309370E+00	-1.0058063233E+03	1.4634837252E+03	1.0535828010E+03	0.000E+00	0.0
	1000022	2	5	5	0	0	1.4176924501E+02	-1.7368309370E+00	-8.4154435029E+02	1.2062032101E+03	8.5242463306E+02	0.000E+00	0.0
	14	1	6	6	0	0	4.4599878033E+01	-3.4032083309E+01	-7.9701448900E+02	8.6255691261E+02	3.2500000000E+02	0.000E+00	0.0
	-14	1	6	6	0	0	9.7169366982E+01	3.2295252372E+01	-4.4529861284E+01	3.4364629745E+02	3.2500000000E+02	0.000E+00	0.0
	25	2	5	5	0	0	-1.4176924501E+02	1.7368309370E+00	-1.6832790742E+02	2.5320718304E+02	1.2521205098E+02	0.000E+00	0.0
	-5	1	9	9	0	501	-8.6109596854E+01	-1.3153142708E+01	-1.3876188232E+01	8.8305655726E+01	4.1800000000E+00	0.000E+00	0.0
	5	1	9	9	501	0	-5.5659648161E+01	1.4889973645E+01	-1.5445171919E+02	1.6490152731E+02	4.1800000000E+00	0.000E+00	0.0
</event>
<event>
    11  -1  1.0000000E+00  1.0000000E+00  -1.0000000E+00  -1.0000000E+00
	2212	-1	0	0	0	0	0.0000000000E+00	0.0000000000E+00	6.5000000000E+03	6.5000000000E+03	9.3827000000E-01	0.000E+00	0.0
	2212	-1	0	0	0	0	0.0000000000E+00	0.0000000000E+00	-6.5000000000E+03	6.5000000000E+03	9.3827000000E-01	0.000E+00	0.0
	2212	1	0	0	0	0	0.0000000000E+00	0.0000000000E+00	6.1909656580E+03	6.1909656580E+03	9.3827000000E-01	0.000E+00	0.0
	2212	1	0	0	0	0	0.0000000000E+00	0.0000000000E+00	-5.5938159879E+03	5.5938159879E+03	9.3827000000E-01	0.000E+00	0.0
	51	2	1	2	0	0	-9.6419540041E+01	9.5405868716E+01	-6.7828738734E+02	1.2643736421E+03	1.0583798559E+03	0.000E+00	0.0
	1000022	2	5	5	0	0	9.6419540041E+01	-9.5405868716E+01	-4.1152619432E+02	9.5343126208E+02	8.4928108151E+02	0.000E+00	0.0
	14	1	6	6	0	0	1.6959063288E+02	-2.8851470869E+02	-2.9154204091E+02	5.5011224446E+02	3.2500000000E+02	0.000E+00	0.0
	-14	1	6	6	0	0	-7.3171092843E+01	1.9310883997E+02	-1.1998415341E+02	4.0331901762E+02	3.2500000000E+02	0.000E+00	0.0
	25	2	5	5	0	0	-9.6419540041E+01	9.5405868716E+01	-1.8562347580E+02	2.6178709195E+02	1.2520942159E+02	0.000E+00	0.0
	-5	1	9	9	0	501	-4.3496898558E+01	5.6548145059E+00	-1.4213129587E+02	1.4880435066E+02	4.1800000000E+00	0.000E+00	0.0
	5	1	9	9	501	0	-5.2922641483E+01	8.9751054210E+01	-4.3492179934E+01	1.1298274129E+02	4.1800000000E+00	0.000E+00	0.0
</event>
<event>
    11  -1  1.0000000E+00  1.0000000E+00  -1.0000000E+00  -1.0000000E+00
	2212	-1	0	0	0	0	0.0000000000E+00	0.0000000000E+00	6.5000000000E+03	6.5000000000E+03	9.3827000000E-01	0.000E+00	0.0
	2212	-1	0	0	0	0	0.0000000000E+00	0.0000000000E+00	-6.5000000000E+03	6.5000000000E+03	9.3827000000E-01	0.000E+00	0.0
	2212	1	0	0	0	0	0.0000000000E+00	0.0000000000E+00	5.0138090382E+03	5.0138090382E+03	9.3827000000E-01	0.000E+00	0.0
	2212	1	0	0	0	0	0.0000000000E+00	0.0000000000E+00	-6.3144890795E+03	6.3144890795E+03	9.3827000000E-01	0.000E+00	0.0
	51	2	1	2	0	0	1.1843449767E+02	4.9482734837E+01	1.2252408568E+03	1.6187986415E+03	1.0501517097E+03	0.000E+00	0.0
	1000022	2	5	5	0	0	-1.1843449767E+02	-4.9482734837E+01	1.1554336315E+03	1.4409684778E+03	8.5140355062E+02	0.000E+00	0.0
	14	1	6	6	0	0	5.8113897507E+00	1.4257735788E+02	9.0272709397E+02	9.7000169145E+02	3.2500000000E+02	0.000E+00	0.0
	-14	1	6	6	0	0	-1.2424588742E+02	-1.9206009272E+02	2.5270653752E+02	4.7096678637E+02	3.2500000000E+02	0.000E+00	0.0
	25	2	5	5	0	0	1.1843449767E+02	4.9482734837E+01	1.4524640982E+02	2.3073340447E+02	1.2516434432E+02	0.000E+00	0.0
	-5	1	9	9	0	501	3.4522288640E+01	-1.5762969587E+01	1.1345794550E+02	1.1970980503E+02	4.1800000000E+00	0.000E+00	0.0
	5	1	9	9	501	0	8.3912209028E+01	6.5245704424E+01	3.1788464318E+01	1.1102359944E+02	4.1800000000E+00	0.000E+00	0.0
</event>
<event>
    11  -1  1.0000000E+00  1.0000000E+00  -1.0000000E+00  -1.0000000E+00
	2212	-1	0	0	0	0	0.0000000000E+00	0.0000000000E+00	6.5000000000E+03	6.5000000000E+03	9.3827000000E-01	0.000E+00	0.0
	2212	-1	0	0	0	0	0.0000000000E+00	0.0000000000E+00	-6.5000000000E+03	6.5000000000E+03	9.3827000000E-01	0.000E+00	0.0
	2212	1	0	0	0	0	0.0000000000E+00	0.0000000000E+00	5.0617084226E+03	5.0617084226E+03	9.3827000000E-01	0.000E+00	0.0
	2212	1	0	0	0	0	0.0000000000E+00	0.0000000000E+00	-6.3102364859E+03	6.3102364859E+03	9.3827000000E-01	0.000E+00	0.0
	51	2	1	2	0	0	5.1155663312E+01	1.1138074640E+01	1.3782995120E+03	1.7303732428E+03	1.0448641328E+03	0.000E+00	0.0
	1000022	2	5	5	0	0	-5.1155663312E+01	-1.1138074640E+01	9.3575910302E+02	1.2871119231E+03	8.8219671560E+02	0.000E+00	0.0
	14	1	6	6	0	0	9.8179792106E+01	-1.9836694983E+02	7.4103315846E+02	8.3889442738E+02	3.2500000000E+02	0.000E+00	0.0
	-14	1	6	6	0	0	-1.4933545542E+02	1.8722887519E+02	1.9472594457E+02	4.4821749569E+02	3.2500000000E+02	0.000E+00	0.0
	25	2	5	5	0	0	5.1155663312E+01	1.1138074640E+01	3.1276896027E+02	3.4094316839E+02	1.2520728001E+02	0.000E+00	0.0
	-5	1	9	9	0	501	5.5360098231E+01	1.9203359111E+01	3.2200710513E+02	3.2732179523E+02	4.1800000000E+00	0.000E+00	0.0
	5	1	9	9	501	0	-4.2044349186E+00	-8.0652844707E+00	-9.2381448545E+00	1.3621373166E+01	4.1800000000E+00	0.000E+00	0.0
</event>
<event>
    11  -1  1.0000000E+00  1.0000000E+00  -1.0000000E+00  -1.0000000E+00
	2212	-1	0	0	0	0	0.0000000000E+00	0.0000000000E+00	6.5000000000E+03	6.5000000000E+03	9.3827000000E-01	0.000E+00	0.0
	2212	-1	0	0	0	0	0.0000000000E+00	0.0000000000E+00	-6.5000000000E+03	6.5000000000E+03	9.3827000000E-01	0.000E+00	0.0
	2212	1	0	0	0	0	0.0000000000E+00	0.0000000000E+00	5.0125248085E+03	5.0125248085E+03	9.3827000000E-01	0.000E+00	0.0
	2212	1	0	0	0	0	0.0000000000E+00	0.0000000000E+00	-6.3169064770E+03	6.3169064770E+03	9.3827000000E-01	0.000E+00	0.0
	51	2	1	2	0	0	1.0082075993E+02	8.8031654187E+01	1.2807420059E+03	1.6575894473E+03	1.0437376550E+03	0.000E+00	0.0
	1000022	2	5	5	0	0	-1.0082075993E+02	-8.8031654187E+01	1.1083743612E+03	1.4022381739E+03	8.4844786167E+02	0.000E+00	0.0
	14	1	6	6	0	0	-6.6224181429E+01	-3.1763060748E+02	6.1063274994E+02	7.6404986769E+02	3.2500000000E+02	0.000E+00	0.0
	-14	1	6	6	0	0	-3.4596578505E+01	2.2959895329E+02	4.9774161129E+02	6.3818830623E+02	3.2500000000E+02	0.000E+00	0.0
	25	2	5	5	0	0	1.0082075993E+02	8.8031654187E+01	1.9600730733E+02	2.6833054056E+02	1.2517194852E+02	0.000E+00	0.0
	-5	1	9	9	0	501	4.0812133633E+01	-2.9628003562E+01	4.5607450510E+01	6.8124597531E+01	4.1800000000E+00	0.000E+00	0.0
	5	1	9	9	501	0	6.0008626300E+01	1.1765965775E+02	1.5039985682E+02	2.0020594303E+02	4.1800000000E+00	0.000E+00	0.0
</event>
<event>
    11  -1  1.0000000E+00  1.0000000E+00  -1.0000000E+00  -1.0000000E+00
	2212	-1	0	0	0	0	0.0000000000E+00	0.0000000000E+00	6.5000000000E+03	6.5000000000E+03	9.3827000000E-01	0.000E+00	0.0
	2212	-1	0	0	0	0	0.0000000000E+00	0.0000000000E+00	-6.5000000000E+03	6.5000000000E+03	9.3827000000E-01	0.000E+00	0.0
	2212	1	0	0	0	0	0.0000000000E+00	0.0000000000E+00	5.0517454171E+03	5.0517454171E+03	9.3827000000E-01	0.000E+00	0.0
	2212	1	0	0	0	0	0.0000000000E+00	0.0000000000E+00	-6.3151538396E+03	6.3151538396E+03	9.3827000000E-01	0.000E+00	0.0
	51	2	1	2	0	0	-1.1387345522E+02	4.2143697074E+01	1.3454968000E+03	1.7017408997E+03	1.0348029743E+03	0.000E+00	0.0
	1000022	2	5	5	0	0	1.1387345522E+02	-4.2143697074E+01	9.7134014431E+02	1.2930374068E+03	8.4480814654E+02	0.000E+00	0.0
	14	1	6	6	0	0	1.6914549694E+02	2.2255743054E+02	5.3351850784E+02	6.8440412567E+02	3.2500000000E+02	0.000E+00	0.0
	-14	1	6	6	0	0	-5.5272041714E+01	-2.6470112762E+02	4.3782163648E+02	6.0863328115E+02	3.2500000000E+02	0.000E+00	0.0
	25	2	5	5	0	0	-1.1387345522E+02	4.2143697074E+01	2.9206827816E+02	3.4006333644E+02	1.2488370061E+02	0.000E+00	0.0
	-5	1	9	9	0	501	-6.0996489969E-01	-1.2391008158E+01	1.4897355190E+02	1.4954765363E+02	4.1800000000E+00	0.000E+00	0.0
	5	1	9	9	501	0	-1.1326349032E+02	5.4534705232E+01	1.4309472626E+02	1.9051568281E+02	4.1800000000E+00	0.000E+00	0.0
</event>
<event>
    11  -1  1.0000000E+00  1.0000000E+00  -1.0000000E+00  -1.0000000E+00
	2212	-1	0	0	0	0	0.0000000000E+00	0.0000000000E+00	6.5000000000E+03	6.5000000000E+03	9.3827000000E-01	0.000E+00	0.0
	2212	-1	0	0	0	0	0.0000000000E+00	0.0000000000E+00	-6.5000000000E+03	6.5000000000E+03	9.3827000000E-01	0.000E+00	0.0
	2212	1	0	0	0	0	0.0000000000E+00	0.0000000000E+00	6.2669675402E+03	6.2669675402E+03	9.3827000000E-01	0.000E+00	0.0
	2212	1	0	0	0	0	0.0000000000E+00	0.0000000000E+00	-5.3122191481E+03	5.3122191481E+03	9.3827000000E-01	0.000E+00	0.0
	51	2	1	2	0	0	-1.3166742827E+02	7.3530625572E+01	-8.9304812129E+02	1.3883241645E+03	1.0522195466E+03	0.000E+00	0.0
	1000022	2	5	5	0	0	1.3166742827E+02	-7.3530625572E+01	-8.4301340559E+02	1.1952039645E+03	8.3372528467E+02	0.000E+00	0.0
	14	1	6	6	0	0	-1.0439697675E+01	1.8924635819E+02	-5.4627091922E+02	6.6329487301E+02	3.2500000000E+02	0.000E+00	0.0
	-14	1	6	6	0	0	1.4210712594E+02	-2.6277698376E+02	-2.9674248636E+02	5.3190909153E+02	3.2500000000E+02	0.000E+00	0.0
	25	2	5	5	0	0	-1.3166742827E+02	7.3530625572E+01	-1.1173498652E+02	2.2560934707E+02	1.2518708284E+02	0.000E+00	0.0
	-5	1	9	9	0	501	-6.3723269939E+01	-2.7447957884E+01	-6.5009683253E+01	9.5172353340E+01	4.1800000000E+00	0.000E+00	0.0
	5	1	9	9	501	0	-6.7944158330E+01	1.0097858346E+02	-4.6725303266E+01	1.3043699373E+02	4.1800000000E+00	0.000E+00	0.0
</event>
<event>
    11  -1  1.0000000E+00  1.0000000E+00  -1.0000000E+00  -1.0000000E+00
	2212	-1	0	0	0	0	0.0000000000E+00	0.0000000000E+00	6.5000000000E+03	6.5000000000E+03	9.3827000000E-01	0.000E+00	0.0
	2212	-1	0	0	0	0	0.0000000000E+00	0.0000000000E+00	-6.5000000000E+03	6.5000000000E+03	9.3827000000E-01	0.000E+00	0.0
	2212	1	0	0	0	0	0.0000000000E+00	0.0000000000E+00	5.6313628396E+03	5.6313628396E+03	9.3827000000E-01	0.000E+00	0.0
	2212	1	0	0	0	0	0.0000000000E+00	0.0000000000E+00	-6.1819082340E+03	6.1819082340E+03	9.3827000000E-01	0.000E+00	0.0
	51	2	1	2	0	0	-9.0366351852E+01	1.2931227686E+01	6.5801152340E+02	1.2435987185E+03	1.0512969674E+03	0.000E+00	0.0
	1000022	2	5	5	0	0	9.0366351852E+01	-1.2931227686E+01	3.5299713020E+02	9.3568245665E+02	8.6172001923E+02	0.000E+00	0.0
	14	1	6	6	0	0	3.1067640011E+02	2.1477578359E+00	2.9685267285E+02	5.3876799072E+02	3.2500000000E+02	0.000E+00	0.0
	-14	1	6	6	0	0	-2.2031004826E+02	-1.5078985522E+01	5.6144457344E+01	3.9691446592E+02	3.2500000000E+02	0.000E+00	0.0
	25	2	5	5	0	0	-9.0366351852E+01	1.2931227686E+01	1.9754826422E+02	2.5104646983E+02	1.2516277051E+02	0.000E+00	0.0
	-5	1	9	9	0	501	-1.0409307879E+02	-1.1931240677E+01	8.5257347732E+01	1.3514440906E+02	4.1800000000E+00	0.000E+00	0.0
	5	1	9	9	501	0	1.3726726942E+01	2.4862468363E+01	1.1229091649E+02	1.1590206078E+02	4.1800000000E+00	0.000E+00	0.0
</event>
<event>
    11  -1  1.0000000E+00  1.0000000E+00  -1.0000000E+00  -1.0000000E+00
	2212	-1	0	0	0	0	0.0000000000E+00	0.0000000000E+00	6.5000000000E+03	6.5000000000E+03	9.3827000000E-01	0.000E+00	0.0
	2212	-1	0	0	0	0	0.0000000000E+00	0.0000000000E+00	-6.5000000000E+03	6.5000000000E+03	9.3827000000E-01	0.000E+00	0.0
	2212	1	0	0	0	0	0.0000000000E+00	0.0000000000E+00	6.0966710657E+03	6.0966710657E+03	9.3827000000E-01	0.000E+00	0.0
	2212	1	0	0	0	0	0.0000000000E+00	0.0000000000E+00	-5.8297401279E+03	5.8297401279E+03	9.3827000000E-01	0.000E+00	0.0
	51	2	1	2	0	0	1.1724196228E+02	-3.9798462960E+01	-2.5563681583E+02	1.0779705825E+03	1.0398753770E+03	0.000E+00	0.0
	1000022	2	5	5	0	0	-1.1724196228E+02	3.9798462960E+01	-2.3481868832E+02	8.9462781211E+02	8.5433571296E+02	0.000E+00	0.0
	14	1	6	6	0	0	2.0755407705E+02	-6.7192378390E+01	-1.1181943266E+02	4.0708978878E+02	3.2500000000E+02	0.000E+00	0.0
	-14	1	6	6	0	0	-3.2479603932E+02	1.0699084135E+02	-1.2299925567E+02	4.8753802332E+02	3.2500000000E+02	0.000E+00	0.0
	25	2	5	5	0	0	1.1724196228E+02	-3.9798462960E+01	-3.2112249444E+01	1.7896099430E+02	1.2516487344E+02	0.000E+00	0.0
	-5	1	9	9	0	501	3.9298086266E+01	-1.4534673212E+01	4.8303141995E+01	6.4080123566E+01	4.1800000000E+00	0.000E+00	0.0
	5	1	9	9	501	0	7.7943876011E+01	-2.5263789747E+01	-8.0415391439E+01	1.1488087073E+02	4.1800000000E+00	0.000E+00	0.0
</event>
<event>
    11  -1  1.0000000E+00  1.0000000E+00  -1.0000000E+00  -1.0000000E+00
	2212	-1	0	0	0	0	0.0000000000E+00	0.0000000000E+00	6.5000000000E+03	6.5000000000E+03	9.3827000000E-01	0.000E+00	0.0
	2212	-1	0	0	0	0	0.0000000000E+00	0.0000000000E+00	-6.5000000000E+03	6.5000000000E+03	9.3827000000E-01	0.000E+00	0.0
	2212	1	0	0	0	0	0.0000000000E+00	0.0000000000E+00	6.1420825307E+03	6.1420825307E+03	9.3827000000E-01	0.000E+00	0.0
	2212	1	0	0	0	0	0.0000000000E+00	0.0000000000E+00	-5.7300900404E+03	5.7300900404E+03	9.3827000000E-01	0.000E+00	0.0
	51	2	1	2	0	0	1.5339191029E+01	9.9851218332E+01	-3.2049046846E+02	1.1023504861E+03	1.0498842304E+03	0.000E+00	0.0
	1000022	2	5	5	0	0	-1.5339191029E+01	-9.9851218332E+01	-4.3483828552E+02	9.6535828683E+02	8.5593617216E+02	0.000E+00	0.0
	14	1	6	6	0	0	-2.6434431098E+02	-7.4706734691E+01	-1.0321401448E+02	4.3787800098E+02	3.2500000000E+02	0.000E+00	0.0
	-14	1	6	6	0	0	2.4900511995E+02	-2.5144483641E+01	-3.3162427104E+02	5.2748028585E+02	3.2500000000E+02	0.000E+00	0.0
	25	2	5	5	0	0	1.5339191029E+01	9.9851218332E+01	2.2845795226E+01	1.6246914206E+02	1.2517481847E+02	0.000E+00	0.0
	-5	1	9	9	0	501	3.3803224494E+01	9.5032773169E+01	-3.0662747543E+01	1.0550621996E+02	4.1800000000E+00	0.000E+00	0.0
	5	1	9	9	501	0	-1.8464033465E+01	4.8184451636E+00	5.3508542769E+01	5.6962922106E+01	4.1800000000E+00	0.000E+00	0.0
</event>
<event>
    11  -1  1.0000000E+00  1.0000000E+00  -1.0000000E+00  -1.0000000E+00
	2212	-1	0	0	0	0	0.0000000000E+00	0.0000000000E+00	6.5000000000E+03	6.5000000000E+03	9.3827000000E-01	0.000E+00	0.0
	2212	-1	0	0	0	0	0.0000000000E+00	0.0000000000E+00	-6.5000000000E+03	6.5000000000E+03	9.3827000000E-01	0.000E+00	0.0
	2212	1	0	0	0	0	0.0000000000E+00	0.0000000000E+00	6.0342746841E+03	6.0342746841E+03	9.3827000000E-01	0.000E+00	0.0
	2212	1	0	0	0	0	0.0000000000E+00	0.0000000000E+00	-5.8991455304E+03	5.8991455304E+03	9.3827000000E-01	0.000E+00	0.0
	51	2	1	2	0	0	7.4322147507E+01	6.7085615888E+01	-2.3596472582E+01	1.0629739440E+03	1.0579851373E+03	0.000E+00	0.0
	1000022	2	5	5	0	0	-7.4322147507E+01	-6.7085615888E+01	-2.2304203054E+02	8.8375357187E+02	8.4926342612E+02	0.000E+00	0.0
	14	1	6	6	0	0	-5.2357164423E+01	2.0858274128E+02	-2.3822003815E+02	4.5675137569E+02	3.2500000000E+02	0.000E+00	0.0
	-14	1	6	6	0	0	-2.1964983085E+01	-2.7566835717E+02	1.5178007606E+01	4.2700219618E+02	3.2500000000E+02	0.000E+00	0.0
	25	2	5	5	0	0	7.4322147507E+01	6.7085615888E+01	8.7912876811E+01	1.8282621367E+02	1.2518981199E+02	0.000E+00	0.0
	-5	1	9	9	0	501	8.2160666340E+01	9.0055830550E+01	9.7745650638E+01	1.5630774878E+02	4.1800000000E+00	0.000E+00	0.0
	5	1	9	9	501	0	-7.8385188327E+00	-2.2970214662E+01	-9.8327738272E+00	2.6518464892E+01	4.1800000000E+00	0.000E+00	0.0
</event>
<event>
    11  -1  1.0000000E+00  1.0000000E+00  -1.0000000E+00  -1.0000000E+00
	2212	-1	0	0	0	0	0.0000000000E+00	0.0000000000E+00	6.5000000000E+03	6.5000000000E+03	9.3827000000E-01	0.000E+00	0.0
	2212	-1	0	0	0	0	0.0000000000E+00	0.0000000000E+00	-6.5000000000E+03	6.5000000000E+03	9.3827000000E-01	0.000E+00	0.0
	2212	1	0	0	0	0	0.0000000000E+00	0.0000000000E+00	5.9045614966E+03	5.9045614966E+03	9.3827000000E-01	0.000E+00	0.0
	2212	1	0	0	0	0	0.0000000000E+00	0.0000000000E+00	-6.0345772870E+03	6.0345772870E+03	9.3827000000E-01	0.000E+00	0.0
	51	2	1	2	0	0	1.4043690773E+02	6.7372931693E+01	1.8253599767E+02	1.0798626960E+03	1.0528639108E+03	0.000E+00	0.0
	1000022	2	5	5	0	0	-1.4043690773E+02	-6.7372931693E+01	5.3604471152E+01	8.4692069016E+02	8.3074639880E+02	0.000E+00	0.0
	14	1	6	6	0	0	-1.2214517565E+02	-2.4620386101E+02	1.6907517081E+02	4.5798165738E+02	3.2500000000E+02	0.000E+00	0.0
	-14	1	6	6	0	0	-1.8291732076E+01	1.7883092931E+02	-1.1547069966E+02	3.8893903278E+02	3.2500000000E+02	0.000E+00	0.0
	25	2	5	5	0	0	1.4043690773E+02	6.7372931693E+01	7.6411319310E+01	2.1394052625E+02	1.2518075760E+02	0.000E+00	0.0
	-5	1	9	9	0	501	1.6363890673E+02	6.3528967183E+01	6.3010233466E+01	1.8655128890E+02	4.1800000000E+00	0.000E+00	0.0
	5	1	9	9	501	0	-2.3201999001E+01	3.8439645102E+00	1.3401085845E+01	2.7389237350E+01	4.1800000000E+00	0.000E+00	0.0
</event>
<event>
    11  -1  1.0000000E+00  1.0000000E+00  -1.0000000E+00  -1.0000000E+00
	2212	-1	0	0	0	0	0.0000000000E+00	0.0000000000E+00	6.5000000000E+03	6.5000000000E+03	9.3827000000E-01	0.000E+00	0.0
	2212	-1	0	0	0	0	0.0000000000E+00	0.0000000000E+00	-6.5000000000E+03	6.5000000000E+03	9.3827000000E-01	0.000E+00	0.0
	2212	1	0	0	0	0	0.0000000000E+00	0.0000000000E+00	5.7054637981E+03	5.7054637981E+03	9.3827000000E-01	0.000E+00	0.0
	2212	1	0	0	0	0	0.0000000000E+00	0.0000000000E+00	-6.1524287177E+03	6.1524287177E+03	9.3827000000E-01	0.000E+00	0.0
	51	2	1	2	0	0	1.3318469435E+01	7.6388145601E+01	3.2001777132E+02	1.1013881108E+03	1.0510146841E+03	0.000E+00	0.0
	1000022	2	5	5	0	0	-1.3318469435E+01	-7.6388145601E+01	4.9710119382E+02	9.8655580770E+02	8.4862844307E+02	0.000E+00	0.0
	14	1	6	6	0	0	-1.2909076539E+02	1.2785016122E+02	3.3804367948E+01	3.7386872660E+02	3.2500000000E+02	0.000E+00	0.0
	-14	1	6	6	0	0	1.1577229596E+02	-2.0423830682E+02	4.6329682587E+02	6.1268708110E+02	3.2500000000E+02	0.000E+00	0.0
	25	2	5	5	0	0	1.3318469435E+01	7.6388145601E+01	-5.0136274254E+01	1.5555167652E+02	1.2518046036E+02	0.000E+00	0.0
	-5	1	9	9	0	501	1.5172520448E+01	-3.3487315004E+01	-8.5143557020E+00	3.7968043088E+01	4.1800000000E+00	0.000E+00	0.0
	5	1	9	9	501	0	-1.8540510130E+00	1.0987546060E+02	-4.1621918552E+01	1.1758363344E+02	4.1800000000E+00	0.000E+00	0.0
</event>
<event>
    11  -1  1.0000000E+00  1.0000000E+00  -1.0000000E+00  -1.0000000E+00
	2212	-1	0	0	0	0	0.0000000000E+00	0.0000000000E+00	6.5000000000E+03	6.5000000000E+03	9.3827000000E-01	0.000E+00	0.0
	2212	-1	0	0	0	0	0.0000000000E+00	0.0000000000E+00	-6.5000000000E+03	6.5000000000E+03	9.3827000000E-01	0.000E+00	0.0
	2212	1	0	0	0	0	0.0000000000E+00	0.0000000000E+00	5.6832123153E+03	5.6832123153E+03	9.3827000000E-01	0.000E+00	0.0
	2212	1	0	0	0	0	0.0000000000E+00	0.0000000000E+00	-6.1640798204E+03	6.1640798204E+03	9.3827000000E-01	0.000E+00	0.0
	51	2	1	2	0	0	-2.0267753667E+01	1.0942693307E+02	3.8602557934E+02	1.1220083095E+03	1.0476172312E+03	0.000E+00	0.0
	1000022	2	5	5	0	0	2.0267753667E+01	-1.0942693307E+02	4.9285049776E+02	9.8478276121E+02	8.4528719268E+02	0.000E+00	0.0
	14	1	6	6	0	0	8.0059876867E+00	1.9045712828E+02	9.2110496329E+01	3.8787544017E+02	3.2500000000E+02	0.000E+00	0.0
	-14	1	6	6	0	0	1.2261765980E+01	-2.9988406136E+02	4.0074000143E+02	5.9690732104E+02	3.2500000000E+02	0.000E+00	0.0
	25	2	5	5	0	0	-2.0267753667E+01	1.0942693307E+02	-1.1982992687E+01	1.6792510316E+02	1.2518071991E+02	0.000E+00	0.0
	-5	1	9	9	0	501	6.0356863233E-01	1.2076294667E+02	-4.3333724131E+01	1.2837187243E+02	4.1800000000E+00	0.000E+00	0.0
	5	1	9	9	501	0	-2.0871322299E+01	-1.1336013600E+01	3.1350731444E+01	3.9553230726E+01	4.1800000000E+00	0.000E+00	0.0
</event>
<event>
    11  -1  1.0000000E+00  1.0000000E+00  -1.0000000E+00  -1.0000000E+00
	2212	-1	0	0	0	0	0.0000000000E+00	0.0000000000E+00	6.5000000000E+03	6.5000000000E+03	9.3827000000E-01	0.000E+00	0.0
	2212	-1	0	0	0	0	0.0000000000E+00	0.0000000000E+00	-6.5000000000E+03	6.5000000000E+03	9.3827000000E-01	0.000E+00	0.0
	2212	1	0	0	0	0	0.0000000000E+00	0.0000000000E+00	6.3039616790E+03	6.3039616790E+03	9.3827000000E-01	0.000E+00	0.0
	2212	1	0	0	0	0	0.0000000000E+00	0.0000000000E+00	-5.0773658600E+03	5.0773658600E+03	9.3827000000E-01	0.000E+00	0.0
	51	2	1	2	0	0	-1.1496252414E+02	-5.8185791455E+01	-1.2088161096E+03	1.6104041691E+03	1.0562022689E+03	0.000E+00	0.0
	1000022	2	5	5	0	0	1.1496252414E+02	5.8185791455E+01	-1.0440123582E+03	1.3625322650E+03	8.6598521970E+02	0.000E+00	0.0
	14	1	6	6	0	0	-1.5850802935E+02	2.1335752747E+02	-4.4226607913E+02	6.0981186824E+02	3.2500000000E+02	0.000E+00	0.0
	-14	1	6	6	0	0	2.7347055348E+02	-1.5517173602E+02	-6.0174627909E+02	7.5272039675E+02	3.2500000000E+02	0.000E+00	0.0
	25	2	5	5	0	0	-1.1496252414E+02	-5.8185791455E+01	-1.8258346078E+02	2.5614019600E+02	1.2517632194E+02	0.000E+00	0.0
	-5	1	9	9	0	501	1.5455889135E+01	2.0926627917E+01	-1.9363589292E+01	3.2699071167E+01	4.1800000000E+00	0.000E+00	0.0
	5	1	9	9	501	0	-1.3041841327E+02	-7.9112419371E+01	-1.6321987149E+02	2.2344112483E+02	4.1800000000E+00	0.000E+00	0.0
</event>
<event>
    11  -1  1.0000000E+00  1.0000000E+00  -1.0000000E+00  -1.0000000E+00
	2212	-1	0	0	0	0	0.0000000000E+00	0.0000000000E+00	6.5000000000E+03	6.5000000000E+03	9.3827000000E-01	0.000E+00	0.0
	2212	-1	0	0	0	0	0.0000000000E+00	0.0000000000E+00	-6.5000000000E+03	6.5000000000E+03	9.3827000000E-01	0.000E+00	0.0
	2212	1	0	0	0	0	0.0000000000E+00	0.0000000000E+00	5.9701455275E+03	5.9701455275E+03	9.3827000000E-01	0.000E+00	0.0
	2212	1	0	0	0	0	0.0000000000E+00	0.0000000000E+00	-5.9830001036E+03	5.9830001036E+03	9.3827000000E-01	0.000E+00	0.0
	51	2	1	2	0	0	9.9904698199E+01	5.9930472841E+01	4.3983442789E+00	1.0532477321E+03	1.0467754436E+03	0.000E+00	0.0
	1000022	2	5	5	0	0	-9.9904698199E+01	-5.9930472841E+01	1.9288026833E+01	8.7572922256E+02	8.6773096808E+02	0.000E+00	0.0
	14	1	6	6	0	0	1.4498500066E+02	1.7515230410E+02	-5.3275731327E+01	4.0020280308E+02	3.2500000000E+02	0.000E+00	0.0
	-14	1	6	6	0	0	-2.4488969886E+02	-2.3508277694E+02	7.2563758159E+01	4.7552641948E+02	3.2500000000E+02	0.000E+00	0.0
	25	2	5	5	0	0	9.9904698199E+01	5.9930472841E+01	-6.4334507217E+00	1.7112514626E+02	1.2517913602E+02	0.000E+00	0.0
	-5	1	9	9	0	501	1.0885471799E+02	8.3405032736E+01	1.4763718758E+01	1.3798981450E+02	4.1800000000E+00	0.000E+00	0.0
	5	1	9	9	501	0	-8.9500197906E+00	-2.3474559895E+01	-2.1197169480E+01	3.3135331754E+01	4.1800000000E+00	0.000E+00	0.0
</event>
<event>
    11  -1  1.0000000E+00  1.0000000E+00  -1.0000000E+00  -1.0000000E+00
	2212	-1	0	0	0	0	0.0000000000E+00	0.0000000000E+00	6.5000000000E+03	6.5000000000E+03	9.3827000000E-01	0.000E+00	0.0
	2212	-1	0	0	0	0	0.0000000000E+00	0.0000000000E+00	-6.5000000000E+03	6.5000000000E+03	9.3827000000E-01	0.000E+00	0.0
	2212	1	0	0	0	0	0.0000000000E+00	0.0000000000E+00	6.2552770729E+03	6.2552770729E+03	9.3827000000E-01	0.000E+00	0.0
	2212	1	0	0	0	0	0.0000000000E+00	0.0000000000E+00	-5.3493112679E+03	5.3493112679E+03	9.3827000000E-01	0.000E+00	0.0
	51	2	1	2	0	0	-1.3739121191E+02	-5.3088925167E+01	-8.8567569232E+02	1.3901495853E+03	1.0613197721E+03	0.000E+00	0.0
	1000022	2	5	5	0	0	1.3739121191E+02	5.3088925167E+01	-7.6905583575E+02	1.1585466835E+03	8.5386694528E+02	0.000E+00	0.0
	14	1	6	6	0	0	1.9499327500E+02	2.0455053397E+02	-1.8052254867E+02	4.6698681868E+02	3.2500000000E+02	0.000E+00	0.0
	-14	1	6	6	0	0	-5.7602063095E+01	-1.5146160881E+02	-5.8853328708E+02	6.9155986481E+02	3.2500000000E+02	0.000E+00	0.0
	25	2	5	5	0	0	-1.3739121191E+02	-5.3088925167E+01	-1.3690996930E+02	2.3686497566E+02	1.2516348475E+02	0.000E+00	0.0
	-5	1	9	9	0	501	-1.2090848995E+02	-8.0832181202E+00	-1.4398398088E+02	1.8823671402E+02	4.1800000000E+00	0.000E+00	0.0
	5	1	9	9	501	0	-1.6482721961E+01	-4.5005707047E+01	7.0740115748E+00	4.8628261637E+01	4.1800000000E+00	0.000E+00	0.0
</event>
<event>
    11  -1  1.0000000E+00  1.0000000E+00  -1.0000000E+00  -1.0000000E+00
	2212	-1	0	0	0	0	0.0000000000E+00	0.0000000000E+00	6.5000000000E+03	6.5000000000E+03	9.3827000000E-01	0.000E+00	0.0
	2212	-1	0	0	0	0	0.0000000000E+00	0.0000000000E+00	-6.5000000000E+03	6.5000000000E+03	9.3827000000E-01	0.000E+00	0.0
	2212	1	0	0	0	0	0.0000000000E+00	0.0000000000E+00	6.3155205557E+03	6.3155205557E+03	9.3827000000E-01	0.000E+00	0.0
	2212	1	0	0	0	0	0.0000000000E+00	0.0000000000E+00	-5.0011020610E+03	5.0011020610E+03	9.3827000000E-01	0.000E+00	0.0
	51	2	1	2	0	0	-1.0431133486E+02	3.6531187399E+01	-1.2289395421E+03	1.6212869012E+03	1.0516955051E+03	0.000E+00	0.0
	1000022	2	5	5	0	0	1.0431133486E+02	-3.6531187399E+01	-1.1877715027E+03	1.4737979073E+03	8.6548468887E+02	0.000E+00	0.0
	14	1	6	6	0	0	2.6774701957E+02	1.5868618378E+02	-5.0959238733E+02	6.7983760755E+02	3.2500000000E+02	0.000E+00	0.0
	-14	1	6	6	0	0	-1.6343568470E+02	-1.9521737118E+02	-6.7817911537E+02	7.9396029974E+02	3.2500000000E+02	0.000E+00	0.0
	25	2	5	5	0	0	-1.0431133486E+02	3.6531187399E+01	-1.2664699200E+02	2.0957947604E+02	1.2517473372E+02	0.000E+00	0.0
	-5	1	9	9	0	501	-7.2456911327E+01	2.0673803058E+01	2.5492308200E+00	7.5507490422E+01	4.1800000000E+00	0.000E+00	0.0
	5	1	9	9	501	0	-3.1854423537E+01	1.5857384341E+01	-1.2919622282E+02	1.3407198562E+02	4.1800000000E+00	0.000E+00	0.0
</event>
<event>
    11  -1  1.0000000E+00  1.0000000E+00  -1.0000000E+00  -1.0000000E+00
	2212	-1	0	0	0	0	0.0000000000E+00	0.0000000000E+00	6.5000000000E+03	6.5000000000E+03	9.3827000000E-01	0.000E+00	0.0
	2212	-1	0	0	0	0	0.0000000000E+00	0.0000000000E+00	-6.5000000000E+03	6.5000000000E+03	9.3827000000E-01	0.000E+00	0.0
	2212	1	0	0	0	0	0.0000000000E+00	0.0000000000E+00	5.3123084596E+03	5.3123084596E+03	9.3827000000E-01	0.000E+00	0.0
	2212	1	0	0	0	0	0.0000000000E+00	0.0000000000E+00	-6.2397553614E+03	6.2397553614E+03	9.3827000000E-01	0.000E+00	0.0
	51	2	1	2	0	0	-1.2997832753E+02	-1.6176623837E+02	1.1169287319E+03	1.5896395493E+03	1.1119179030E+03	0.000E+00	0.0
	1000022	2	5	5	0	0	1.2997832753E+02	1.6176623837E+02	5.3118610314E+02	9.8340812850E+02	8.0116801579E+02	0.000E+00	0.0
	14	1	6	6	0	0	2.0772305825E+01	-1.5492977311E+02	2.4298793816E+02	4.3485958811E+02	3.2500000000E+02	0.000E+00	0.0
	-14	1	6	6	0	0	1.0920602171E+02	3.1669601148E+02	2.8819816498E+02	5.4854854039E+02	3.2500000000E+02	0.000E+00	0.0
	25	2	5	5	0	0	-1.2997832753E+02	-1.6176623837E+02	3.9626079866E+02	4.6452805057E+02	1.2530366198E+02	0.000E+00	0.0
	-5	1	9	9	0	501	-4.3964092691E+01	1.3814972666E+01	8.9020399997E+01	1.0032845524E+02	4.1800000000E+00	0.000E+00	0.0
	5	1	9	9	501	0	-8.6014234843E+01	-1.7558121104E+02	3.0724039866E+02	3.6419959532E+02	4.1800000000E+00	0.000E+00	0.0
</event>
<event>
    11  -1  1.0000000E+00  1.0000000E+00  -1.0000000E+00  -1.0000000E+00
	2212	-1	0	0	0	0	0.0000000000E+00	0.0000000000E+00	6.5000000000E+03	6.5000000000E+03	9.3827000000E-01	0.000E+00	0.0
	2212	-1	0	0	0	0	0.0000000000E+00	0.0000000000E+00	-6.5000000000E+03	6.5000000000E+03	9.3827000000E-01	0.000E+00	0.0
	2212	1	0	0	0	0	0.0000000000E+00	0.0000000000E+00	5.5450470706E+03	5.5450470706E+03	9.3827000000E-01	0.000E+00	0.0
	2212	1	0	0	0	0	0.0000000000E+00	0.0000000000E+00	-6.2131613752E+03	6.2131613752E+03	9.3827000000E-01	0.000E+00	0.0
	51	2	1	2	0	0	-9.0414401757E+01	-3.6653357253E+01	5.7844059597E+02	1.1999088698E+03	1.0467423466E+03	0.000E+00	0.0
	1000022	2	5	5	0	0	9.0414401757E+01	3.6653357253E+01	6.4925939210E+02	1.0819573706E+03	8.5998590744E+02	0.000E+00	0.0
	14	1	6	6	0	0	2.9257073488E+02	-1.1012807472E+02	2.8408646190E+02	5.3296899121E+02	3.2500000000E+02	0.000E+00	0.0
	-14	1	6	6	0	0	-2.0215633313E+02	1.4678143197E+02	3.6517293020E+02	5.4898837943E+02	3.2500000000E+02	0.000E+00	0.0
	25	2	5	5	0	0	-9.0414401757E+01	-3.6653357253E+01	1.8854912442E+01	1.5983418359E+02	1.2519275490E+02	0.000E+00	0.0
	-5	1	9	9	0	501	7.1503964836E+00	2.0594245197E+01	3.8984368823E+01	4.4860946464E+01	4.1800000000E+00	0.000E+00	0.0
	5	1	9	9	501	0	-9.7564798241E+01	-5.7247602450E+01	-2.0129456381E+01	1.1497323713E+02	4.1800000000E+00	0.000E+00	0.0
</event>
<event>
    11  -1  1.0000000E+00  1.0000000E+00  -1.0000000E+00  -1.0000000E+00
	2212	-1	0	0	0	0	0.0000000000E+00	0.0000000000E+00	6.5000000000E+03	6.5000000000E+03	9.3827000000E-01	0.000E+00	0.0
	2212	-1	0	0	0	0	0.0000000000E+00	0.0000000000E+00	-6.5000000000E+03	6.5000000000E+03	9.3827000000E-01	0.000E+00	0.0
	2212	1	0	0	0	0	0.0000000000E+00	0.0000000000E+00	5.5078834808E+03	5.5078834808E+03	9.3827000000E-01	0.000E+00	0.0
	2212	1	0	0	0	0	0.0000000000E+00	0.0000000000E+00	-6.2232187903E+03	6.2232187903E+03	9.3827000000E-01	0.000E+00	0.0
	51	2	1	2	0	0	-1.4450341276E+02	-6.5064689362E+01	7.6934439778E+02	1.3097336730E+03	1.0480442937E+03	0.000E+00	0.0
	1000022	2	5	5	0	0	1.4450341276E+02	6.5064689362E+01	5.2971348880E+02	9.9460050458E+02	8.2675215960E+02	0.000E+00	0.0
	14	1	6	6	0	0	-4.2611919119E+01	1.6570916120E+02	4.7810848839E+02	6.0289968355E+02	3.2500000000E+02	0.000E+00	0.0
	-14	1	6	6	0	0	1.8711533187E+02	-1.0064447183E+02	5.1605000412E+01	3.9170082104E+02	3.2500000000E+02	0.000E+00	0.0
	25	2	5	5	0	0	-1.4450341276E+02	-6.5064689362E+01	1.8562182071E+02	2.7429722441E+02	1.2517530466E+02	0.000E+00	0.0
	-5	1	9	9	0	501	-1.3559055289E+02	-3.4103705456E+01	7.4409094013E+01	1.5843625352E+02	4.1800000000E+00	0.000E+00	0.0
	5	1	9	9	501	0	-8.9128598644E+00	-3.0960983906E+01	1.1121272670E+02	1.1586097089E+02	4.1800000000E+00	0.000E+00	0.0
</event>
<event>
    11  -1  1.0000000E+00  1.0000000E+00  -1.0000000E+00  -1.0000000E+00
	2212	-1	0	0	0	0	0.0000000000E+00	0.0000000000E+00	6.5000000000E+03	6.5000000000E+03	9.3827000000E-01	0.000E+00	0.0
	2212	-1	0	0	0	0	0.0000000000E+00	0.0000000000E+00	-6.5000000000E+03	6.5000000000E+03	9.3827000000E-01	0.000E+00	0.0
	2212	1	0	0	0	0	0.0000000000E+00	0.0000000000E+00	6.1314502251E+03	6.1314502251E+03	9.3827000000E-01	0.000E+00	0.0
	2212	1	0	0	0	0	0.0000000000E+00	0.0000000000E+00	-5.7563472282E+03	5.7563472282E+03	9.3827000000E-01	0.000E+00	0.0
	51	2	1	2	0	0	6.1268714554E+00	-4.7401387478E+01	-2.4096192201E+02	1.0754716754E+03	1.0470397541E+03	0.000E+00	0.0
	1000022	2	5	5	0	0	-6.1268714554E+00	4.7401387478E+01	-4.4576370041E+02	9.6071036686E+02	8.4969094517E+02	0.000E+00	0.0
	14	1	6	6	0	0	1.0857959844E+02	-1.2399068305E+01	-5.0046851552E+02	6.0666053203E+02	3.2500000000E+02	0.000E+00	0.0
	-14	1	6	6	0	0	-1.1470646989E+02	5.9800455783E+01	5.4704815117E+01	3.5404983483E+02	3.2500000000E+02	0.000E+00	0.0
	25	2	5	5	0	0	6.1268714554E+00	-4.7401387478E+01	7.0660703579E+01	1.5149217987E+02	1.2518991749E+02	0.000E+00	0.0
	-5	1	9	9	0	501	-5.9219323880E+01	-2.3537852250E+01	3.9983047322E+01	7.5346368741E+01	4.1800000000E+00	0.000E+00	0.0
	5	1	9	9	501	0	6.5346195335E+01	-2.3863535228E+01	3.0677656257E+01	7.6145811124E+01	4.1800000000E+00	0.000E+00	0.0
</event>
<event>
    11  -1  1.0000000E+00  1.0000000E+00  -1.0000000E+00  -1.0000000E+00
	2212	-1	0	0	0	0	0.0000000000E+00	0.0000000000E+00	6.5000000000E+03	6.5000000000E+03	9.3827000000E-01	0.000E+00	0.0
	2212	-1	0	0	0	0	0.0000000000E+00	0.0000000000E+00	-6.5000000000E+03	6.5000000000E+03	9.3827000000E-01	0.000E+00	0.0
	2212	1	0	0	0	0	0.0000000000E+00	0.0000000000E+00	6.2148326576E+03	6.2148326576E+03	9.3827000000E-01	0.000E+00	0.0
	2212	1	0	0	0	0	0.0000000000E+00	0.0000000000E+00	-5.5744062603E+03	5.5744062603E+03	9.3827000000E-01	0.000E+00	0.0
	51	2	1	2	0	0	-7.0999907374E+01	-1.5224541387E+01	-7.5247376022E+02	1.2756511909E+03	1.0275195509E+03	0.000E+00	0.0
	1000022	2	5	5	0	0	7.0999907374E+01	1.5224541387E+01	-4.2576420276E+02	9.5187202950E+02	8.4824078579E+02	0.000E+00	0.0
	14	1	6	6	0	0	2.6352239474E+02	-7.8094552206E+01	-3.5955806230E+02	5.5718023277E+02	3.2500000000E+02	0.000E+00	0.0
	-14	1	6	6	0	0	-1.9252248737E+02	9.3319093593E+01	-6.6206140456E+01	3.9469179673E+02	3.2500000000E+02	0.000E+00	0.0
	25	2	5	5	0	0	-7.0999907374E+01	-1.5224541387E+01	-2.1466219456E+02	2.5888905254E+02	1.2518350628E+02	0.000E+00	0.0
	-5	1	9	9	0	501	3.7293711493E+00	-7.7088922875E+00	1.4693410077E+01	1.7512964602E+01	4.1800000000E+00	0.000E+00	0.0
	5	1	9	9	501	0	-7.4729278524E+01	-7.5156490995E+00	-2.2935560464E+02	2.4137608794E+02	4.1800000000E+00	0.000E+00	0.0
</event>
<event>
    11  -1  1.0000000E+00  1.0000000E+00  -1.0000000E+00  -1.0000000E+00
	2212	-1	0	0	0	0	0.0000000000E+00	0.0000000000E+00	6.5000000000E+03	6.5000000000E+03	9.3827000000E-01	0.000E+00	0.0
	2212	-1	0	0	0	0	0.0000000000E+00	0.0000000000E+00	-6.5000000000E+03	6.5000000000E+03	9.3827000000E-01	0.000E+00	0.0
	2212	1	0	0	0	0	0.0000000000E+00	0.0000000000E+00	6.3164110513E+03	6.3164110513E+03	9.3827000000E-01	0.000E+00	0.0
	2212	1	0	0	0	0	0.0000000000E+00	0.0000000000E+00	-5.0391558142E+03	5.0391558142E+03	9.3827000000E-01	0.000E+00	0.0
	51	2	1	2	0	0	-1.2033137033E+02	-1.5739638904E+01	-1.1965323871E+03	1.5871976946E+03	1.0357506425E+03	0.000E+00	0.0
	1000022	2	5	5	0	0	1.2033137033E+02	1.5739638904E+01	-1.1424935667E+03	1.4242378192E+03	8.4168547605E+02	0.000E+00	0.0
	14	1	6	6	0	0	4.8010020144E+01	-2.2863487269E+02	-7.7115301011E+02	8.6883878369E+02	3.2500000000E+02	0.000E+00	0.0
	-14	1	6	6	0	0	7.2321350185E+01	2.4437451159E+02	-3.7134055662E+02	5.5539903547E+02	3.2500000000E+02	0.000E+00	0.0
	25	2	5	5	0	0	-1.2033137033E+02	-1.5739638904E+01	-1.3476167037E+02	2.2019531543E+02	1.2489152980E+02	0.000E+00	0.0
	-5	1	9	9	0	501	-4.1109530397E+01	-3.0233382896E+01	1.2133591863E+01	5.2618888075E+01	4.1800000000E+00	0.000E+00	0.0
	5	1	9	9	501	0	-7.9221839932E+01	1.4493743992E+01	-1.4689526224E+02	1.6757642735E+02	4.1800000000E+00	0.000E+00	0.0
</event>
<event>
    11  -1  1.0000000E+00  1.0000000E+00  -1.0000000E+00  -1.0000000E+00
	2212	-1	0	0	0	0	0.0000000000E+00	0.0000000000E+00	6.5000000000E+03	6.5000000000E+03	9.3827000000E-01	0.000E+00	0.0
	2212	-1	0	0	0	0	0.0000000000E+00	0.0000000000E+00	-6.5000000000E+03	6.5000000000E+03	9.3827000000E-01	0.000E+00	0.0
	2212	1	0	0	0	0	0.0000000000E+00	0.0000000000E+00	5.5657091259E+03	5.5657091259E+03	9.3827000000E-01	0.000E+00	0.0
	2212	1	0	0	0	0	0.0000000000E+00	0.0000000000E+00	-6.2018216371E+03	6.2018216371E+03	9.3827000000E-01	0.000E+00	0.0
	51	2	1	2	0	0	2.6771393159E+01	4.5154115081E+01	7.9894617727E+02	1.3249195783E+03	1.0556236513E+03	0.000E+00	0.0
	1000022	2	5	5	0	0	-2.6771393159E+01	-4.5154115081E+01	3.6408274353E+02	9.2845123495E+02	8.5247278546E+02	0.000E+00	0.0
	14	1	6	6	0	0	2.7460565497E+01	-2.8588012347E+02	1.0892468697E+02	4.4718130001E+02	3.2500000000E+02	0.000E+00	0.0
	-14	1	6	6	0	0	-5.4231958656E+01	2.4072600838E+02	2.5515805655E+02	4.8126993494E+02	3.2500000000E+02	0.000E+00	0.0
	25	2	5	5	0	0	2.6771393159E+01	4.5154115081E+01	2.7202976763E+02	3.0401800203E+02	1.2518446182E+02	0.000E+00	0.0
	-5	1	9	9	0	501	5.2353503172E+01	6.5510185570E+01	2.5160108069E+02	2.6524149357E+02	4.1800000000E+00	0.000E+00	0.0
	5	1	9	9	501	0	-2.5582110012E+01	-2.0356070488E+01	2.0428686943E+01	3.8776508464E+01	4.1800000000E+00	0.000E+00	0.0
</event>
<event>
    11  -1  1.0000000E+00  1.0000000E+00  -1.0000000E+00  -1.0000000E+00
	2212	-1	0	0	0	0	0.0000000000E+00	0.0000000000E+00	6.5000000000E+03	6.5000000000E+03	9.3827000000E-01	0.000E+00	0.0
	2212	-1	0	0	0	0	0.0000000000E+00	0.0000000000E+00	-6.5000000000E+03	6.5000000000E+03	9.3827000000E-01	0.000E+00	0.0
	2212	1	0	0	0	0	0.0000000000E+00	0.0000000000E+00	6.2710518779E+03	6.2710518779E+03	9.3827000000E-01	0.000E+00	0.0
	2212	1	0	0	0	0	0.0000000000E+00	0.0000000000E+00	-5.3153278770E+03	5.3153278770E+03	9.3827000000E-01	0.000E+00	0.0
	51	2	1	2	0	0	6.2406412188E+00	-1.2410249902E+02	-9.9748631818E+02	1.4475265670E+03	1.0415919697E+03	0.000E+00	0.0
	1000022	2	5	5	0	0	-6.2406412188E+00	1.2410249902E+02	-7.5749602164E+02	1.1482841094E+03	8.5399988131E+02	0.000E+00	0.0
	14	1	6	6	0	0	1.1934985039E+02	1.9443721033E+02	-1.1396742287E+02	4.1311474075E+02	3.2500000000E+02	0.000E+00	0.0
	-14	1	6	6	0	0	-1.2559049161E+02	-7.0334711310E+01	-6.4352859878E+02	7.3516936868E+02	3.2500000000E+02	0.000E+00	0.0
	25	2	5	5	0	0	6.2406412188E+00	-1.2410249902E+02	-1.9822797929E+02	2.6533613565E+02	1.2517410772E+02	0.000E+00	0.0
	-5	1	9	9	0	501	-1.6071136744E+00	-1.5461914714E+01	-1.4157852280E+02	1.4249071598E+02	4.1800000000E+00	0.000E+00	0.0
	5	1	9	9	501	0	7.8477548932E+00	-1.0864058430E+02	-5.6649456486E+01	1.2284541967E+02	4.1800000000E+00	0.000E+00	0.0
</event>
<event>
    11  -1  1.0000000E+00  1.0000000E+00  -1.0000000E+00  -1.0000000E+00
	2212	-1	0	0	0	0	0.0000000000E+00	0.0000000000E+00	6.5000000000E+03	6.5000000000E+03	9.3827000000E-01	0.000E+00	0.0
	2212	-1	0	0	0	0	0.0000000000E+00	0.0000000000E+00	-6.5000000000E+03	6.5000000000E+03	9.3827000000E-01	0.000E+00	0.0
	2212	1	0	0	0	0	0.0000000000E+00	0.0000000000E+00	5.8649154990E+03	5.8649154990E+03	9.3827000000E-01	0.000E+00	0.0
	2212	1	0	0	0	0	0.0000000000E+00	0.0000000000E+00	-6.0723117679E+03	6.0723117679E+03	9.3827000000E-01	0.000E+00	0.0
	51	2	1	2	0	0	9.6018102345E+01	-3.7325999605E+00	3.0823701116E+02	1.0911994013E+03	1.0423399973E+03	0.000E+00	0.0
	1000022	2	5	5	0	0	-9.6018102345E+01	3.7325999605E+00	7.1458517601E+01	8.5449642592E+02	8.4606407198E+02	0.000E+00	0.0
	14	1	6	6	0	0	-3.1447038641E+02	5.3107689654E+01	1.3279303511E+01	4.5553637673E+02	3.2500000000E+02	0.000E+00	0.0
	-14	1	6	6	0	0	2.1845228406E+02	-4.9375089694E+01	5.8179214090E+01	3.9896004919E+02	3.2500000000E+02	0.000E+00	0.0
	25	2	5	5	0	0	9.6018102345E+01	-3.7325999605E+00	1.3593775124E+02	2.0827630722E+02	1.2516604833E+02	0.000E+00	0.0
	-5	1	9	9	0	501	1.2445520511E+02	1.9536978499E+00	8.9486864706E+01	1.5335672913E+02	4.1800000000E+00	0.000E+00	0.0
	5	1	9	9	501	0	-2.8437102770E+01	-5.6862978105E+00	4.6450886538E+01	5.4919578084E+01	4.1800000000E+00	0.000E+00	0.0
</event>
<event>
    11  -1  1.0000000E+00  1.0000000E+00  -1.0000000E+00  -1.0000000E+00
	2212	-1	0	0	0	0	0.0000000000E+00	0.0000000000E+00	6.5000000000E+03	6.5000000000E+03	9.3827000000E-01	0.000E+00	0.0
	2212	-1	0	0	0	0	0.0000000000E+00	0.0000000000E+00	-6.5000000000E+03	6.5000000000E+03	9.3827000000E-01	0.000E+00	0.0
	2212	1	0	0	0	0	0.0000000000E+00	0.0000000000E+00	5.1408255638E+03	5.1408255638E+03	9.3827000000E-01	0.000E+00	0.0
	2212	1	0	0	0	0	0.0000000000E+00	0.0000000000E+00	-6.2965642156E+03	6.2965642156E+03	9.3827000000E-01	0.000E+00	0.0
	51	2	1	2	0	0	1.2214076494E+01	-7.2829541233E+00	1.3081039739E+03	1.6784984665E+03	1.0516743176E+03	0.000E+00	0.0
	1000022	2	5	5	0	0	-1.2214076494E+01	7.2829541233E+00	8.3252657451E+02	1.2157295395E+03	8.8583045268E+02	0.000E+00	0.0
	14	1	6	6	0	0	2.4861059362E+02	-2.2636460885E+01	6.2969249784E+02	7.5130371918E+02	3.2500000000E+02	0.000E+00	0.0
	-14	1	6	6	0	0	-2.6082467011E+02	2.9919415008E+01	2.0283407667E+02	4.6442582033E+02	3.2500000000E+02	0.000E+00	0.0
	25	2	5	5	0	0	1.2214076494E+01	-7.2829541233E+00	3.2321207724E+02	3.4688068109E+02	1.2513167048E+02	0.000E+00	0.0
	-5	1	9	9	0	501	-3.0785908136E+01	-3.5843120636E+01	2.6394790982E+02	2.6817619755E+02	4.1800000000E+00	0.000E+00	0.0
	5	1	9	9	501	0	4.2999984630E+01	2.8560166513E+01	5.9264167419E+01	7.8704483540E+01	4.1800000000E+00	0.000E+00	0.0
</event>
<event>
    11  -1  1.0000000E+00  1.0000000E+00  -1.0000000E+00  -1.0000000E+00
	2212	-1	0	0	0	0	0.0000000000E+00	0.0000000000E+00	6.5000000000E+03	6.5000000000E+03	9.3827000000E-01	0.000E+00	0.0
	2212	-1	0	0	0	0	0.0000000000E+00	0.0000000000E+00	-6.5000000000E+03	6.5000000000E+03	9.3827000000E-01	0.000E+00	0.0
	2212	1	0	0	0	0	0.0000000000E+00	0.0000000000E+00	6.3343616242E+03	6.3343616242E+03	9.3827000000E-01	0.000E+00	0.0
	2212	1	0	0	0	0	0.0000000000E+00	0.0000000000E+00	-4.8522793169E+03	4.8522793169E+03	9.3827000000E-01	0.000E+00	0.0
	51	2	1	2	0	0	3.9279749600E+01	-1.0760546250E+02	-1.6292667359E+03	1.9389004724E+03	1.0448459748E+03	0.000E+00	0.0
	1000022	2	5	5	0	0	-3.9279749600E+01	1.0760546250E+02	-1.0832758383E+03	1.3799527554E+03	8.4714888371E+02	0.000E+00	0.0
	14	1	6	6	0	0	1.3336226143E+02	-1.7086685576E+02	-4.4212516298E+02	5.8998358868E+02	3.2500000000E+02	0.000E+00	0.0
	-14	1	6	6	0	0	-1.7264201103E+02	2.7847231826E+02	-6.4115067529E+02	7.8996916676E+02	3.2500000000E+02	0.000E+00	0.0
	25	2	5	5	0	0	3.9279749600E+01	-1.0760546250E+02	-3.9880646907E+02	4.3340630352E+02	1.2519021474E+02	0.000E+00	0.0
	-5	1	9	9	0	501	-9.6668997270E+00	-7.9331352884E+01	-3.4866225689E+02	3.5772860423E+02	4.1800000000E+00	0.000E+00	0.0
	5	1	9	9	501	0	4.8946649327E+01	-2.8274109614E+01	-5.0144212181E+01	7.5677699292E+01	4.1800000000E+00	0.000E+00	0.0
</event>
<event>
    11  -1  1.0000000E+00  1.0000000E+00  -1.0000000E+00  -1.0000000E+00
	2212	-1	0	0	0	0	0.0000000000E+00	0.0000000000E+00	6.5000000000E+03	6.5000000000E+03	9.3827000000E-01	0.000E+00	0.0
	2212	-1	0	0	0	0	0.0000000000E+00	0.0000000000E+00	-6.5000000000E+03	6.5000000000E+03	9.3827000000E-01	0.000E+00	0.0
	2212	1	0	0	0	0	0.0000000000E+00	0.0000000000E+00	6.1526288528E+03	6.1526288528E+03	9.3827000000E-01	0.000E+00	0.0
	2212	1	0	0	0	0	0.0000000000E+00	0.0000000000E+00	-5.7684210081E+03	5.7684210081E+03	9.3827000000E-01	0.000E+00	0.0
	51	2	1	2	0	0	1.8906829058E+01	8.2202135813E+01	-3.9101592030E+02	1.0846777605E+03	1.0082250417E+03	0.000E+00	0.0
	1000022	2	5	5	0	0	-1.8906829058E+01	-8.2202135813E+01	-3.2119846585E+02	9.1539543317E+02	8.5303322637E+02	0.000E+00	0.0
	14	1	6	6	0	0	-1.1674605658E+02	2.0488855570E+02	-2.2600782843E+02	4.6077489134E+02	3.2500000000E+02	0.000E+00	0.0
	-14	1	6	6	0	0	9.7839227522E+01	-2.8709069151E+02	-9.5190637424E+01	4.5462054182E+02	3.2500000000E+02	0.000E+00	0.0
	25	2	5	5	0	0	1.8906829058E+01	8.2202135813E+01	-6.3009378883E+01	1.6355470598E+02	1.2516109900E+02	0.000E+00	0.0
	-5	1	9	9	0	501	-1.8928759111E+01	-2.7615646118E+01	-2.2116882884E+01	4.0342914378E+01	4.1800000000E+00	0.000E+00	0.0
	5	1	9	9	501	0	3.7835588169E+01	1.0981778193E+02	-4.0892495999E+01	1.2321179160E+02	4.1800000000E+00	0.000E+00	0.0
</event>
<event>
    11  -1  1.0000000E+00  1.0000000E+00  -1.0000000E+00  -1.0000000E+00
	2212	-1	0	0	0	0	0.0000000000E+00	0.0000000000E+00	6.5000000000E+03	6.5000000000E+03	9.3827000000E-01	0.000E+00	0.0
	2212	-1	0	0	0	0	0.0000000000E+00	0.0000000000E+00	-6.5000000000E+03	6.5000000000E+03	9.3827000000E-01	0.000E+00	0.0
	2212	1	0	0	0	0	0.0000000000E+00	0.0000000000E+00	6.1991432965E+03	6.1991432965E+03	9.3827000000E-01	0.000E+00	0.0
	2212	1	0	0	0	0	0.0000000000E+00	0.0000000000E+00	-5.5656589926E+03	5.5656589926E+03	9.3827000000E-01	0.000E+00	0.0
	51	2	1	2	0	0	-6.9448570920E+01	-7.0761190262E+01	-5.0568297690E+02	1.1789641830E+03	1.0603824883E+03	0.000E+00	0.0
	1000022	2	5	5	0	0	6.9448570920E+01	7.0761190262E+01	-6.5010706958E+02	1.0746500119E+03	8.4994305468E+02	0.000E+00	0.0
	14	1	6	6	0	0	-2.2528625956E+02	-1.9487563512E+01	-2.1661898365E+02	4.5131191869E+02	3.2500000000E+02	0.000E+00	0.0
	-14	1	6	6	0	0	2.9473483048E+02	9.0248753774E+01	-4.3348808593E+02	6.2333809325E+02	3.2500000000E+02	0.000E+00	0.0
	25	2	5	5	0	0	-6.9448570920E+01	-7.0761190262E+01	1.6622765627E+01	1.6054769892E+02	1.2517586525E+02	0.000E+00	0.0
	-5	1	9	9	0	501	-5.4143738202E+01	-3.8959268050E+00	-4.3148461190E+01	6.9469307865E+01	4.1800000000E+00	0.000E+00	0.0
	5	1	9	9	501	0	-1.5304832718E+01	-6.6865263457E+01	5.9771226818E+01	9.1078391054E+01	4.1800000000E+00	0.000E+00	0.0
</event>
<event>
    11  -1  1.0000000E+00  1.0000000E+00  -1.0000000E+00  -1.0000000E+00
	2212	-1	0	0	0	0	0.0000000000E+00	0.0000000000E+00	6.5000000000E+03	6.5000000000E+03	9.3827000000E-01	0.000E+00	0.0
	2212	-1	0	0	0	0	0.0000000000E+00	0.0000000000E+00	-6.5000000000E+03	6.5000000000E+03	9.3827000000E-01	0.000E+00	0.0
	2212	1	0	0	0	0	0.0000000000E+00	0.0000000000E+00	6.1840187777E+03	6.1840187777E+03	9.3827000000E-01	0.000E+00	0.0
	2212	1	0	0	0	0	0.0000000000E+00	0.0000000000E+00	-5.6178271640E+03	5.6178271640E+03	9.3827000000E-01	0.000E+00	0.0
	51	2	1	2	0	0	1.2524814892E+02	6.3075547235E+01	-6.0939794427E+02	1.2272048248E+03	1.0559357007E+03	0.000E+00	0.0
	1000022	2	5	5	0	0	-1.2524814892E+02	-6.3075547235E+01	-4.2585925325E+02	9.6356872719E+02	8.5290267028E+02	0.000E+00	0.0
	14	1	6	6	0	0	7.4382284842E+01	1.8904353477E+02	-3.0725902589E+02	4.9122631376E+02	3.2500000000E+02	0.000E+00	0.0
	-14	1	6	6	0	0	-1.9963043377E+02	-2.5211908201E+02	-1.1860022736E+02	4.7234241343E+02	3.2500000000E+02	0.000E+00	0.0
	25	2	5	5	0	0	1.2524814892E+02	6.3075547235E+01	-1.4033236042E+02	2.3458533109E+02	1.2518579278E+02	0.000E+00	0.0
	-5	1	9	9	0	501	1.4623756373E+02	4.0181001435E+01	-9.3429179112E+01	1.7817525594E+02	4.1800000000E+00	0.000E+00	0.0
	5	1	9	9	501	0	-2.0989414804E+01	2.2894545800E+01	-4.6903181312E+01	5.6410075150E+01	4.1800000000E+00	0.000E+00	0.0
</event>
<event>
    11  -1  1.0000000E+00  1.0000000E+00  -1.0000000E+00  -1.0000000E+00
	2212	-1	0	0	0	0	0.0000000000E+00	0.0000000000E+00	6.5000000000E+03	6.5000000000E+03	9.3827000000E-01	0.000E+00	0.0
	2212	-1	0	0	0	0	0.0000000000E+00	0.0000000000E+00	-6.5000000000E+03	6.5000000000E+03	9.3827000000E-01	0.000E+00	0.0
	2212	1	0	0	0	0	0.0000000000E+00	0.0000000000E+00	5.3079973702E+03	5.3079973702E+03	9.3827000000E-01	0.000E+00	0.0
	2212	1	0	0	0	0	0.0000000000E+00	0.0000000000E+00	-6.2626570706E+03	6.2626570706E+03	9.3827000000E-01	0.000E+00	0.0
	51	2	1	2	0	0	-1.4447188325E+01	-1.6461935722E+02	1.0211945540E+03	1.4838464056E+03	1.0637920775E+03	0.000E+00	0.0
	1000022	2	5	5	0	0	1.4447188325E+01	1.6461935722E+02	7.1069830654E+02	1.1091962967E+03	8.3541372251E+02	0.000E+00	0.0
	14	1	6	6	0	0	-9.5660643134E+01	3.0457169047E+02	5.2364125998E+02	6.9407495448E+02	3.2500000000E+02	0.000E+00	0.0
	-14	1	6	6	0	0	1.1010783146E+02	-1.3995233325E+02	1.8705704656E+02	4.1512134226E+02	3.2500000000E+02	0.000E+00	0.0
	25	2	5	5	0	0	-1.4447188325E+01	-1.6461935722E+02	2.4396139385E+02	3.2014926252E+02	1.2518040812E+02	0.000E+00	0.0
	-5	1	9	9	0	501	-6.4558530962E+01	-1.2773737396E+02	1.8832987635E+02	2.3658033593E+02	4.1800000000E+00	0.000E+00	0.0
	5	1	9	9	501	0	5.0111342637E+01	-3.6881983268E+01	5.5631517508E+01	8.3568926587E+01	4.1800000000E+00	0.000E+00	0.0
</event>
<event>
    11  -1  1.0000000E+00  1.0000000E+00  -1.0000000E+00  -1.0000000E+00
	2212	-1	0	0	0	0	0.0000000000E+00	0.0000000000E+00	6.5000000000E+03	6.5000000000E+03	9.3827000000E-01	0.000E+00	0.0
	2212	-1	0	0	0	0	0.0000000000E+00	0.0000000000E+00	-6.5000000000E+03	6.5000000000E+03	9.3827000000E-01	0.000E+00	0.0
	2212	1	0	0	0	0	0.0000000000E+00	0.0000000000E+00	6.0288611004E+03	6.0288611004E+03	9.3827000000E-01	0.000E+00	0.0
	2212	1	0	0	0	0	0.0000000000E+00	0.0000000000E+00	-5.9157945463E+03	5.9157945463E+03	9.3827000000E-01	0.000E+00	0.0
	51	2	1	2	0	0	-7.4071763969E+01	2.0273113809E+01	-2.3253540973E+02	1.0774683292E+03	1.0492700597E+03	0.000E+00	0.0
	1000022	2	5	5	0	0	7.4071763969E+01	-2.0273113809E+01	2.5678043545E+01	8.5330381754E+02	8.4945301091E+02	0.000E+00	0.0
	14	1	6	6	0	0	1.0423024520E+02	-1.9177081342E+01	2.7810801556E+02	4.4068216754E+02	3.2500000000E+02	0.000E+00	0.0
	-14	1	6	6	0	0	-3.0158481233E+01	-1.0960324670E+00	-2.5242997202E+02	4.1262165000E+02	3.2500000000E+02	0.000E+00	0.0
	25	2	5	5	0	0	-7.4071763969E+01	2.0273113809E+01	-1.3874459762E+02	2.0204053569E+02	1.2519061201E+02	0.000E+00	0.0
	-5	1	9	9	0	501	-6.9861913510E+01	6.7800187659E+01	-7.8840313852E+01	1.2534280950E+02	4.1800000000E+00	0.000E+00	0.0
	5	1	9	9	501	0	-4.2098504589E+00	-4.7527073850E+01	-5.9904283763E+01	7.6697726190E+01	4.1800000000E+00	0.000E+00	0.0
</event>
<event>
    11  -1  1.0000000E+00  1.0000000E+00  -1.0000000E+00  -1.0000000E+00
	2212	-1	0	0	0	0	0.0000000000E+00	0.0000000000E+00	6.5000000000E+03	6.5000000000E+03	9.3827000000E-01	0.000E+00	0.0
	2212	-1	0	0	0	0	0.0000000000E+00	0.0000000000E+00	-6.5000000000E+03	6.5000000000E+03	9.3827000000E-01	0.000E+00	0.0
	2212	1	0	0	0	0	0.0000000000E+00	0.0000000000E+00	6.2551568248E+03	6.2551568248E+03	9.3827000000E-01	0.000E+00	0.0
	2212	1	0	0	0	0	0.0000000000E+00	0.0000000000E+00	-5.3917635777E+03	5.3917635777E+03	9.3827000000E-01	0.000E+00	0.0
	51	2	1	2	0	0	-2.3633901939E+02	-4.4807881500E+03	-5.0695363273E+03	6.8497367576E+03	1.0418140420E+03	0.000E+00	0.0
	1000022	2	5	5	0	0	2.3633901939E+02	4.4807881500E+03	-3.4800131295E+03	6.5488171188E+03	3.2623911012E+03	0.000E+00	0.0
	14	1	6	6	0	0	6.8624487908E+02	3.7445647689E+03	-3.9656170722E+03	5.5067632149E+03	3.2500000000E+02	0.000E+00	0.0
	-14	1	6	6	0	0	-4.4990585969E+02	7.3622338114E+02	4.8560394264E+02	1.0420539039E+03	3.2500000000E+02	0.000E+00	0.0
	25	2	5	5	0	0	-2.3633901939E+02	-4.4807881500E+03	-4.9739507810E+03	6.6999384440E+03	1.2518068469E+02	0.000E+00	0.0
	-5	1	9	9	0	501	-1.7860685649E+02	-3.3342967805E+03	-3.7816845740E+03	5.0448578889E+03	4.1799999998E+00	0.000E+00	0.0
	5	1	9	9	501	0	-5.7732162905E+01	-1.1464913695E+03	-1.1922662070E+03	1.6550805551E+03	4.1800000000E+00	0.000E+00	0.0
</event>
<event>
    11  -1  1.0000000E+00  1.0000000E+00  -1.0000000E+00  -1.0000000E+00
	2212	-1	0	0	0	0	0.0000000000E+00	0.0000000000E+00	6.5000000000E+03	6.5000000000E+03	9.3827000000E-01	0.000E+00	0.0
	2212	-1	0	0	0	0	0.0000000000E+00	0.0000000000E+00	-6.5000000000E+03	6.5000000000E+03	9.3827000000E-01	0.000E+00	0.0
	2212	1	0	0	0	0	0.0000000000E+00	0.0000000000E+00	4.9819722324E+03	4.9819722324E+03	9.3827000000E-01	0.000E+00	0.0
	2212	1	0	0	0	0	0.0000000000E+00	0.0000000000E+00	-6.3134744315E+03	6.3134744315E+03	9.3827000000E-01	0.000E+00	0.0
	51	2	1	2	0	0	3.3038081302E+01	1.4936110157E+02	1.3892802879E+03	1.7567310384E+03	1.0642386806E+03	0.000E+00	0.0
	1000022	2	5	5	0	0	-3.3038081302E+01	-1.4936110157E+02	1.0377133878E+03	1.3502410487E+03	8.5023617945E+02	0.000E+00	0.0
	14	1	6	6	0	0	-6.3631348216E+01	1.3757908142E+02	2.1056810595E+02	4.1586161083E+02	3.2500000000E+02	0.000E+00	0.0
	-14	1	6	6	0	0	3.0593266914E+01	-2.8694018299E+02	8.2714528182E+02	9.3437943783E+02	3.2500000000E+02	0.000E+00	0.0
	25	2	5	5	0	0	3.3038081302E+01	1.4936110157E+02	2.9378881140E+02	3.5431228745E+02	1.2579776568E+02	0.000E+00	0.0
	-5	1	9	9	0	501	5.6420969848E+01	1.1956799715E+02	2.8643859293E+02	3.1550653195E+02	4.1800000000E+00	0.000E+00	0.0
	5	1	9	9	501	0	-2.3382888547E+01	2.9793104427E+01	7.3502184673E+00	3.8805755497E+01	4.1800000000E+00	0.000E+00	0.0
</event>
<event>
    11  -1  1.0000000E+00  1.0000000E+00  -1.0000000E+00  -1.0000000E+00
	2212	-1	0	0	0	0	0.0000000000E+00	0.0000000000E+00	6.5000000000E+03	6.5000000000E+03	9.3827000000E-01	0.000E+00	0.0
	2212	-1	0	0	0	0	0.0000000000E+00	0.0000000000E+00	-6.5000000000E+03	6.5000000000E+03	9.3827000000E-01	0.000E+00	0.0
	2212	1	0	0	0	0	0.0000000000E+00	0.0000000000E+00	6.3010001665E+03	6.3010001665E+03	9.3827000000E-01	0.000E+00	0.0
	2212	1	0	0	0	0	0.0000000000E+00	0.0000000000E+00	-5.0958888417E+03	5.0958888417E+03	9.3827000000E-01	0.000E+00	0.0
	51	2	1	2	0	0	-1.6313064311E+01	-1.2409976643E+02	-1.3213163955E+03	1.6968251035E+03	1.0571998614E+03	0.000E+00	0.0
	1000022	2	5	5	0	0	1.6313064311E+01	1.2409976643E+02	-8.8332363982E+02	1.2359186197E+03	8.5531708374E+02	0.000E+00	0.0
	14	1	6	6	0	0	4.4021251478E+01	2.4918597946E+02	-7.6183801958E+02	8.6605640176E+02	3.2500000000E+02	0.000E+00	0.0
	-14	1	6	6	0	0	-2.7708187167E+01	-1.2508621304E+02	-1.2148562023E+02	3.6986221793E+02	3.2500000000E+02	0.000E+00	0.0
	25	2	5	5	0	0	-1.6313064311E+01	-1.2409976643E+02	-3.2178768497E+02	3.6719237211E+02	1.2496421825E+02	0.000E+00	0.0
	-5	1	9	9	0	501	3.7772274426E+01	-9.3122033162E+01	-2.6233467159E+02	2.8095446267E+02	4.1800000000E+00	0.000E+00	0.0
	5	1	9	9	501	0	-5.4085338737E+01	-3.0977733266E+01	-5.9453013378E+01	8.6237909438E+01	4.1800000000E+00	0.000E+00	0.0
</event>
<event>
    11  -1  1.0000000E+00  1.0000000E+00  -1.0000000E+00  -1.0000000E+00
	2212	-1	0	0	0	0	0.0000000000E+00	0.0000000000E+00	6.5000000000E+03	6.5000000000E+03	9.3827000000E-01	0.000E+00	0.0
	2212	-1	0	0	0	0	0.0000000000E+00	0.0000000000E+00	-6.5000000000E+03	6.5000000000E+03	9.3827000000E-01	0.000E+00	0.0
	2212	1	0	0	0	0	0.0000000000E+00	0.0000000000E+00	4.9958878521E+03	4.9958878521E+03	9.3827000000E-01	0.000E+00	0.0
	2212	1	0	0	0	0	0.0000000000E+00	0.0000000000E+00	-6.3172083858E+03	6.3172083858E+03	9.3827000000E-01	0.000E+00	0.0
	51	2	1	2	0	0	7.9837289713E+01	2.3168657741E+01	1.5140520187E+03	1.8436433073E+03	1.0486926860E+03	0.000E+00	0.0
	1000022	2	5	5	0	0	-7.9837289713E+01	-2.3168657741E+01	9.0375169610E+02	1.2431188207E+03	8.4950956123E+02	0.000E+00	0.0
	14	1	6	6	0	0	2.5025703723E+01	-6.0461937072E+01	6.6492723791E+01	3.3812455397E+02	3.2500000000E+02	0.000E+00	0.0
	-14	1	6	6	0	0	-1.0486299344E+02	3.7293279331E+01	8.3725897231E+02	9.0499426672E+02	3.2500000000E+02	0.000E+00	0.0
	25	2	5	5	0	0	7.9837289713E+01	2.3168657741E+01	4.1756883765E+02	4.4378494142E+02	1.2518210946E+02	0.000E+00	0.0
	-5	1	9	9	0	501	5.9478616006E+01	-4.7873815745E+00	6.0703065551E+01	8.5222997786E+01	4.1800000000E+00	0.000E+00	0.0
	5	1	9	9	501	0	2.0358673706E+01	2.7956039316E+01	3.5686577210E+02	3.5856194364E+02	4.1800000000E+00	0.000E+00	0.0
</event>
<event>
    11  -1  1.0000000E+00  1.0000000E+00  -1.0000000E+00  -1.0000000E+00
	2212	-1	0	0	0	0	0.0000000000E+00	0.0000000000E+00	6.5000000000E+03	6.5000000000E+03	9.3827000000E-01	0.000E+00	0.0
	2212	-1	0	0	0	0	0.0000000000E+00	0.0000000000E+00	-6.5000000000E+03	6.5000000000E+03	9.3827000000E-01	0.000E+00	0.0
	2212	1	0	0	0	0	0.0000000000E+00	0.0000000000E+00	5.3582349634E+03	5.3582349634E+03	9.3827000000E-01	0.000E+00	0.0
	2212	1	0	0	0	0	0.0000000000E+00	0.0000000000E+00	-6.2553214050E+03	6.2553214050E+03	9.3827000000E-01	0.000E+00	0.0
	51	2	1	2	0	0	-7.3687965480E+01	5.5103280042E-01	7.6212583998E+02	1.3052692733E+03	1.0571006859E+03	0.000E+00	0.0
	1000022	2	5	5	0	0	7.3687965480E+01	-5.5103280042E-01	8.8506895991E+02	1.2404639299E+03	8.6601009094E+02	0.000E+00	0.0
	14	1	6	6	0	0	2.8523838643E+02	-1.2305384746E+02	5.7029806052E+02	7.2620111835E+02	3.2500000000E+02	0.000E+00	0.0
	-14	1	6	6	0	0	-2.1155042095E+02	1.2250281466E+02	3.1477089939E+02	5.1426281152E+02	3.2500000000E+02	0.000E+00	0.0
	25	2	5	5	0	0	-7.3687965480E+01	5.5103280042E-01	1.2017481607E+01	1.4597970173E+02	1.2544095647E+02	0.000E+00	0.0
	-5	1	9	9	0	501	-1.8127571242E+01	5.8081699808E+01	2.2918862876E+01	6.5152431783E+01	4.1800000000E+00	0.000E+00	0.0
	5	1	9	9	501	0	-5.5560394237E+01	-5.7530667007E+01	-1.0901381268E+01	8.0827269951E+01	4.1800000000E+00	0.000E+00	0.0
</event>
<event>
    11  -1  1.0000000E+00  1.0000000E+00  -1.0000000E+00  -1.0000000E+00
	2212	-1	0	0	0	0	0.0000000000E+00	0.0000000000E+00	6.5000000000E+03	6.5000000000E+03	9.3827000000E-01	0.000E+00	0.0
	2212	-1	0	0	0	0	0.0000000000E+00	0.0000000000E+00	-6.5000000000E+03	6.5000000000E+03	9.3827000000E-01	0.000E+00	0.0
	2212	1	0	0	0	0	0.0000000000E+00	0.0000000000E+00	5.1143515942E+03	5.1143515942E+03	9.3827000000E-01	0.000E+00	0.0
	2212	1	0	0	0	0	0.0000000000E+00	0.0000000000E+00	-6.2934108016E+03	6.2934108016E+03	9.3827000000E-01	0.000E+00	0.0
	51	2	1	2	0	0	-1.0276055494E+02	1.1433812058E+02	1.2591250494E+03	1.6595387314E+03	1.0700654063E+03	0.000E+00	0.0
	1000022	2	5	5	0	0	1.0276055494E+02	-1.1433812058E+02	8.8813716333E+02	1.2401898146E+03	8.5185105375E+02	0.000E+00	0.0
	14	1	6	6	0	0	-5.2470710394E+01	-1.6019843297E+02	1.1124799990E+02	3.8264582953E+02	3.2500000000E+02	0.000E+00	0.0
	-14	1	6	6	0	0	1.5523126533E+02	4.5860312392E+01	7.7688916344E+02	8.5754398503E+02	3.2500000000E+02	0.000E+00	0.0
	25	2	5	5	0	0	-1.0276055494E+02	1.1433812058E+02	2.9092204411E+02	3.5204778967E+02	1.2517616784E+02	0.000E+00	0.0
	-5	1	9	9	0	501	-4.7430833028E+01	1.3006413725E+02	1.8099296995E+02	2.2790851518E+02	4.1800000000E+00	0.000E+00	0.0
	5	1	9	9	501	0	-5.5329721910E+01	-1.5726016666E+01	1.0992907415E+02	1.2413927449E+02	4.1800000000E+00	0.000E+00	0.0
</event>
<event>
    11  -1  1.0000000E+00  1.0000000E+00  -1.0000000E+00  -1.0000000E+00
	2212	-1	0	0	0	0	0.0000000000E+00	0.0000000000E+00	6.5000000000E+03	6.5000000000E+03	9.3827000000E-01	0.000E+00	0.0
	2212	-1	0	0	0	0	0.0000000000E+00	0.0000000000E+00	-6.5000000000E+03	6.5000000000E+03	9.3827000000E-01	0.000E+00	0.0
	2212	1	0	0	0	0	0.0000000000E+00	0.0000000000E+00	5.3222012377E+03	5.3222012377E+03	9.3827000000E-01	0.000E+00	0.0
	2212	1	0	0	0	0	0.0000000000E+00	0.0000000000E+00	-6.2736818051E+03	6.2736818051E+03	9.3827000000E-01	0.000E+00	0.0
	51	2	1	2	0	0	-4.2996274614E+01	-9.0807980647E+00	7.6429074938E+02	1.2854184725E+03	1.0325837300E+03	0.000E+00	0.0
	1000022	2	5	5	0	0	4.2996274614E+01	9.0807980647E+00	9.6766690046E+02	1.2704625287E+03	8.2204906545E+02	0.000E+00	0.0
	14	1	6	6	0	0	-1.1937703974E+02	-1.6521627705E+01	7.9524643433E+02	8.6750546576E+02	3.2500000000E+02	0.000E+00	0.0
	-14	1	6	6	0	0	1.6237331436E+02	2.5602425770E+01	1.7242046613E+02	4.0295706292E+02	3.2500000000E+02	0.000E+00	0.0
	25	2	5	5	0	0	-4.2996274614E+01	-9.0807980647E+00	-1.6186333003E+01	1.3365442856E+02	1.2518134195E+02	0.000E+00	0.0
	-5	1	9	9	0	501	-1.7757592524E+01	5.4497001231E+01	1.3396814639E+01	5.9010187916E+01	4.1800000000E+00	0.000E+00	0.0
	5	1	9	9	501	0	-2.5238682090E+01	-6.3577799295E+01	-2.9583147643E+01	7.4644240644E+01	4.1800000000E+00	0.000E+00	0.0
</event>
<event>
    11  -1  1.0000000E+00  1.0000000E+00  -1.0000000E+00  -1.0000000E+00
	2212	-1	0	0	0	0	0.0000000000E+00	0.0000000000E+00	6.5000000000E+03	6.5000000000E+03	9.3827000000E-01	0.000E+00	0.0
	2212	-1	0	0	0	0	0.0000000000E+00	0.0000000000E+00	-6.5000000000E+03	6.5000000000E+03	9.3827000000E-01	0.000E+00	0.0
	2212	1	0	0	0	0	0.0000000000E+00	0.0000000000E+00	5.9009876808E+03	5.9009876808E+03	9.3827000000E-01	0.000E+00	0.0
	2212	1	0	0	0	0	0.0000000000E+00	0.0000000000E+00	-6.0404126605E+03	6.0404126605E+03	9.3827000000E-01	0.000E+00	0.0
	51	2	1	2	0	0	7.8977289285E+01	-1.1031328473E+02	1.0614750185E+02	1.0634226054E+03	1.0493778693E+03	0.000E+00	0.0
	1000022	2	5	5	0	0	-7.8977289285E+01	1.1031328473E+02	1.4900427776E+02	8.7384564761E+02	8.5029260143E+02	0.000E+00	0.0
	14	1	6	6	0	0	-2.7677868311E+02	-1.0018563350E+01	2.0007807709E+02	4.7155386539E+02	3.2500000000E+02	0.000E+00	0.0
	-14	1	6	6	0	0	1.9780139382E+02	1.2033184808E+02	-5.1073799329E+01	4.0229178222E+02	3.2500000000E+02	0.000E+00	0.0
	25	2	5	5	0	0	7.8977289285E+01	-1.1031328473E+02	-9.5792980753E+00	1.8475401114E+02	1.2504338715E+02	0.000E+00	0.0
	-5	1	9	9	0	501	5.7490525108E+01	-1.0936019799E+02	-5.4248452344E+01	1.3500066801E+02	4.1800000000E+00	0.000E+00	0.0
	5	1	9	9	501	0	2.1486764177E+01	-9.5308674002E-01	4.4669154269E+01	4.9753343126E+01	4.1800000000E+00	0.000E+00	0.0
</event>
<event>
    11  -1  1.0000000E+00  1.0000000E+00  -1.0000000E+00  -1.0000000E+00
	2212	-1	0	0	0	0	0.0000000000E+00	0.0000000000E+00	6.5000000000E+03	6.5000000000E+03	9.3827000000E-01	0.000E+00	0.0
	2212	-1	0	0	0	0	0.0000000000E+00	0.0000000000E+00	-6.5000000000E+03	6.5000000000E+03	9.3827000000E-01	0.000E+00	0.0
	2212	1	0	0	0	0	0.0000000000E+00	0.0000000000E+00	5.4316044832E+03	5.4316044832E+03	9.3827000000E-01	0.000E+00	0.0
	2212	1	0	0	0	0	0.0000000000E+00	0.0000000000E+00	-6.2389286543E+03	6.2389286543E+03	9.3827000000E-01	0.000E+00	0.0
	51	2	1	2	0	0	-1.8181382657E+01	1.7403268123E+02	8.7734671782E+02	1.3842200046E+03	1.0562716607E+03	0.000E+00	0.0
	1000022	2	5	5	0	0	1.8181382657E+01	-1.7403268123E+02	5.8086719470E+02	1.0171042026E+03	8.1638001213E+02	0.000E+00	0.0
	14	1	6	6	0	0	2.2543712412E+02	-7.3113543652E+01	4.3582610670E+02	5.9307409527E+02	3.2500000000E+02	0.000E+00	0.0
	-14	1	6	6	0	0	-2.0725574146E+02	-1.0091913758E+02	1.4504108800E+02	4.2403010731E+02	3.2500000000E+02	0.000E+00	0.0
	25	2	5	5	0	0	-1.8181382657E+01	1.7403268123E+02	2.2645697637E+02	3.1236265987E+02	1.2517880141E+02	0.000E+00	0.0
	-5	1	9	9	0	501	-4.6258749670E+01	8.5474411740E+00	4.8133370550E+01	6.7433110800E+01	4.1800000000E+00	0.000E+00	0.0
	5	1	9	9	501	0	2.8077367013E+01	1.6548524006E+02	1.7832360582E+02	2.4492954907E+02	4.1800000000E+00	0.000E+00	0.0
</event>
<event>
    11  -1  1.0000000E+00  1.0000000E+00  -1.0000000E+00  -1.0000000E+00
	2212	-1	0	0	0	0	0.0000000000E+00	0.0000000000E+00	6.5000000000E+03	6.5000000000E+03	9.3827000000E-01	0.000E+00	0.0
	2212	-1	0	0	0	0	0.0000000000E+00	0.0000000000E+00	-6.5000000000E+03	6.5000000000E+03	9.3827000000E-01	0.000E+00	0.0
	2212	1	0	0	0	0	0.0000000000E+00	0.0000000000E+00	5.6733640983E+03	5.6733640983E+03	9.3827000000E-01	0.000E+00	0.0
	2212	1	0	0	0	0	0.0000000000E+00	0.0000000000E+00	-6.1752776458E+03	6.1752776458E+03	9.3827000000E-01	0.000E+00	0.0
	51	2	1	2	0	0	9.9508610062E+01	7.8290286863E+01	5.1239125905E+02	1.1628777920E+03	1.0361991238E+03	0.000E+00	0.0
	1000022	2	5	5	0	0	-9.9508610062E+01	-7.8290286863E+01	4.0888398715E+02	9.5046994672E+02	8.4863164693E+02	0.000E+00	0.0
	14	1	6	6	0	0	6.3213962145E+00	1.8407203747E+02	3.5657728368E+02	5.1642505194E+02	3.2500000000E+02	0.000E+00	0.0
	-14	1	6	6	0	0	-1.0583000628E+02	-2.6236232433E+02	5.2306703462E+01	4.3404489478E+02	3.2500000000E+02	0.000E+00	0.0
	25	2	5	5	0	0	9.9508610062E+01	7.8290286863E+01	9.3029560371E+01	2.0088830919E+02	1.2518099365E+02	0.000E+00	0.0
	-5	1	9	9	0	501	-7.3422728638E+00	-2.6726389349E+01	1.7638463295E+01	3.3117920313E+01	4.1800000000E+00	0.000E+00	0.0
	5	1	9	9	501	0	1.0685088293E+02	1.0501667621E+02	7.5391097076E+01	1.6777038887E+02	4.1800000000E+00	0.000E+00	0.0
</event>
<event>
    11  -1  1.0000000E+00  1.0000000E+00  -1.0000000E+00  -1.0000000E+00
	2212	-1	0	0	0	0	0.0000000000E+00	0.0000000000E+00	6.5000000000E+03	6.5000000000E+03	9.3827000000E-01	0.000E+00	0.0
	2212	-1	0	0	0	0	0.0000000000E+00	0.0000000000E+00	-6.5000000000E+03	6.5000000000E+03	9.3827000000E-01	0.000E+00	0.0
	2212	1	0	0	0	0	0.0000000000E+00	0.0000000000E+00	5.7833584304E+03	5.7833584304E+03	9.3827000000E-01	0.000E+00	0.0
	2212	1	0	0	0	0	0.0000000000E+00	0.0000000000E+00	-6.1212468500E+03	6.1212468500E+03	9.3827000000E-01	0.000E+00	0.0
	51	2	1	2	0	0	7.9226736591E+01	-4.0912327919E+01	4.4370600677E+02	1.1360223248E+03	1.0419793701E+03	0.000E+00	0.0
	1000022	2	5	5	0	0	-7.9226736591E+01	4.0912327919E+01	1.7567600713E+02	8.7194168947E+02	8.4939364019E+02	0.000E+00	0.0
	14	1	6	6	0	0	-2.5694467933E+02	1.8513306535E+02	1.2864471764E+02	4.7166649605E+02	3.2500000000E+02	0.000E+00	0.0
	-14	1	6	6	0	0	1.7771794274E+02	-1.4422073743E+02	4.7031289493E+01	4.0027519342E+02	3.2500000000E+02	0.000E+00	0.0
	25	2	5	5	0	0	7.9226736591E+01	-4.0912327919E+01	1.6221241250E+02	2.2345303015E+02	1.2517066569E+02	0.000E+00	0.0
	-5	1	9	9	0	501	9.0246595684E+01	-7.1319200339E+01	9.6929900111E+01	1.5047841807E+02	4.1800000000E+00	0.000E+00	0.0
	5	1	9	9	501	0	-1.1019859093E+01	3.0406872420E+01	6.5282512384E+01	7.2974612079E+01	4.1800000000E+00	0.000E+00	0.0
</event>
<event>
    11  -1  1.0000000E+00  1.0000000E+00  -1.0000000E+00  -1.0000000E+00
	2212	-1	0	0	0	0	0.0000000000E+00	0.0000000000E+00	6.5000000000E+03	6.5000000000E+03	9.3827000000E-01	0.000E+00	0.0
	2212	-1	0	0	0	0	0.0000000000E+00	0.0000000000E+00	-6.5000000000E+03	6.5000000000E+03	9.3827000000E-01	0.000E+00	0.0
	2212	1	0	0	0	0	0.0000000000E+00	0.0000000000E+00	5.5030889908E+03	5.5030889908E+03	9.3827000000E-01	0.000E+00	0.0
	2212	1	0	0	0	0	0.0000000000E+00	0.0000000000E+00	-6.1996645729E+03	6.1996645729E+03	9.3827000000E-01	0.000E+00	0.0
	51	2	1	2	0	0	1.2656887276E+02	-1.3084043383E+02	7.5999986885E+02	1.3447562881E+03	1.0943631824E+03	0.000E+00	0.0
	1000022	2	5	5	0	0	-1.2656887276E+02	1.3084043383E+02	4.9978501958E+02	1.0013659407E+03	8.4841604342E+02	0.000E+00	0.0
	14	1	6	6	0	0	1.8798795560E+02	1.5589669567E+02	3.0523386951E+02	5.0836597670E+02	3.2500000000E+02	0.000E+00	0.0
	-14	1	6	6	0	0	-3.1455682835E+02	-2.5056261836E+01	1.9455115007E+02	4.9299996401E+02	3.2500000000E+02	0.000E+00	0.0
	25	2	5	5	0	0	1.2656887276E+02	-1.3084043383E+02	1.9679056245E+02	2.9588049562E+02	1.2521918201E+02	0.000E+00	0.0
	-5	1	9	9	0	501	1.2335271868E+02	-1.1535605426E+02	2.1366146302E+02	2.7238136067E+02	4.1800000000E+00	0.000E+00	0.0
	5	1	9	9	501	0	3.2161540789E+00	-1.5484379566E+01	-1.6870900567E+01	2.3499134953E+01	4.1800000000E+00	0.000E+00	0.0
</event>
<event>
    11  -1  1.0000000E+00  1.0000000E+00  -1.0000000E+00  -1.0000000E+00
	2212	-1	0	0	0	0	0.0000000000E+00	0.0000000000E+00	6.5000000000E+03	6.5000000000E+03	9.3827000000E-01	0.000E+00	0.0
	2212	-1	0	0	0	0	0.0000000000E+00	0.0000000000E+00	-6.5000000000E+03	6.5000000000E+03	9.3827000000E-01	0.000E+00	0.0
	2212	1	0	0	0	0	0.0000000000E+00	0.0000000000E+00	6.1926900962E+03	6.1926900962E+03	9.3827000000E-01	0.000E+00	0.0
	2212	1	0	0	0	0	0.0000000000E+00	0.0000000000E+00	-5.6132396081E+03	5.6132396081E+03	9.3827000000E-01	0.000E+00	0.0
	51	2	1	2	0	0	-4.8049174697E+01	-9.9700585710E+01	-4.9326709345E+02	1.1600010166E+03	1.0440502876E+03	0.000E+00	0.0
	1000022	2	5	5	0	0	4.8049174697E+01	9.9700585710E+01	-5.6774157294E+02	1.0264134538E+03	8.4790633597E+02	0.000E+00	0.0
	14	1	6	6	0	0	-8.9013162046E+01	-1.5911393465E+02	-9.9722543254E+01	3.8575921616E+02	3.2500000000E+02	0.000E+00	0.0
	-14	1	6	6	0	0	1.3706233674E+02	2.5881452036E+02	-4.6801902969E+02	6.4065423768E+02	3.2500000000E+02	0.000E+00	0.0
	25	2	5	5	0	0	-4.8049174697E+01	-9.9700585710E+01	-1.1708915147E+01	1.6765684188E+02	1.2539054173E+02	0.000E+00	0.0
	-5	1	9	9	0	501	-2.2792407758E+01	-7.9789270665E+01	-6.4851668912E+01	1.0539939718E+02	4.1800000000E+00	0.000E+00	0.0
	5	1	9	9	501	0	-2.5256766939E+01	-1.9911315045E+01	5.3142753765E+01	6.2257444701E+01	4.1800000000E+00	0.000E+00	0.0
</event>
<event>
    11  -1  1.0000000E+00  1.0000000E+00  -1.0000000E+00  -1.0000000E+00
	2212	-1	0	0	0	0	0.0000000000E+00	0.0000000000E+00	6.5000000000E+03	6.5000000000E+03	9.3827000000E-01	0.000E+00	0.0
	2212	-1	0	0	0	0	0.0000000000E+00	0.0000000000E+00	-6.5000000000E+03	6.5000000000E+03	9.3827000000E-01	0.000E+00	0.0
	2212	1	0	0	0	0	0.0000000000E+00	0.0000000000E+00	6.0915534573E+03	6.0915534573E+03	9.3827000000E-01	0.000E+00	0.0
	2212	1	0	0	0	0	0.0000000000E+00	0.0000000000E+00	-5.8280164081E+03	5.8280164081E+03	9.3827000000E-01	0.000E+00	0.0
	51	2	1	2	0	0	1.2790214663E+02	1.1819136174E+01	-2.6648689742E+02	1.0887568218E+03	1.0477964971E+03	0.000E+00	0.0
	1000022	2	5	5	0	0	-1.2790214663E+02	-1.1819136174E+01	-2.1744962727E+02	8.9525114183E+02	8.5888975745E+02	0.000E+00	0.0
	14	1	6	6	0	0	-2.9316385187E+02	-2.2800582021E+01	5.2559400531E+01	4.4142088891E+02	3.2500000000E+02	0.000E+00	0.0
	-14	1	6	6	0	0	1.6526170524E+02	1.0981445846E+01	-2.7000902780E+02	4.5383025292E+02	3.2500000000E+02	0.000E+00	0.0
	25	2	5	5	0	0	1.2790214663E+02	1.1819136174E+01	-4.6087422022E+01	1.8517899277E+02	1.2517410994E+02	0.000E+00	0.0
	-5	1	9	9	0	501	1.3380759785E+02	-2.9629530996E+01	-3.1883590176E+01	1.4077079979E+02	4.1800000000E+00	0.000E+00	0.0
	5	1	9	9	501	0	-5.9054512241E+00	4.1448667171E+01	-1.4203831845E+01	4.4408192977E+01	4.1800000000E+00	0.000E+00	0.0
</event>
<event>
    11  -1  1.0000000E+00  1.0000000E+00  -1.0000000E+00  -1.0000000E+00
	2212	-1	0	0	0	0	0.0000000000E+00	0.0000000000E+00	6.5000000000E+03	6.5000000000E+03	9.3827000000E-01	0.000E+00	0.0
	2212	-1	0	0	0	0	0.0000000000E+00	0.0000000000E+00	-6.5000000000E+03	6.5000000000E+03	9.3827000000E-01	0.000E+00	0.0
	2212	1	0	0	0	0	0.0000000000E+00	0.0000000000E+00	5.0575718090E+03	5.0575718090E+03	9.3827000000E-01	0.000E+00	0.0
	2212	1	0	0	0	0	0.0000000000E+00	0.0000000000E+00	-6.3029230639E+03	6.3029230639E+03	9.3827000000E-01	0.000E+00	0.0
	51	2	1	2	0	0	1.4117733397E+02	3.1645175745E+01	1.0921909640E+03	1.5332615146E+03	1.0663382735E+03	0.000E+00	0.0
	1000022	2	5	5	0	0	-1.4117733397E+02	-3.1645175745E+01	1.1580753036E+03	1.4292143880E+03	8.2497448520E+02	0.000E+00	0.0
	14	1	6	6	0	0	4.5184743853E+01	1.8218896999E+02	7.3353782977E+02	8.2397647392E+02	3.2500000000E+02	0.000E+00	0.0
	-14	1	6	6	0	0	-1.8636207782E+02	-2.1383414574E+02	4.2453747385E+02	6.0523791408E+02	3.2500000000E+02	0.000E+00	0.0
	25	2	5	5	0	0	1.4117733397E+02	3.1645175745E+01	8.7275951320E+01	2.1029073908E+02	1.2519044089E+02	0.000E+00	0.0
	-5	1	9	9	0	501	1.1309284683E+02	5.7641429456E+01	1.4330190589E+01	1.2780983200E+02	4.1800000000E+00	0.000E+00	0.0
	5	1	9	9	501	0	2.8084487147E+01	-2.5996253711E+01	7.2945760730E+01	8.2480907087E+01	4.1800000000E+00	0.000E+00	0.0
</event>
<event>
    11  -1  1.0000000E+00  1.0000000E+00  -1.0000000E+00  -1.0000000E+00
	2212	-1	0	0	0	0	0.0000000000E+00	0.0000000000E+00	6.5000000000E+03	6.5000000000E+03	9.3827000000E-01	0.000E+00	0.0
	2212	-1	0	0	0	0	0.0000000000E+00	0.0000000000E+00	-6.5000000000E+03	6.5000000000E+03	9.3827000000E-01	0.000E+00	0.0
	2212	1	0	0	0	0	0.0000000000E+00	0.0000000000E+00	4.9374943176E+03	4.9374943176E+03	9.3827000000E-01	0.000E+00	0.0
	2212	1	0	0	0	0	0.0000000000E+00	0.0000000000E+00	-6.3239240447E+03	6.3239240447E+03	9.3827000000E-01	0.000E+00	0.0
	51	2	1	2	0	0	-1.0597401515E+02	-1.2958006849E+01	1.2464610812E+03	1.6326488759E+03	1.0490370456E+03	0.000E+00	0.0
	1000022	2	5	5	0	0	1.0597401515E+02	1.2958006849E+01	1.2897419532E+03	1.5477474609E+03	8.4893432916E+02	0.000E+00	0.0
	14	1	6	6	0	0	2.0342646256E+02	1.5657932197E+02	9.8876845333E+02	1.0720016157E+03	3.2500000000E+02	0.000E+00	0.0
	-14	1	6	6	0	0	-9.7452447413E+01	-1.4362131512E+02	3.0097349985E+02	4.7574584525E+02	3.2500000000E+02	0.000E+00	0.0
	25	2	5	5	0	0	-1.0597401515E+02	-1.2958006849E+01	9.6687773899E+01	1.9083417681E+02	1.2518288856E+02	0.000E+00	0.0
	-5	1	9	9	0	501	1.3575080935E+01	-1.0164926698E+01	-1.8007294593E+01	2.5086721901E+01	4.1800000000E+00	0.000E+00	0.0
	5	1	9	9	501	0	-1.1954909608E+02	-2.7930801512E+00	1.1469506849E+02	1.6574745490E+02	4.1800000000E+00	0.000E+00	0.0
</event>
<event>
    11  -1  1.0000000E+00  1.0000000E+00  -1.0000000E+00  -1.0000000E+00
	2212	-1	0	0	0	0	0.0000000000E+00	0.0000000000E+00	6.5000000000E+03	6.5000000000E+03	9.3827000000E-01	0.000E+00	0.0
	2212	-1	0	0	0	0	0.0000000000E+00	0.0000000000E+00	-6.5000000000E+03	6.5000000000E+03	9.3827000000E-01	0.000E+00	0.0
	2212	1	0	0	0	0	0.0000000000E+00	0.0000000000E+00	5.2360433055E+03	5.2360433055E+03	9.3827000000E-01	0.000E+00	0.0
	2212	1	0	0	0	0	0.0000000000E+00	0.0000000000E+00	-6.2816556407E+03	6.2816556407E+03	9.3827000000E-01	0.000E+00	0.0
	51	2	1	2	0	0	3.2810573193E+00	-9.5741557576E+01	1.2096997042E+03	1.6051360827E+03	1.0506718130E+03	0.000E+00	0.0
	1000022	2	5	5	0	0	-3.2810573193E+00	9.5741557576E+01	7.0060797655E+02	1.1029910050E+03	8.4649891270E+02	0.000E+00	0.0
	14	1	6	6	0	0	1.5476094228E+02	-1.7322066046E+02	3.6644853616E+02	5.4209397351E+02	3.2500000000E+02	0.000E+00	0.0
	-14	1	6	6	0	0	-1.5804199960E+02	2.6896221803E+02	3.3415944039E+02	5.6089703152E+02	3.2500000000E+02	0.000E+00	0.0
	25	2	5	5	0	0	3.2810573193E+00	-9.5741557576E+01	3.4500435866E+02	3.7931004881E+02	1.2518344319E+02	0.000E+00	0.0
	-5	1	9	9	0	501	5.6724552269E+01	-7.0893293897E+01	2.6280651685E+02	2.7807961386E+02	4.1800000000E+00	0.000E+00	0.0
	5	1	9	9	501	0	-5.3443494950E+01	-2.4848263679E+01	8.2197841813E+01	1.0123043494E+02	4.1800000000E+00	0.000E+00	0.0
</event>
<event>
    11  -1  1.0000000E+00  1.0000000E+00  -1.0000000E+00  -1.0000000E+00
	2212	-1	0	0	0	0	0.0000000000E+00	0.0000000000E+00	6.5000000000E+03	6.5000000000E+03	9.3827000000E-01	0.000E+00	0.0
	2212	-1	0	0	0	0	0.0000000000E+00	0.0000000000E+00	-6.5000000000E+03	6.5000000000E+03	9.3827000000E-01	0.000E+00	0.0
	2212	1	0	0	0	0	0.0000000000E+00	0.0000000000E+00	6.3285507938E+03	6.3285507938E+03	9.3827000000E-01	0.000E+00	0.0
	2212	1	0	0	0	0	0.0000000000E+00	0.0000000000E+00	-4.9036794683E+03	4.9036794683E+03	9.3827000000E-01	0.000E+00	0.0
	51	2	1	2	0	0	-1.1699412794E+02	-2.8422434796E+01	-1.2620567069E+03	1.6437865264E+03	1.0463037571E+03	0.000E+00	0.0
	1000022	2	5	5	0	0	1.1699412794E+02	2.8422434796E+01	-1.3271008690E+03	1.5684575040E+03	8.2726462797E+02	0.000E+00	0.0
	14	1	6	6	0	0	-9.9516314736E+01	-2.1902246273E+01	-1.0005086209E+03	1.0568943683E+03	3.2500000000E+02	0.000E+00	0.0
	-14	1	6	6	0	0	2.1651044267E+02	5.0324681070E+01	-3.2659224813E+02	5.1156313574E+02	3.2500000000E+02	0.000E+00	0.0
	25	2	5	5	0	0	-1.1699412794E+02	-2.8422434796E+01	-9.7770456483E+01	1.9931223390E+02	1.2518324030E+02	0.000E+00	0.0
	-5	1	9	9	0	501	-8.9175613588E+00	4.2810509877E+01	-2.0196305360E+01	4.8349000059E+01	4.1800000000E+00	0.000E+00	0.0
	5	1	9	9	501	0	-1.0807656658E+02	-7.1232944673E+01	-7.7574151122E+01	1.5096323384E+02	4.1800000000E+00	0.000E+00	0.0
</event>
<event>
    11  -1  1.0000000E+00  1.0000000E+00  -1.0000000E+00  -1.0000000E+00
	2212	-1	0	0	0	0	0.0000000000E+00	0.0000000000E+00	6.5000000000E+03	6.5000000000E+03	9.3827000000E-01	0.000E+00	0.0
	2212	-1	0	0	0	0	0.0000000000E+00	0.0000000000E+00	-6.5000000000E+03	6.5000000000E+03	9.3827000000E-01	0.000E+00	0.0
	2212	1	0	0	0	0	0.0000000000E+00	0.0000000000E+00	6.2205660994E+03	6.2205660994E+03	9.3827000000E-01	0.000E+00	0.0
	2212	1	0	0	0	0	0.0000000000E+00	0.0000000000E+00	-5.4902105982E+03	5.4902105982E+03	9.3827000000E-01	0.000E+00	0.0
	51	2	1	2	0	0	1.3404755115E+02	-3.2349554171E+01	-7.9751172273E+02	1.3355589665E+03	1.0623923783E+03	0.000E+00	0.0
	1000022	2	5	5	0	0	-1.3404755115E+02	3.2349554171E+01	-5.3761474359E+02	1.0212058546E+03	8.5721441038E+02	0.000E+00	0.0
	14	1	6	6	0	0	4.7508624024E+01	2.6589286559E+02	-2.0281449740E+02	4.6873745923E+02	3.2500000000E+02	0.000E+00	0.0
	-14	1	6	6	0	0	-1.8155617517E+02	-2.3354331142E+02	-3.3480024619E+02	5.5246839539E+02	3.2500000000E+02	0.000E+00	0.0
	25	2	5	5	0	0	1.3404755115E+02	-3.2349554171E+01	-1.9274075758E+02	2.6801744780E+02	1.2517632790E+02	0.000E+00	0.0
	-5	1	9	9	0	501	1.1480844937E+02	-2.8424517064E+01	-2.1032106548E+02	2.4133245990E+02	4.1800000000E+00	0.000E+00	0.0
	5	1	9	9	501	0	1.9239101777E+01	-3.9250371076E+00	1.7580307895E+01	2.6684987899E+01	4.1800000000E+00	0.000E+00	0.0
</event>
<event>
    11  -1  1.0000000E+00  1.0000000E+00  -1.0000000E+00  -1.0000000E+00
	2212	-1	0	0	0	0	0.0000000000E+00	0.0000000000E+00	6.5000000000E+03	6.5000000000E+03	9.3827000000E-01	0.000E+00	0.0
	2212	-1	0	0	0	0	0.0000000000E+00	0.0000000000E+00	-6.5000000000E+03	6.5000000000E+03	9.3827000000E-01	0.000E+00	0.0
	2212	1	0	0	0	0	0.0000000000E+00	0.0000000000E+00	5.6064796347E+03	5.6064796347E+03	9.3827000000E-01	0.000E+00	0.0
	2212	1	0	0	0	0	0.0000000000E+00	0.0000000000E+00	-6.1903507608E+03	6.1903507608E+03	9.3827000000E-01	0.000E+00	0.0
	51	2	1	2	0	0	-1.8489159718E+01	-1.3453845539E+02	6.4855090001E+02	1.2432909234E+03	1.0520036146E+03	0.000E+00	0.0
	1000022	2	5	5	0	0	1.8489159718E+01	1.3453845539E+02	4.1830998094E+02	9.5516439777E+02	8.4788757604E+02	0.000E+00	0.0
	14	1	6	6	0	0	1.2008791995E+02	1.3387405681E+02	-5.1434779310E+01	3.7498521054E+02	3.2500000000E+02	0.000E+00	0.0
	-14	1	6	6	0	0	-1.0159876023E+02	6.6439857873E-01	4.6974476025E+02	5.8017918723E+02	3.2500000000E+02	0.000E+00	0.0
	25	2	5	5	0	0	-1.8489159718E+01	-1.3453845539E+02	1.6556114523E+02	2.4800520673E+02	1.2511452654E+02	0.000E+00	0.0
	-5	1	9	9	0	501	2.8882992172E+01	-1.2417001343E+02	8.3050514567E+01	1.5220801504E+02	4.1800000000E+00	0.000E+00	0.0
	5	1	9	9	501	0	-4.7372151890E+01	-1.0368441957E+01	8.2510630664E+01	9.5797191691E+01	4.1800000000E+00	0.000E+00	0.0
</event>
<event>
    11  -1  1.0000000E+00  1.0000000E+00  -1.0000000E+00  -1.0000000E+00
	2212	-1	0	0	0	0	0.0000000000E+00	0.0000000000E+00	6.5000000000E+03	6.5000000000E+03	9.3827000000E-01	0.000E+00	0.0
	2212	-1	0	0	0	0	0.0000000000E+00	0.0000000000E+00	-6.5000000000E+03	6.5000000000E+03	9.3827000000E-01	0.000E+00	0.0
	2212	1	0	0	0	0	0.0000000000E+00	0.0000000000E+00	6.1835049282E+03	6.1835049282E+03	9.3827000000E-01	0.000E+00	0.0
	2212	1	0	0	0	0	0.0000000000E+00	0.0000000000E+00	-5.6379530917E+03	5.6379530917E+03	9.3827000000E-01	0.000E+00	0.0
	51	2	1	2	0	0	-1.0281045863E+02	-6.2533909230E+01	-4.9618025660E+02	1.1627595279E+03	1.0446695136E+03	0.000E+00	0.0
	1000022	2	5	5	0	0	1.0281045863E+02	6.2533909230E+01	-5.0507475876E+02	1.0002266256E+03	8.5491070324E+02	0.000E+00	0.0
	14	1	6	6	0	0	6.6357197098E+00	9.7386324806E+01	-5.6031209873E+02	6.5505936908E+02	3.2500000000E+02	0.000E+00	0.0
	-14	1	6	6	0	0	9.6174738925E+01	-3.4852415576E+01	5.5237339971E+01	3.4516725657E+02	3.2500000000E+02	0.000E+00	0.0
	25	2	5	5	0	0	-1.0281045863E+02	-6.2533909230E+01	-4.0477077728E+01	1.7831535445E+02	1.2520979036E+02	0.000E+00	0.0
	-5	1	9	9	0	501	-4.6195334858E+01	-5.0976540288E+01	3.9593449578E+01	7.9484151074E+01	4.1800000000E+00	0.000E+00	0.0
	5	1	9	9	501	0	-5.6615123776E+01	-1.1557368942E+01	-8.0070527307E+01	9.8831203374E+01	4.1800000000E+00	0.000E+00	0.0
</event>
<event>
    11  -1  1.0000000E+00  1.0000000E+00  -1.0000000E+00  -1.0000000E+00
	2212	-1	0	0	0	0	0.0000000000E+00	0.0000000000E+00	6.5000000000E+03	6.5000000000E+03	9.3827000000E-01	0.000E+00	0.0
	2212	-1	0	0	0	0	0.0000000000E+00	0.0000000000E+00	-6.5000000000E+03	6.5000000000E+03	9.3827000000E-01	0.000E+00	0.0
	2212	1	0	0	0	0	0.0000000000E+00	0.0000000000E+00	6.0906960268E+03	6.0906960268E+03	9.3827000000E-01	0.000E+00	0.0
	2212	1	0	0	0	0	0.0000000000E+00	0.0000000000E+00	-5.8363162179E+03	5.8363162179E+03	9.3827000000E-01	0.000E+00	0.0
	51	2	1	2	0	0	4.7682839569E+01	-4.1556193384E+01	-4.0252522349E+02	1.1192054153E+03	1.0423980217E+03	0.000E+00	0.0
	1000022	2	5	5	0	0	-4.7682839569E+01	4.1556193384E+01	-6.0451570247E+01	8.3365567369E+02	8.2905175926E+02	0.000E+00	0.0
	14	1	6	6	0	0	-1.9064206356E+02	5.3442582994E+01	1.6297191419E+02	4.1398713856E+02	3.2500000000E+02	0.000E+00	0.0
	-14	1	6	6	0	0	1.4295922399E+02	-1.1886389610E+01	-2.2342348444E+02	4.1966853513E+02	3.2500000000E+02	0.000E+00	0.0
	25	2	5	5	0	0	4.7682839569E+01	-4.1556193384E+01	-1.9392823866E+02	2.3933208153E+02	1.2518431653E+02	0.000E+00	0.0
	-5	1	9	9	0	501	6.2617482459E+01	-7.8244882027E+01	-1.4321762253E+02	1.7484842143E+02	4.1800000000E+00	0.000E+00	0.0
	5	1	9	9	501	0	-1.4934642889E+01	3.6688688643E+01	-5.0710616127E+01	6.4483660105E+01	4.1800000000E+00	0.000E+00	0.0
</event>
<event>
    11  -1  1.0000000E+00  1.0000000E+00  -1.0000000E+00  -1.0000000E+00
	2212	-1	0	0	0	0	0.0000000000E+00	0.0000000000E+00	6.5000000000E+03	6.5000000000E+03	9.3827000000E-01	0.000E+00	0.0
	2212	-1	0	0	0	0	0.0000000000E+00	0.0000000000E+00	-6.5000000000E+03	6.5000000000E+03	9.3827000000E-01	0.000E+00	0.0
	2212	1	0	0	0	0	0.0000000000E+00	0.0000000000E+00	6.1305074217E+03	6.1305074217E+03	9.3827000000E-01	0.000E+00	0.0
	2212	1	0	0	0	0	0.0000000000E+00	0.0000000000E+00	-5.7658121112E+03	5.7658121112E+03	9.3827000000E-01	0.000E+00	0.0
	51	2	1	2	0	0	1.2172041378E+02	-3.0610905963E+01	-3.3790249100E+02	1.1022880223E+03	1.0416851270E+03	0.000E+00	0.0
	1000022	2	5	5	0	0	-1.2172041378E+02	3.0610905963E+01	-3.3144966436E+02	9.2337800093E+02	8.5265184331E+02	0.000E+00	0.0
	14	1	6	6	0	0	-1.9660685981E+02	-1.8679887329E+02	-3.0646262133E+01	4.2439635928E+02	3.2500000000E+02	0.000E+00	0.0
	-14	1	6	6	0	0	7.4886446031E+01	2.1740977925E+02	-3.0080340223E+02	4.9898164165E+02	3.2500000000E+02	0.000E+00	0.0
	25	2	5	5	0	0	1.2172041378E+02	-3.0610905963E+01	-3.3245646230E+01	1.8030246617E+02	1.2510323584E+02	0.000E+00	0.0
	-5	1	9	9	0	501	-3.1235700705E+00	2.4628307314E+01	-3.5716554473E+01	4.3697309695E+01	4.1800000000E+00	0.000E+00	0.0
	5	1	9	9	501	0	1.2484398385E+02	-5.5239213277E+01	2.4709082430E+00	1.3660515647E+02	4.1800000000E+00	0.000E+00	0.0
</event>
<event>
    11  -1  1.0000000E+00  1.0000000E+00  -1.0000000E+00  -1.0000000E+00
	2212	-1	0	0	0	0	0.0000000000E+00	0.0000000000E+00	6.5000000000E+03	6.5000000000E+03	9.3827000000E-01	0.000E+00	0.0
	2212	-1	0	0	0	0	0.0000000000E+00	0.0000000000E+00	-6.5000000000E+03	6.5000000000E+03	9.3827000000E-01	0.000E+00	0.0
	2212	1	0	0	0	0	0.0000000000E+00	0.0000000000E+00	5.5996409943E+03	5.5996409943E+03	9.3827000000E-01	0.000E+00	0.0
	2212	1	0	0	0	0	0.0000000000E+00	0.0000000000E+00	-6.1925277403E+03	6.1925277403E+03	9.3827000000E-01	0.000E+00	0.0
	51	2	1	2	0	0	-8.6764991068E+01	-6.2975297599E+01	7.0274305939E+02	1.2699147733E+03	1.0523030325E+03	0.000E+00	0.0
	1000022	2	5	5	0	0	8.6764991068E+01	6.2975297599E+01	3.8220083717E+02	9.4033730006E+02	8.5244513382E+02	0.000E+00	0.0
	14	1	6	6	0	0	5.5449179173E+01	-6.9297040245E+01	-9.2343317758E+01	3.4932646563E+02	3.2500000000E+02	0.000E+00	0.0
	-14	1	6	6	0	0	3.1315811896E+01	1.3227233784E+02	4.7454415493E+02	5.9101083443E+02	3.2500000000E+02	0.000E+00	0.0
	25	2	5	5	0	0	-8.6764991068E+01	-6.2975297599E+01	2.1068590876E+02	2.6749396533E+02	1.2518153840E+02	0.000E+00	0.0
	-5	1	9	9	0	501	-2.8227571157E+01	3.4369982933E+01	9.6695488460E+01	1.0651563917E+02	4.1800000000E+00	0.000E+00	0.0
	5	1	9	9	501	0	-5.8537419911E+01	-9.7345280532E+01	1.1399042030E+02	1.6097832615E+02	4.1800000000E+00	0.000E+00	0.0
</event>
<event>
    11  -1  1.0000000E+00  1.0000000E+00  -1.0000000E+00  -1.0000000E+00
	2212	-1	0	0	0	0	0.0000000000E+00	0.0000000000E+00	6.5000000000E+03	6.5000000000E+03	9.3827000000E-01	0.000E+00	0.0
	2212	-1	0	0	0	0	0.0000000000E+00	0.0000000000E+00	-6.5000000000E+03	6.5000000000E+03	9.3827000000E-01	0.000E+00	0.0
	2212	1	0	0	0	0	0.0000000000E+00	0.0000000000E+00	4.8746216702E+03	4.8746216702E+03	9.3827000000E-01	0.000E+00	0.0
	2212	1	0	0	0	0	0.0000000000E+00	0.0000000000E+00	-6.3226109552E+03	6.3226109552E+03	9.3827000000E-01	0.000E+00	0.0
	51	2	1	2	0	0	-1.5346917952E+02	-6.8097332464E+01	1.4977078814E+03	1.8505718498E+03	1.0739167740E+03	0.000E+00	0.0
	1000022	2	5	5	0	0	1.5346917952E+02	6.8097332464E+01	1.1325494334E+03	1.4241361353E+03	8.4693888630E+02	0.000E+00	0.0
	14	1	6	6	0	0	-3.8101825511E+01	3.2469644128E+01	9.4648885946E+02	1.0019841256E+03	3.2500000000E+02	0.000E+00	0.0
	-14	1	6	6	0	0	1.9157100503E+02	3.5627688336E+01	1.8606057395E+02	4.2215200974E+02	3.2500000000E+02	0.000E+00	0.0
	25	2	5	5	0	0	-1.5346917952E+02	-6.8097332464E+01	3.1543985158E+02	3.7863123924E+02	1.2517699314E+02	0.000E+00	0.0
	-5	1	9	9	0	501	-8.0626426959E+01	2.9036621552E+01	1.0449493910E+02	1.3520506948E+02	4.1800000000E+00	0.000E+00	0.0
	5	1	9	9	501	0	-7.2842752561E+01	-9.7133954015E+01	2.1094491248E+02	2.4342616976E+02	4.1800000000E+00	0.000E+00	0.0
</event>
<event>
    11  -1  1.0000000E+00  1.0000000E+00  -1.0000000E+00  -1.0000000E+00
	2212	-1	0	0	0	0	0.0000000000E+00	0.0000000000E+00	6.5000000000E+03	6.5000000000E+03	9.3827000000E-01	0.000E+00	0.0
	2212	-1	0	0	0	0	0.0000000000E+00	0.0000000000E+00	-6.5000000000E+03	6.5000000000E+03	9.3827000000E-01	0.000E+00	0.0
	2212	1	0	0	0	0	0.0000000000E+00	0.0000000000E+00	5.7745035879E+03	5.7745035879E+03	9.3827000000E-01	0.000E+00	0.0
	2212	1	0	0	0	0	0.0000000000E+00	0.0000000000E+00	-6.1290181272E+03	6.1290181272E+03	9.3827000000E-01	0.000E+00	0.0
	51	2	1	2	0	0	-2.8173616247E+01	5.1827902665E+00	2.2225437522E+02	1.0615091577E+03	1.0375856932E+03	0.000E+00	0.0
	1000022	2	5	5	0	0	2.8173616247E+01	-5.1827902665E+00	4.2768055317E+02	9.4867507079E+02	8.4631738752E+02	0.000E+00	0.0
	14	1	6	6	0	0	-1.1775017184E+02	-2.1228804183E+02	8.9069171638E+01	4.1531871257E+02	3.2500000000E+02	0.000E+00	0.0
	-14	1	6	6	0	0	1.4592378809E+02	2.0710525156E+02	3.3861138153E+02	5.3335635822E+02	3.2500000000E+02	0.000E+00	0.0
	25	2	5	5	0	0	-2.8173616247E+01	5.1827902665E+00	-7.3166013926E+01	1.4780321409E+02	1.2518750151E+02	0.000E+00	0.0
	-5	1	9	9	0	501	1.2616425004E+01	-1.8608912262E+01	2.7957825617E+01	3.6118945288E+01	4.1800000000E+00	0.000E+00	0.0
	5	1	9	9	501	0	-4.0790041251E+01	2.3791702529E+01	-1.0112383954E+02	1.1168426880E+02	4.1800000000E+00	0.000E+00	0.0
</event>
<event>
    11  -1  1.0000000E+00  1.0000000E+00  -1.0000000E+00  -1.0000000E+00
	2212	-1	0	0	0	0	0.0000000000E+00	0.0000000000E+00	6.5000000000E+03	6.5000000000E+03	9.3827000000E-01	0.000E+00	0.0
	2212	-1	0	0	0	0	0.0000000000E+00	0.0000000000E+00	-6.5000000000E+03	6.5000000000E+03	9.3827000000E-01	0.000E+00	0.0
	2212	1	0	0	0	0	0.0000000000E+00	0.0000000000E+00	5.1079091315E+03	5.1079091315E+03	9.3827000000E-01	0.000E+00	0.0
	2212	1	0	0	0	0	0.0000000000E+00	0.0000000000E+00	-6.3166001325E+03	6.3166001325E+03	9.3827000000E-01	0.000E+00	0.0
	51	2	1	2	0	0	-4.5893007702E+01	-5.6639685745E+01	1.1274787727E+03	1.5158363132E+03	1.0105627756E+03	0.000E+00	0.0
	1000022	2	5	5	0	0	4.5893007702E+01	5.6639685745E+01	1.1094114971E+03	1.3998798580E+03	8.5062067040E+02	0.000E+00	0.0
	14	1	6	6	0	0	-1.7440537836E+02	1.1167069516E+02	2.6698095027E+02	4.6881916340E+02	3.2500000000E+02	0.000E+00	0.0
	-14	1	6	6	0	0	2.2029838607E+02	-5.5031009416E+01	8.4243054681E+02	9.3106069464E+02	3.2500000000E+02	0.000E+00	0.0
	25	2	5	5	0	0	-4.5893007702E+01	-5.6639685745E+01	9.9279503855E+01	1.7561087795E+02	1.2517403250E+02	0.000E+00	0.0
	-5	1	9	9	0	501	2.6969522584E+01	-6.2761418874E+01	6.6310144458E+01	9.5293538635E+01	4.1800000000E+00	0.000E+00	0.0
	5	1	9	9	501	0	-7.2862530286E+01	6.1217331284E+00	3.2969359397E+01	8.0317339319E+01	4.1800000000E+00	0.000E+00	0.0
</event>
<event>
    11  -1  1.0000000E+00  1.0000000E+00  -1.0000000E+00  -1.0000000E+00
	2212	-1	0	0	0	0	0.0000000000E+00	0.0000000000E+00	6.5000000000E+03	6.5000000000E+03	9.3827000000E-01	0.000E+00	0.0
	2212	-1	0	0	0	0	0.0000000000E+00	0.0000000000E+00	-6.5000000000E+03	6.5000000000E+03	9.3827000000E-01	0.000E+00	0.0
	2212	1	0	0	0	0	0.0000000000E+00	0.0000000000E+00	5.9321003453E+03	5.9321003453E+03	9.3827000000E-01	0.000E+00	0.0
	2212	1	0	0	0	0	0.0000000000E+00	0.0000000000E+00	-6.0160581366E+03	6.0160581366E+03	9.3827000000E-01	0.000E+00	0.0
	51	2	1	2	0	0	-1.1298168384E+02	9.2677565221E+01	-1.9434850877E+00	1.0586214799E+03	1.0484854165E+03	0.000E+00	0.0
	1000022	2	5	5	0	0	1.1298168384E+02	-9.2677565221E+01	1.5405419501E+02	8.4705466432E+02	8.2000909591E+02	0.000E+00	0.0
	14	1	6	6	0	0	-1.2410367361E+02	6.1602648966E+01	-7.1902321482E+01	3.6054341208E+02	3.2500000000E+02	0.000E+00	0.0
	-14	1	6	6	0	0	2.3708535745E+02	-1.5428021419E+02	2.2595651650E+02	4.8651125224E+02	3.2500000000E+02	0.000E+00	0.0
	25	2	5	5	0	0	-1.1298168384E+02	9.2677565221E+01	-7.0096403686E+01	2.0478685382E+02	1.2518050052E+02	0.000E+00	0.0
	-5	1	9	9	0	501	-8.5293956693E+01	1.0265582018E+02	-5.4609961607E+00	1.3364344856E+02	4.1800000000E+00	0.000E+00	0.0
	5	1	9	9	501	0	-2.7687727147E+01	-9.9782549551E+00	-6.4635407525E+01	7.1143405263E+01	4.1800000000E+00	0.000E+00	0.0
</event>
<event>
    11  -1  1.0000000E+00  1.0000000E+00  -1.0000000E+00  -1.0000000E+00
	2212	-1	0	0	0	0	0.0000000000E+00	0.0000000000E+00	6.5000000000E+03	6.5000000000E+03	9.3827000000E-01	0.000E+00	0.0
	2212	-1	0	0	0	0	0.0000000000E+00	0.0000000000E+00	-6.5000000000E+03	6.5000000000E+03	9.3827000000E-01	0.000E+00	0.0
	2212	1	0	0	0	0	0.0000000000E+00	0.0000000000E+00	5.0586487066E+03	5.0586487066E+03	9.3827000000E-01	0.000E+00	0.0
	2212	1	0	0	0	0	0.0000000000E+00	0.0000000000E+00	-6.3076828133E+03	6.3076828133E+03	9.3827000000E-01	0.000E+00	0.0
	51	2	1	2	0	0	-5.9662624552E+01	5.3852961518E+01	1.1711249234E+03	1.5769527131E+03	1.0529893176E+03	0.000E+00	0.0
	1000022	2	5	5	0	0	5.9662624552E+01	-5.3852961518E+01	1.1446429647E+03	1.4519453654E+03	8.8965052541E+02	0.000E+00	0.0
	14	1	6	6	0	0	1.9192285335E+02	1.5357689198E+02	2.7524076916E+02	4.9173440433E+02	3.2500000000E+02	0.000E+00	0.0
	-14	1	6	6	0	0	-1.3226022880E+02	-2.0742985350E+02	8.6940219554E+02	9.6021096112E+02	3.2500000000E+02	0.000E+00	0.0
	25	2	5	5	0	0	-5.9662624552E+01	5.3852961518E+01	1.0439114202E+02	1.8172311462E+02	1.2516393099E+02	0.000E+00	0.0
	-5	1	9	9	0	501	2.2514820303E+01	4.1341595670E+01	-1.1980629237E+00	4.7275283400E+01	4.1800000000E+00	0.000E+00	0.0
	5	1	9	9	501	0	-8.2177444856E+01	1.2511365848E+01	1.0558920495E+02	1.3444783122E+02	4.1800000000E+00	0.000E+00	0.0
</event>
<event>
    11  -1  1.0000000E+00  1.0000000E+00  -1.0000000E+00  -1.0000000E+00
	2212	-1	0	0	0	0	0.0000000000E+00	0.0000000000E+00	6.5000000000E+03	6.5000000000E+03	9.3827000000E-01	0.000E+00	0.0
	2212	-1	0	0	0	0	0.0000000000E+00	0.0000000000E+00	-6.5000000000E+03	6.5000000000E+03	9.3827000000E-01	0.000E+00	0.0
	2212	1	0	0	0	0	0.0000000000E+00	0.0000000000E+00	6.1303462302E+03	6.1303462302E+03	9.3827000000E-01	0.000E+00	0.0
	2212	1	0	0	0	0	0.0000000000E+00	0.0000000000E+00	-5.7596554672E+03	5.7596554672E+03	9.3827000000E-01	0.000E+00	0.0
	51	2	1	2	0	0	1.0212877905E+02	7.1425291529E+01	-3.2629288238E+02	1.1030337686E+03	1.0462717572E+03	0.000E+00	0.0
	1000022	2	5	5	0	0	-1.0212877905E+02	-7.1425291529E+01	-3.5349868780E+02	9.3253756009E+02	8.5389292006E+02	0.000E+00	0.0
	14	1	6	6	0	0	-2.6510859547E+01	-1.4453807973E+02	9.4669635003E+01	3.6902767099E+02	3.2500000000E+02	0.000E+00	0.0
	-14	1	6	6	0	0	-7.5617919508E+01	7.3112788206E+01	-4.4816832280E+02	5.6350988910E+02	3.2500000000E+02	0.000E+00	0.0
	25	2	5	5	0	0	1.0212877905E+02	7.1425291529E+01	-1.7192075195E+01	1.7746074244E+02	1.2515944981E+02	0.000E+00	0.0
	-5	1	9	9	0	501	1.0517927602E+02	8.3578680819E+01	-4.8966626020E+01	1.4304991735E+02	4.1800000000E+00	0.000E+00	0.0
	5	1	9	9	501	0	-3.0504969608E+00	-1.2153389290E+01	3.1774550826E+01	3.4410825086E+01	4.1800000000E+00	0.000E+00	0.0
</event>
<event>
    11  -1  1.0000000E+00  1.0000000E+00  -1.0000000E+00  -1.0000000E+00
	2212	-1	0	0	0	0	0.0000000000E+00	0.0000000000E+00	6.5000000000E+03	6.5000000000E+03	9.3827000000E-01	0.000E+00	0.0
	2212	-1	0	0	0	0	0.0000000000E+00	0.0000000000E+00	-6.5000000000E+03	6.5000000000E+03	9.3827000000E-01	0.000E+00	0.0
	2212	1	0	0	0	0	0.0000000000E+00	0.0000000000E+00	6.2984800607E+03	6.2984800607E+03	9.3827000000E-01	0.000E+00	0.0
	2212	1	0	0	0	0	0.0000000000E+00	0.0000000000E+00	-5.1534709603E+03	5.1534709603E+03	9.3827000000E-01	0.000E+00	0.0
	51	2	1	2	0	0	-2.7301396473E+01	-1.1493109824E+02	-1.2872071604E+03	1.6602007706E+03	1.0418300252E+03	0.000E+00	0.0
	1000022	2	5	5	0	0	2.7301396473E+01	1.1493109824E+02	-8.0173619789E+02	1.1640445841E+03	8.3562212705E+02	0.000E+00	0.0
	14	1	6	6	0	0	8.6123862492E+01	1.5584571341E+02	-7.3711137477E+02	8.2502326325E+02	3.2500000000E+02	0.000E+00	0.0
	-14	1	6	6	0	0	-5.8822466019E+01	-4.0914615164E+01	-6.4624823117E+01	3.3902132087E+02	3.2500000000E+02	0.000E+00	0.0
	25	2	5	5	0	0	-2.7301396473E+01	-1.1493109824E+02	-3.4327290255E+02	3.8400439489E+02	1.2517414300E+02	0.000E+00	0.0
	-5	1	9	9	0	501	1.9253524947E+01	-2.3910579304E+01	-6.0071860779E+00	3.1559035316E+01	4.1800000000E+00	0.000E+00	0.0
	5	1	9	9	501	0	-4.6554921420E+01	-9.1020518939E+01	-3.3726571647E+02	3.5244535957E+02	4.1800000000E+00	0.000E+00	0.0
</event>
<event>
    11  -1  1.0000000E+00  1.0000000E+00  -1.0000000E+00  -1.0000000E+00
	2212	-1	0	0	0	0	0.0000000000E+00	0.0000000000E+00	6.5000000000E+03	6.5000000000E+03	9.3827000000E-01	0.000E+00	0.0
	2212	-1	0	0	0	0	0.0000000000E+00	0.0000000000E+00	-6.5000000000E+03	6.5000000000E+03	9.3827000000E-01	0.000E+00	0.0
	2212	1	0	0	0	0	0.0000000000E+00	0.0000000000E+00	6.1980061803E+03	6.1980061803E+03	9.3827000000E-01	0.000E+00	0.0
	2212	1	0	0	0	0	0.0000000000E+00	0.0000000000E+00	-5.5991972957E+03	5.5991972957E+03	9.3827000000E-01	0.000E+00	0.0
	51	2	1	2	0	0	9.1919730034E+00	-1.0527856357E+02	-5.1248417484E+02	1.1670284896E+03	1.0431430380E+03	0.000E+00	0.0
	1000022	2	5	5	0	0	-9.1919730034E+00	1.0527856357E+02	-5.8549628888E+02	1.0384282414E+03	8.5109296783E+02	0.000E+00	0.0
	14	1	6	6	0	0	1.3330094849E+02	8.0283040312E+01	-5.7978905586E+02	6.8263816090E+02	3.2500000000E+02	0.000E+00	0.0
	-14	1	6	6	0	0	-1.4249292149E+02	2.4995523260E+01	-5.7072330254E+00	3.5579008048E+02	3.2500000000E+02	0.000E+00	0.0
	25	2	5	5	0	0	9.1919730034E+00	-1.0527856357E+02	-1.3312595739E+01	1.6436828261E+02	1.2518641622E+02	0.000E+00	0.0
	-5	1	9	9	0	501	4.3206166341E+01	9.1552113212E+00	-2.7862874602E+00	4.4450269988E+01	4.1800000000E+00	0.000E+00	0.0
	5	1	9	9	501	0	-3.4014193337E+01	-1.1443377489E+02	-1.0526308279E+01	1.1991801262E+02	4.1800000000E+00	0.000E+00	0.0
</event>
<event>
    11  -1  1.0000000E+00  1.0000000E+00  -1.0000000E+00  -1.0000000E+00
	2212	-1	0	0	0	0	0.0000000000E+00	0.0000000000E+00	6.5000000000E+03	6.5000000000E+03	9.3827000000E-01	0.000E+00	0.0
	2212	-1	0	0	0	0	0.0000000000E+00	0.0000000000E+00	-6.5000000000E+03	6.5000000000E+03	9.3827000000E-01	0.000E+00	0.0
	2212	1	0	0	0	0	0.0000000000E+00	0.0000000000E+00	5.2140741104E+03	5.2140741104E+03	9.3827000000E-01	0.000E+00	0.0
	2212	1	0	0	0	0	0.0000000000E+00	0.0000000000E+00	-6.2828981036E+03	6.2828981036E+03	9.3827000000E-01	0.000E+00	0.0
	51	2	1	2	0	0	-1.3869116187E+02	-1.5292285202E+01	1.1542937534E+03	1.5711686602E+03	1.0567439601E+03	0.000E+00	0.0
	1000022	2	5	5	0	0	1.3869116187E+02	1.5292285202E+01	7.9701095986E+02	1.1728427222E+03	8.4903738930E+02	0.000E+00	0.0
	14	1	6	6	0	0	-1.5923612530E+02	-1.1269209337E+02	4.9441102901E+02	6.2299511805E+02	3.2500000000E+02	0.000E+00	0.0
	-14	1	6	6	0	0	2.9792728717E+02	1.2798437857E+02	3.0259993085E+02	5.4984760411E+02	3.2500000000E+02	0.000E+00	0.0
	25	2	5	5	0	0	-1.3869116187E+02	-1.5292285202E+01	2.7181303335E+02	3.3018506388E+02	1.2518290196E+02	0.000E+00	0.0
	-5	1	9	9	0	501	-3.9676379171E+01	-2.7512596476E+01	2.0352180517E+02	2.0921222624E+02	4.1800000000E+00	0.000E+00	0.0
	5	1	9	9	501	0	-9.9014782698E+01	1.2220311274E+01	6.8291228183E+01	1.2097283764E+02	4.1800000000E+00	0.000E+00	0.0
</event>
<event>
    11  -1  1.0000000E+00  1.0000000E+00  -1.0000000E+00  -1.0000000E+00
	2212	-1	0	0	0	0	0.0000000000E+00	0.0000000000E+00	6.5000000000E+03	6.5000000000E+03	9.3827000000E-01	0.000E+00	0.0
	2212	-1	0	0	0	0	0.0000000000E+00	0.0000000000E+00	-6.5000000000E+03	6.5000000000E+03	9.3827000000E-01	0.000E+00	0.0
	2212	1	0	0	0	0	0.0000000000E+00	0.0000000000E+00	6.2809986341E+03	6.2809986341E+03	9.3827000000E-01	0.000E+00	0.0
	2212	1	0	0	0	0	0.0000000000E+00	0.0000000000E+00	-5.2681410777E+03	5.2681410777E+03	9.3827000000E-01	0.000E+00	0.0
	51	2	1	2	0	0	7.6338021819E+01	-3.8850002451E+01	-8.9029564708E+02	1.3707947701E+03	1.0388046719E+03	0.000E+00	0.0
	1000022	2	5	5	0	0	-7.6338021819E+01	3.8850002451E+01	-9.6937489167E+02	1.2930764888E+03	8.5148241854E+02	0.000E+00	0.0
	14	1	6	6	0	0	-2.5136172102E+02	7.3287132979E+01	-2.5734297759E+02	4.9031023523E+02	3.2500000000E+02	0.000E+00	0.0
	-14	1	6	6	0	0	1.7502369920E+02	-3.4437130528E+01	-7.1203191409E+02	8.0276625360E+02	3.2500000000E+02	0.000E+00	0.0
	25	2	5	5	0	0	7.6338021819E+01	-3.8850002451E+01	-4.3482664670E+01	1.5778379935E+02	1.2517255668E+02	0.000E+00	0.0
	-5	1	9	9	0	501	7.4032964947E+01	-6.2482697773E+00	-7.9551737380E+01	1.0893058383E+02	4.1800000000E+00	0.000E+00	0.0
	5	1	9	9	501	0	2.3050568722E+00	-3.2601732673E+01	3.6069072710E+01	4.8853215520E+01	4.1800000000E+00	0.000E+00	0.0
</event>
<event>
    11  -1  1.0000000E+00  1.0000000E+00  -1.0000000E+00  -1.0000000E+00
	2212	-1	0	0	0	0	0.0000000000E+00	0.0000000000E+00	6.5000000000E+03	6.5000000000E+03	9.3827000000E-01	0.000E+00	0.0
	2212	-1	0	0	0	0	0.0000000000E+00	0.0000000000E+00	-6.5000000000E+03	6.5000000000E+03	9.3827000000E-01	0.000E+00	0.0
	2212	1	0	0	0	0	0.0000000000E+00	0.0000000000E+00	6.2709943077E+03	6.2709943077E+03	9.3827000000E-01	0.000E+00	0.0
	2212	1	0	0	0	0	0.0000000000E+00	0.0000000000E+00	-5.3116527220E+03	5.3116527220E+03	9.3827000000E-01	0.000E+00	0.0
	51	2	1	2	0	0	5.9989323277E+01	-1.2187321003E+02	-9.3070339527E+02	1.4047112773E+03	1.0433375123E+03	0.000E+00	0.0
	1000022	2	5	5	0	0	-5.9989323277E+01	1.2187321003E+02	-8.2471802253E+02	1.1887880538E+03	8.4534337511E+02	0.000E+00	0.0
	14	1	6	6	0	0	2.3089058743E+02	1.0752957571E+02	-3.2598343421E+02	5.2608295201E+02	3.2500000000E+02	0.000E+00	0.0
	-14	1	6	6	0	0	-2.9087991070E+02	1.4343634321E+01	-4.9873458831E+02	6.6270510174E+02	3.2500000000E+02	0.000E+00	0.0
	25	2	5	5	0	0	5.9989323277E+01	-1.2187321003E+02	-1.3462356311E+02	2.2856491654E+02	1.2516636568E+02	0.000E+00	0.0
	-5	1	9	9	0	501	-1.7080997171E+01	-8.2130291422E+01	-2.2864070641E+01	8.7048166895E+01	4.1800000000E+00	0.000E+00	0.0
	5	1	9	9	501	0	7.7070320449E+01	-3.9742918609E+01	-1.1175949247E+02	1.4151674965E+02	4.1800000000E+00	0.000E+00	0.0
</event>
<event>
    11  -1  1.0000000E+00  1.0000000E+00  -1.0000000E+00  -1.0000000E+00
	2212	-1	0	0	0	0	0.0000000000E+00	0.0000000000E+00	6.5000000000E+03	6.5000000000E+03	9.3827000000E-01	0.000E+00	0.0
	2212	-1	0	0	0	0	0.0000000000E+00	0.0000000000E+00	-6.5000000000E+03	6.5000000000E+03	9.3827000000E-01	0.000E+00	0.0
	2212	1	0	0	0	0	0.0000000000E+00	0.0000000000E+00	6.2842648204E+03	6.2842648204E+03	9.3827000000E-01	0.000E+00	0.0
	2212	1	0	0	0	0	0.0000000000E+00	0.0000000000E+00	-5.2098527129E+03	5.2098527129E+03	9.3827000000E-01	0.000E+00	0.0
	51	2	1	2	0	0	1.1483748249E+02	8.8735380779E+01	-1.0914203464E+03	1.5249854473E+03	1.0551400982E+03	0.000E+00	0.0
	1000022	2	5	5	0	0	-1.1483748249E+02	-8.8735380779E+01	-8.7231924921E+02	1.2273672167E+03	8.5113324269E+02	0.000E+00	0.0
	14	1	6	6	0	0	1.8333712077E+02	-1.0914275411E+02	-5.7852691186E+02	6.9702441017E+02	3.2500000000E+02	0.000E+00	0.0
	-14	1	6	6	0	0	-2.9817460326E+02	2.0407373328E+01	-2.9379233735E+02	5.3034280650E+02	3.2500000000E+02	0.000E+00	0.0
	25	2	5	5	0	0	1.1483748249E+02	8.8735380779E+01	-2.0209285825E+02	2.7851525003E+02	1.2517030779E+02	0.000E+00	0.0
	-5	1	9	9	0	501	8.1278564331E+01	-1.4607848718E+01	-9.4029815878E+01	1.2521450770E+02	4.1800000000E+00	0.000E+00	0.0
	5	1	9	9	501	0	3.3558918159E+01	1.0334322950E+02	-1.0806304238E+02	1.5330074233E+02	4.1800000000E+00	0.000E+00	0.0
</event>
<event>
    11  -1  1.0000000E+00  1.0000000E+00  -1.0000000E+00  -1.0000000E+00
	2212	-1	0	0	0	0	0.0000000000E+00	0.0000000000E+00	6.5000000000E+03	6.5000000000E+03	9.3827000000E-01	0.000E+00	0.0
	2212	-1	0	0	0	0	0.0000000000E+00	0.0000000000E+00	-6.5000000000E+03	6.5000000000E+03	9.3827000000E-01	0.000E+00	0.0
	2212	1	0	0	0	0	0.0000000000E+00	0.0000000000E+00	6.2017235193E+03	6.2017235193E+03	9.3827000000E-01	0.000E+00	0.0
	2212	1	0	0	0	0	0.0000000000E+00	0.0000000000E+00	-5.5622628960E+03	5.5622628960E+03	9.3827000000E-01	0.000E+00	0.0
	51	2	1	2	0	0	5.2405694532E+01	1.3948012007E+02	-6.4993270832E+02	1.2503732559E+03	1.0577427347E+03	0.000E+00	0.0
	1000022	2	5	5	0	0	-5.2405694532E+01	-1.3948012007E+02	-5.1762824214E+02	1.0064055719E+03	8.5012476575E+02	0.000E+00	0.0
	14	1	6	6	0	0	1.8702477477E+02	-1.0983535108E+02	-4.5012810047E+02	5.9605568327E+02	3.2500000000E+02	0.000E+00	0.0
	-14	1	6	6	0	0	-2.3943046930E+02	-2.9644768990E+01	-6.7500141668E+01	4.1034988861E+02	3.2500000000E+02	0.000E+00	0.0
	25	2	5	5	0	0	5.2405694532E+01	1.3948012007E+02	-1.2183238112E+02	2.2960801283E+02	1.2520243509E+02	0.000E+00	0.0
	-5	1	9	9	0	501	3.3476032187E+01	6.7305303601E+01	-1.3418343269E+02	1.5386134873E+02	4.1800000000E+00	0.000E+00	0.0
	5	1	9	9	501	0	1.8929662345E+01	7.2174816469E+01	1.2351051565E+01	7.5746664108E+01	4.1800000000E+00	0.000E+00	0.0
</event>
<event>
    11  -1  1.0000000E+00  1.0000000E+00  -1.0000000E+00  -1.0000000E+00
	2212	-1	0	0	0	0	0.0000000000E+00	0.0000000000E+00	6.5000000000E+03	6.5000000000E+03	9.3827000000E-01	0.000E+00	0.0
	2212	-1	0	0	0	0	0.0000000000E+00	0.0000000000E+00	-6.5000000000E+03	6.5000000000E+03	9.3827000000E-01	0.000E+00	0.0
	2212	1	0	0	0	0	0.0000000000E+00	0.0000000000E+00	5.7985134200E+03	5.7985134200E+03	9.3827000000E-01	0.000E+00	0.0
	2212	1	0	0	0	0	0.0000000000E+00	0.0000000000E+00	-6.1199568585E+03	6.1199568585E+03	9.3827000000E-01	0.000E+00	0.0
	51	2	1	2	0	0	-1.9963085403E+00	2.6621863111E+01	2.0368744650E+02	1.0528921782E+03	1.0326570845E+03	0.000E+00	0.0
	1000022	2	5	5	0	0	1.9963085403E+00	-2.6621863111E+01	3.8782029717E+02	9.3729685218E+02	8.5288222949E+02	0.000E+00	0.0
	14	1	6	6	0	0	1.4190201106E+02	-1.6917787500E+02	-5.4830692532E-01	3.9291555680E+02	3.2500000000E+02	0.000E+00	0.0
	-14	1	6	6	0	0	-1.3990570252E+02	1.4255601189E+02	3.8836860409E+02	5.4438129539E+02	3.2500000000E+02	0.000E+00	0.0
	25	2	5	5	0	0	-1.9963085403E+00	2.6621863111E+01	-6.6376858639E+01	1.4423286927E+02	1.2523787115E+02	0.000E+00	0.0
	-5	1	9	9	0	501	-2.3629122337E+01	2.5266544533E+01	2.9618267724E+01	4.5732350454E+01	4.1800000000E+00	0.000E+00	0.0
	5	1	9	9	501	0	2.1632813797E+01	1.3553185781E+00	-9.5995126363E+01	9.8500518814E+01	4.1800000000E+00	0.000E+00	0.0
</event>
<event>
    11  -1  1.0000000E+00  1.0000000E+00  -1.0000000E+00  -1.0000000E+00
	2212	-1	0	0	0	0	0.0000000000E+00	0.0000000000E+00	6.5000000000E+03	6.5000000000E+03	9.3827000000E-01	0.000E+00	0.0
	2212	-1	0	0	0	0	0.0000000000E+00	0.0000000000E+00	-6.5000000000E+03	6.5000000000E+03	9.3827000000E-01	0.000E+00	0.0
	2212	1	0	0	0	0	0.0000000000E+00	0.0000000000E+00	6.2791507207E+03	6.2791507207E+03	9.3827000000E-01	0.000E+00	0.0
	2212	1	0	0	0	0	0.0000000000E+00	0.0000000000E+00	-5.0958235823E+03	5.0958235823E+03	9.3827000000E-01	0.000E+00	0.0
	51	2	1	2	0	0	1.5673652489E+02	-9.1696446068E+01	-1.3272663984E+03	1.7421412308E+03	1.1137528448E+03	0.000E+00	0.0
	1000022	2	5	5	0	0	-1.5673652489E+02	9.1696446068E+01	-8.0709854052E+02	1.1889145693E+03	8.5389415184E+02	0.000E+00	0.0
	14	1	6	6	0	0	-1.4966659241E+02	3.1653599450E+02	-4.4427710559E+02	6.5238199795E+02	3.2500000000E+02	0.000E+00	0.0
	-14	1	6	6	0	0	-7.0699324721E+00	-2.2483954843E+02	-3.6282143493E+02	5.3653257136E+02	3.2500000000E+02	0.000E+00	0.0
	25	2	5	5	0	0	1.5673652489E+02	-9.1696446068E+01	-3.7622859790E+02	4.3611112769E+02	1.2518139383E+02	0.000E+00	0.0
	-5	1	9	9	0	501	9.8047710025E+01	-2.4760542438E+01	-8.7004225829E+01	1.3346776995E+02	4.1800000000E+00	0.000E+00	0.0
	5	1	9	9	501	0	5.8688814860E+01	-6.6935903629E+01	-2.8922437207E+02	3.0264335774E+02	4.1800000000E+00	0.000E+00	0.0
</event>
<event>
    11  -1  1.0000000E+00  1.0000000E+00  -1.0000000E+00  -1.0000000E+00
	2212	-1	0	0	0	0	0.0000000000E+00	0.0000000000E+00	6.5000000000E+03	6.5000000000E+03	9.3827000000E-01	0.000E+00	0.0
	2212	-1	0	0	0	0	0.0000000000E+00	0.0000000000E+00	-6.5000000000E+03	6.5000000000E+03	9.3827000000E-01	0.000E+00	0.0
	2212	1	0	0	0	0	0.0000000000E+00	0.0000000000E+00	5.9617747278E+03	5.9617747278E+03	9.3827000000E-01	0.000E+00	0.0
	2212	1	0	0	0	0	0.0000000000E+00	0.0000000000E+00	-5.9901102990E+03	5.9901102990E+03	9.3827000000E-01	0.000E+00	0.0
	51	2	1	2	0	0	-8.6895413374E+01	-2.9050321075E+01	-6.6922669348E+01	1.0538574240E+03	1.0477318800E+03	0.000E+00	0.0
	1000022	2	5	5	0	0	8.6895413374E+01	2.9050321075E+01	1.1889280093E+02	8.6848508018E+02	8.5541574826E+02	0.000E+00	0.0
	14	1	6	6	0	0	2.7271430298E+02	5.0776422766E+01	-9.3661033817E+01	4.3743425268E+02	3.2500000000E+02	0.000E+00	0.0
	-14	1	6	6	0	0	-1.8581888960E+02	-2.1726101691E+01	2.1255383475E+02	4.3105082751E+02	3.2500000000E+02	0.000E+00	0.0
	25	2	5	5	0	0	-8.6895413374E+01	-2.9050321075E+01	-9.0557229641E+01	1.7962989301E+02	1.2518607192E+02	0.000E+00	0.0
	-5	1	9	9	0	501	1.9386855702E+00	1.3917647405E+01	-7.8813756354E+01	8.0165703400E+01	4.1800000000E+00	0.000E+00	0.0
	5	1	9	9	501	0	-8.8834098945E+01	-4.2967968480E+01	-1.1743473287E+01	9.9464189613E+01	4.1800000000E+00	0.000E+00	0.0
</event>
<event>
    11  -1  1.0000000E+00  1.0000000E+00  -1.0000000E+00  -1.0000000E+00
	2212	-1	0	0	0	0	0.0000000000E+00	0.0000000000E+00	6.5000000000E+03	6.5000000000E+03	9.3827000000E-01	0.000E+00	0.0
	2212	-1	0	0	0	0	0.0000000000E+00	0.0000000000E+00	-6.5000000000E+03	6.5000000000E+03	9.3827000000E-01	0.000E+00	0.0
	2212	1	0	0	0	0	0.0000000000E+00	0.0000000000E+00	5.0686980395E+03	5.0686980395E+03	9.3827000000E-01	0.000E+00	0.0
	2212	1	0	0	0	0	0.0000000000E+00	0.0000000000E+00	-6.3030493765E+03	6.3030493765E+03	9.3827000000E-01	0.000E+00	0.0
	51	2	1	2	0	0	-3.5853155724E+01	-1.5502896624E+02	1.2406434605E+03	1.6407616767E+03	1.0618772313E+03	0.000E+00	0.0
	1000022	2	5	5	0	0	3.5853155724E+01	1.5502896624E+02	1.0064416695E+03	1.3234042459E+03	8.4448477477E+02	0.000E+00	0.0
	14	1	6	6	0	0	9.4213267265E+01	1.1112289223E+02	1.1901245092E+02	3.7551751009E+02	3.2500000000E+02	0.000E+00	0.0
	-14	1	6	6	0	0	-5.8360111541E+01	4.3906074009E+01	8.8742921858E+02	9.4788673582E+02	3.2500000000E+02	0.000E+00	0.0
	25	2	5	5	0	0	-3.5853155724E+01	-1.5502896624E+02	2.2790966745E+02	3.0484833812E+02	1.2518092343E+02	0.000E+00	0.0
	-5	1	9	9	0	501	1.9458163951E+01	-3.1704236710E+01	1.3671303955E+02	1.4174521633E+02	4.1800000000E+00	0.000E+00	0.0
	5	1	9	9	501	0	-5.5311319675E+01	-1.2332472953E+02	9.1196627898E+01	1.6310312179E+02	4.1800000000E+00	0.000E+00	0.0
</event>
<event>
    11  -1  1.0000000E+00  1.0000000E+00  -1.0000000E+00  -1.0000000E+00
	2212	-1	0	0	0	0	0.0000000000E+00	0.0000000000E+00	6.5000000000E+03	6.5000000000E+03	9.3827000000E-01	0.000E+00	0.0
	2212	-1	0	0	0	0	0.0000000000E+00	0.0000000000E+00	-6.5000000000E+03	6.5000000000E+03	9.3827000000E-01	0.000E+00	0.0
	2212	1	0	0	0	0	0.0000000000E+00	0.0000000000E+00	5.0247660564E+03	5.0247660564E+03	9.3827000000E-01	0.000E+00	0.0
	2212	1	0	0	0	0	0.0000000000E+00	0.0000000000E+00	-6.3071616577E+03	6.3071616577E+03	9.3827000000E-01	0.000E+00	0.0
	51	2	1	2	0	0	1.2797512877E+01	-5.1195458600E+01	1.4244494896E+03	1.7803841643E+03	1.0667364589E+03	0.000E+00	0.0
	1000022	2	5	5	0	0	-1.2797512877E+01	5.1195458600E+01	9.5222313102E+02	1.3110657184E+03	8.9965530916E+02	0.000E+00	0.0
	14	1	6	6	0	0	-1.0170701904E+02	2.4211831960E+02	1.9617429130E+02	4.6160042350E+02	3.2500000000E+02	0.000E+00	0.0
	-14	1	6	6	0	0	8.8909506159E+01	-1.9092286100E+02	7.5604883972E+02	8.4946529486E+02	3.2500000000E+02	0.000E+00	0.0
	25	2	5	5	0	0	1.2797512877E+01	-5.1195458600E+01	3.3017247025E+02	3.5700656754E+02	1.2512025350E+02	0.000E+00	0.0
	-5	1	9	9	0	501	-6.1272359144E+00	3.7967102424E+01	5.6103199700E+01	6.8147526022E+01	4.1800000000E+00	0.000E+00	0.0
	5	1	9	9	501	0	1.8924748791E+01	-8.9162561024E+01	2.7406927055E+02	2.8885904152E+02	4.1800000000E+00	0.000E+00	0.0
</event>
<event>
    11  -1  1.0000000E+00  1.0000000E+00  -1.0000000E+00  -1.0000000E+00
	2212	-1	0	0	0	0	0.0000000000E+00	0.0000000000E+00	6.5000000000E+03	6.5000000000E+03	9.3827000000E-01	0.000E+00	0.0
	2212	-1	0	0	0	0	0.0000000000E+00	0.0000000000E+00	-6.5000000000E+03	6.5000000000E+03	9.3827000000E-01	0.000E+00	0.0
	2212	1	0	0	0	0	0.0000000000E+00	0.0000000000E+00	4.9484245655E+03	4.9484245655E+03	9.3827000000E-01	0.000E+00	0.0
	2212	1	0	0	0	0	0.0000000000E+00	0.0000000000E+00	-6.3212231276E+03	6.3212231276E+03	9.3827000000E-01	0.000E+00	0.0
	51	2	1	2	0	0	-8.5805101496E+01	-7.3418809248E+01	1.2454406248E+03	1.6350591429E+03	1.0533485720E+03	0.000E+00	0.0
	1000022	2	5	5	0	0	8.5805101496E+01	7.3418809248E+01	1.2663824798E+03	1.5309835845E+03	8.5289701239E+02	0.000E+00	0.0
	14	1	6	6	0	0	-3.3920760446E-01	1.5891199218E+02	1.0761431759E+03	1.1353247427E+03	3.2500000000E+02	0.000E+00	0.0
	-14	1	6	6	0	0	8.6144309100E+01	-8.5493182936E+01	1.9023930390E+02	3.9565884176E+02	3.2500000000E+02	0.000E+00	0.0
	25	2	5	5	0	0	-8.5805101496E+01	-7.3418809248E+01	1.0641608222E+02	1.9936872243E+02	1.2518253845E+02	0.000E+00	0.0
	-5	1	9	9	0	501	-2.7232685182E+01	3.4671955591E+01	3.9459551400E+01	5.9315194035E+01	4.1800000000E+00	0.000E+00	0.0
	5	1	9	9	501	0	-5.8572416313E+01	-1.0809076484E+02	6.6956530824E+01	1.4005352840E+02	4.1800000000E+00	0.000E+00	0.0
</event>
<event>
    11  -1  1.0000000E+00  1.0000000E+00  -1.0000000E+00  -1.0000000E+00
	2212	-1	0	0	0	0	0.0000000000E+00	0.0000000000E+00	6.5000000000E+03	6.5000000000E+03	9.3827000000E-01	0.000E+00	0.0
	2212	-1	0	0	0	0	0.0000000000E+00	0.0000000000E+00	-6.5000000000E+03	6.5000000000E+03	9.3827000000E-01	0.000E+00	0.0
	2212	1	0	0	0	0	0.0000000000E+00	0.0000000000E+00	6.3137452611E+03	6.3137452611E+03	9.3827000000E-01	0.000E+00	0.0
	2212	1	0	0	0	0	0.0000000000E+00	0.0000000000E+00	-5.0095225581E+03	5.0095225581E+03	9.3827000000E-01	0.000E+00	0.0
	51	2	1	2	0	0	5.3615649586E+01	1.1454064803E+02	-1.4248685953E+03	1.7767044378E+03	1.0537712975E+03	0.000E+00	0.0
	1000022	2	5	5	0	0	-5.3615649586E+01	-1.1454064803E+02	-9.5978522897E+02	1.2890494386E+03	8.5115602070E+02	0.000E+00	0.0
	14	1	6	6	0	0	4.8486711555E+01	3.5688494973E+01	-8.3227238934E+02	8.9550374647E+02	3.2500000000E+02	0.000E+00	0.0
	-14	1	6	6	0	0	-1.0210236114E+02	-1.5022914301E+02	-1.2751283962E+02	3.9354569217E+02	3.2500000000E+02	0.000E+00	0.0
	25	2	5	5	0	0	5.3615649586E+01	1.1454064803E+02	-3.4443747401E+02	3.8768274222E+02	1.2516603843E+02	0.000E+00	0.0
	-5	1	9	9	0	501	4.5898851235E+00	-5.4795087592E+00	8.3769466184E+00	1.1778696716E+01	4.1800000000E+00	0.000E+00	0.0
	5	1	9	9	501	0	4.9025764463E+01	1.2002015679E+02	-3.5281442063E+02	3.7590404550E+02	4.1800000000E+00	0.000E+00	0.0
</event>
<event>
    11  -1  1.0000000E+00  1.0000000E+00  -1.0000000E+00  -1.0000000E+00
	2212	-1	0	0	0	0	0.0000000000E+00	0.0000000000E+00	6.5000000000E+03	6.5000000000E+03	9.3827000000E-01	0.000E+00	0.0
	2212	-1	0	0	0	0	0.0000000000E+00	0.0000000000E+00	-6.5000000000E+03	6.5000000000E+03	9.3827000000E-01	0.000E+00	0.0
	2212	1	0	0	0	0	0.0000000000E+00	0.0000000000E+00	5.2359017319E+03	5.2359017319E+03	9.3827000000E-01	0.000E+00	0.0
	2212	1	0	0	0	0	0.0000000000E+00	0.0000000000E+00	-6.2782639450E+03	6.2782639450E+03	9.3827000000E-01	0.000E+00	0.0
	51	2	1	2	0	0	-5.6849114490E+01	-1.2944453347E+00	1.1053036903E+03	1.5317031036E+03	1.0588600720E+03	0.000E+00	0.0
	1000022	2	5	5	0	0	5.6849114490E+01	1.2944453347E+00	8.3991561963E+02	1.2411080941E+03	9.1195260609E+02	0.000E+00	0.0
	14	1	6	6	0	0	3.3747533166E+02	-1.2386569050E+01	3.2416639449E+02	5.6987005351E+02	3.2500000000E+02	0.000E+00	0.0
	-14	1	6	6	0	0	-2.8062621717E+02	1.3681014385E+01	5.1574922515E+02	6.7123804060E+02	3.2500000000E+02	0.000E+00	0.0
	25	2	5	5	0	0	-5.6849114490E+01	-1.2944453347E+00	2.0244659350E+02	2.4472622893E+02	1.2519107995E+02	0.000E+00	0.0
	-5	1	9	9	0	501	-3.8643017025E+01	-4.5977556771E+01	3.3338162392E+01	6.8819502781E+01	4.1800000000E+00	0.000E+00	0.0
	5	1	9	9	501	0	-1.8206097465E+01	4.4683111437E+01	1.6910843111E+02	1.7590672615E+02	4.1800000000E+00	0.000E+00	0.0
</event>
<event>
    11  -1  1.0000000E+00  1.0000000E+00  -1.0000000E+00  -1.0000000E+00
	2212	-1	0	0	0	0	0.0000000000E+00	0.0000000000E+00	6.5000000000E+03	6.5000000000E+03	9.3827000000E-01	0.000E+00	0.0
	2212	-1	0	0	0	0	0.0000000000E+00	0.0000000000E+00	-6.5000000000E+03	6.5000000000E+03	9.3827000000E-01	0.000E+00	0.0
	2212	1	0	0	0	0	0.0000000000E+00	0.0000000000E+00	6.3255446602E+03	6.3255446602E+03	9.3827000000E-01	0.000E+00	0.0
	2212	1	0	0	0	0	0.0000000000E+00	0.0000000000E+00	-4.9177539994E+03	4.9177539994E+03	9.3827000000E-01	0.000E+00	0.0
	51	2	1	2	0	0	-4.1293899284E+01	1.1383986405E+02	-1.5396111062E+03	1.8679379309E+03	1.0507735506E+03	0.000E+00	0.0
	1000022	2	5	5	0	0	4.1293899284E+01	-1.1383986405E+02	-1.0363428126E+03	1.3464474375E+03	8.5102853999E+02	0.000E+00	0.0
	14	1	6	6	0	0	-1.1919141670E+02	3.4274550273E+01	-8.3839701631E+02	9.0769813020E+02	3.2500000000E+02	0.000E+00	0.0
	-14	1	6	6	0	0	1.6048531598E+02	-1.4811441432E+02	-1.9794579634E+02	4.3874930731E+02	3.2500000000E+02	0.000E+00	0.0
	25	2	5	5	0	0	-4.1293899284E+01	1.1383986405E+02	-3.7144784821E+02	4.1025390290E+02	1.2518011079E+02	0.000E+00	0.0
	-5	1	9	9	0	501	-7.0987473539E+01	1.1193485161E+02	-2.2860054582E+02	2.6428074912E+02	4.1800000000E+00	0.000E+00	0.0
	5	1	9	9	501	0	2.9693574255E+01	1.9050124372E+00	-1.4284730238E+02	1.4597315377E+02	4.1800000000E+00	0.000E+00	0.0
</event>
<event>
    11  -1  1.0000000E+00  1.0000000E+00  -1.0000000E+00  -1.0000000E+00
	2212	-1	0	0	0	0	0.0000000000E+00	0.0000000000E+00	6.5000000000E+03	6.5000000000E+03	9.3827000000E-01	0.000E+00	0.0
	2212	-1	0	0	0	0	0.0000000000E+00	0.0000000000E+00	-6.5000000000E+03	6.5000000000E+03	9.3827000000E-01	0.000E+00	0.0
	2212	1	0	0	0	0	0.0000000000E+00	0.0000000000E+00	6.0873099589E+03	6.0873099589E+03	9.3827000000E-01	0.000E+00	0.0
	2212	1	0	0	0	0	0.0000000000E+00	0.0000000000E+00	-5.8500242257E+03	5.8500242257E+03	9.3827000000E-01	0.000E+00	0.0
	51	2	1	2	0	0	-1.0622179528E+02	-5.1540955361E+01	-2.2262513734E+02	1.0660467193E+03	1.0358349850E+03	0.000E+00	0.0
	1000022	2	5	5	0	0	1.0622179528E+02	5.1540955361E+01	-2.1392605001E+02	8.8901403038E+02	8.5477602415E+02	0.000E+00	0.0
	14	1	6	6	0	0	1.6038015115E+02	-1.9860651877E+02	2.0038913187E+01	4.1375463770E+02	3.2500000000E+02	0.000E+00	0.0
	-14	1	6	6	0	0	-5.4158355864E+01	2.5014747413E+02	-2.3396496320E+02	4.7525939268E+02	3.2500000000E+02	0.000E+00	0.0
	25	2	5	5	0	0	-1.0622179528E+02	-5.1540955361E+01	-2.3359683214E+01	1.7365178506E+02	1.2517878328E+02	0.000E+00	0.0
	-5	1	9	9	0	501	-9.2973317625E+01	-3.5741348173E+01	-7.0450700094E+01	1.2207479389E+02	4.1800000000E+00	0.000E+00	0.0
	5	1	9	9	501	0	-1.3248477657E+01	-1.5799607189E+01	4.7091016880E+01	5.1576991171E+01	4.1800000000E+00	0.000E+00	0.0
</event>
<event>
    11  -1  1.0000000E+00  1.0000000E+00  -1.0000000E+00  -1.0000000E+00
	2212	-1	0	0	0	0	0.0000000000E+00	0.0000000000E+00	6.5000000000E+03	6.5000000000E+03	9.3827000000E-01	0.000E+00	0.0
	2212	-1	0	0	0	0	0.0000000000E+00	0.0000000000E+00	-6.5000000000E+03	6.5000000000E+03	9.3827000000E-01	0.000E+00	0.0
	2212	1	0	0	0	0	0.0000000000E+00	0.0000000000E+00	6.3011244152E+03	6.3011244152E+03	9.3827000000E-01	0.000E+00	0.0
	2212	1	0	0	0	0	0.0000000000E+00	0.0000000000E+00	-5.1274065588E+03	5.1274065588E+03	9.3827000000E-01	0.000E+00	0.0
	51	2	1	2	0	0	-1.9068672313E+01	-1.2510795126E+02	-1.1822001806E+03	1.5828816046E+03	1.0449408085E+03	0.000E+00	0.0
	1000022	2	5	5	0	0	1.9068672313E+01	1.2510795126E+02	-9.7409939169E+02	1.3041478209E+03	8.5785564068E+02	0.000E+00	0.0
	14	1	6	6	0	0	1.3165606833E+02	-1.3553309606E+02	-6.9515177088E+02	7.9029331581E+02	3.2500000000E+02	0.000E+00	0.0
	-14	1	6	6	0	0	-1.1258739601E+02	2.6064104732E+02	-2.7894762081E+02	5.1385450513E+02	3.2500000000E+02	0.000E+00	0.0
	25	2	5	5	0	0	-1.9068672313E+01	-1.2510795126E+02	-1.9961846472E+02	2.6732120505E+02	1.2488987743E+02	0.000E+00	0.0
	-5	1	9	9	0	501	3.9704349523E+01	-3.4264591607E+01	-1.2556407125E+02	1.3614075804E+02	4.1800000000E+00	0.000E+00	0.0
	5	1	9	9	501	0	-5.8773021837E+01	-9.0843359652E+01	-7.4054393464E+01	1.3118044702E+02	4.1800000000E+00	0.000E+00	0.0
</event>
<event>
    11  -1  1.0000000E+00  1.0000000E+00  -1.0000000E+00  -1.0000000E+00
	2212	-1	0	0	0	0	0.0000000000E+00	0.0000000000E+00	6.5000000000E+03	6.5000000000E+03	9.3827000000E-01	0.000E+00	0.0
	2212	-1	0	0	0	0	0.0000000000E+00	0.0000000000E+00	-6.5000000000E+03	6.5000000000E+03	9.3827000000E-01	0.000E+00	0.0
	2212	1	0	0	0	0	0.0000000000E+00	0.0000000000E+00	5.8090104614E+03	5.8090104614E+03	9.3827000000E-01	0.000E+00	0.0
	2212	1	0	0	0	0	0.0000000000E+00	0.0000000000E+00	-6.1206577574E+03	6.1206577574E+03	9.3827000000E-01	0.000E+00	0.0
	51	2	1	2	0	0	9.2407252305E+01	5.6550034647E+01	3.0849050701E+02	1.0748904523E+03	1.0239560951E+03	0.000E+00	0.0
	1000022	2	5	5	0	0	-9.2407252305E+01	-5.6550034647E+01	2.6611545817E+02	8.9855528010E+02	8.5137955556E+02	0.000E+00	0.0
	14	1	6	6	0	0	-1.3837109449E+02	1.4326338664E+01	-1.3233329801E+02	3.7747702649E+02	3.2500000000E+02	0.000E+00	0.0
	-14	1	6	6	0	0	4.5963842181E+01	-7.0876373311E+01	3.9844875618E+02	5.2107825361E+02	3.2500000000E+02	0.000E+00	0.0
	25	2	5	5	0	0	9.2407252305E+01	5.6550034647E+01	4.5531837783E+01	1.7177650111E+02	1.2528771442E+02	0.000E+00	0.0
	-5	1	9	9	0	501	-2.0117969052E+01	3.2783871826E+00	-2.1832740967E+01	3.0159931688E+01	4.1800000000E+00	0.000E+00	0.0
	5	1	9	9	501	0	1.1252522136E+02	5.3271647465E+01	6.7364578750E+01	1.4161656942E+02	4.1800000000E+00	0.000E+00	0.0
</event>
<event>
    11  -1  1.0000000E+00  1.0000000E+00  -1.0000000E+00  -1.0000000E+00
	2212	-1	0	0	0	0	0.0000000000E+00	0.0000000000E+00	6.5000000000E+03	6.5000000000E+03	9.3827000000E-01	0.000E+00	0.0
	2212	-1	0	0	0	0	0.0000000000E+00	0.0000000000E+00	-6.5000000000E+03	6.5000000000E+03	9.3827000000E-01	0.000E+00	0.0
	2212	1	0	0	0	0	0.0000000000E+00	0.0000000000E+00	5.0776943133E+03	5.0776943133E+03	9.3827000000E-01	0.000E+00	0.0
	2212	1	0	0	0	0	0.0000000000E+00	0.0000000000E+00	-6.3150767253E+03	6.3150767253E+03	9.3827000000E-01	0.000E+00	0.0
	51	2	1	2	0	0	9.6317396057E+01	-1.1965464977E+01	1.2984106014E+03	1.6575162152E+03	1.0257044900E+03	0.000E+00	0.0
	1000022	2	5	5	0	0	-9.6317396057E+01	1.1965464977E+01	9.8689202771E+02	1.3108503427E+03	8.5729372641E+02	0.000E+00	0.0
	14	1	6	6	0	0	1.6422535792E+02	-1.1159822447E+02	2.5054398306E+02	4.5587434599E+02	3.2500000000E+02	0.000E+00	0.0
	-14	1	6	6	0	0	-2.6054275398E+02	1.2356368945E+02	7.3634804466E+02	8.5497599666E+02	3.2500000000E+02	0.000E+00	0.0
	25	2	5	5	0	0	9.6317396057E+01	-1.1965464977E+01	2.5049038424E+02	2.9637861873E+02	1.2519840217E+02	0.000E+00	0.0
	-5	1	9	9	0	501	2.6617446608E+00	-4.3050425799E+01	2.4578454162E+01	4.9819643266E+01	4.1800000000E+00	0.000E+00	0.0
	5	1	9	9	501	0	9.3655651397E+01	3.1084960822E+01	2.2591193008E+02	2.4655897546E+02	4.1800000000E+00	0.000E+00	0.0
</event>
<event>
    11  -1  1.0000000E+00  1.0000000E+00  -1.0000000E+00  -1.0000000E+00
	2212	-1	0	0	0	0	0.0000000000E+00	0.0000000000E+00	6.5000000000E+03	6.5000000000E+03	9.3827000000E-01	0.000E+00	0.0
	2212	-1	0	0	0	0	0.0000000000E+00	0.0000000000E+00	-6.5000000000E+03	6.5000000000E+03	9.3827000000E-01	0.000E+00	0.0
	2212	1	0	0	0	0	0.0000000000E+00	0.0000000000E+00	5.1768590666E+03	5.1768590666E+03	9.3827000000E-01	0.000E+00	0.0
	2212	1	0	0	0	0	0.0000000000E+00	0.0000000000E+00	-6.2908337570E+03	6.2908337570E+03	9.3827000000E-01	0.000E+00	0.0
	51	2	1	2	0	0	-1.1808504580E+02	-1.6039938452E-01	1.2268985585E+03	1.6205708403E+03	1.0521528747E+03	0.000E+00	0.0
	1000022	2	5	5	0	0	1.1808504580E+02	1.6039938452E-01	8.1345737577E+02	1.1860028343E+03	8.5495363446E+02	0.000E+00	0.0
	14	1	6	6	0	0	-1.6506944504E+02	1.6587297567E+02	3.5265581585E+02	5.3362242288E+02	3.2500000000E+02	0.000E+00	0.0
	-14	1	6	6	0	0	2.8315449084E+02	-1.6571257629E+02	4.6080155992E+02	6.5238041145E+02	3.2500000000E+02	0.000E+00	0.0
	25	2	5	5	0	0	-1.1808504580E+02	-1.6039938452E-01	3.0051731467E+02	3.4630434202E+02	1.2518760768E+02	0.000E+00	0.0
	-5	1	9	9	0	501	-1.9335649053E+01	-4.0578643474E+01	2.6810027801E+01	5.2504700944E+01	4.1800000000E+00	0.000E+00	0.0
	5	1	9	9	501	0	-9.8749396747E+01	4.0418244090E+01	2.7370728687E+02	2.9379964108E+02	4.1800000000E+00	0.000E+00	0.0
</event>
<event>
    11  -1  1.0000000E+00  1.0000000E+00  -1.0000000E+00  -1.0000000E+00
	2212	-1	0	0	0	0	0.0000000000E+00	0.0000000000E+00	6.5000000000E+03	6.5000000000E+03	9.3827000000E-01	0.000E+00	0.0
	2212	-1	0	0	0	0	0.0000000000E+00	0.0000000000E+00	-6.5000000000E+03	6.5000000000E+03	9.3827000000E-01	0.000E+00	0.0
	2212	1	0	0	0	0	0.0000000000E+00	0.0000000000E+00	6.2860485100E+03	6.2860485100E+03	9.3827000000E-01	0.000E+00	0.0
	2212	1	0	0	0	0	0.0000000000E+00	0.0000000000E+00	-5.2049044155E+03	5.2049044155E+03	9.3827000000E-01	0.000E+00	0.0
	51	2	1	2	0	0	1.3051936402E+02	6.8245188489E+01	-1.1245813724E+03	1.5474903855E+03	1.0527822757E+03	0.000E+00	0.0
	1000022	2	5	5	0	0	-1.3051936402E+02	-6.8245188489E+01	-8.4860984207E+02	1.2066646294E+03	8.4510836795E+02	0.000E+00	0.0
	14	1	6	6	0	0	1.0701587189E+02	-1.5757142998E+02	-6.4462580075E+02	7.4662478889E+02	3.2500000000E+02	0.000E+00	0.0
	-14	1	6	6	0	0	-2.3753523591E+02	8.9326241496E+01	-2.0398404132E+02	4.6003984048E+02	3.2500000000E+02	0.000E+00	0.0
	25	2	5	5	0	0	1.3051936402E+02	6.8245188489E+01	-2.3253425240E+02	3.0238244509E+02	1.2518088681E+02	0.000E+00	0.0
	-5	1	9	9	0	501	7.3184820029E+01	6.9341789680E+01	-2.2209873627E+02	2.4394594224E+02	4.1800000000E+00	0.000E+00	0.0
	5	1	9	9	501	0	5.7334543991E+01	-1.0966011913E+00	-1.0435516124E+01	5.8436502853E+01	4.1800000000E+00	0.000E+00	0.0
</event>
<event>
    11  -1  1.0000000E+00  1.0000000E+00  -1.0000000E+00  -1.0000000E+00
	2212	-1	0	0	0	0	0.0000000000E+00	0.0000000000E+00	6.5000000000E+03	6.5000000000E+03	9.3827000000E-01	0.000E+00	0.0
	2212	-1	0	0	0	0	0.0000000000E+00	0.0000000000E+00	-6.5000000000E+03	6.5000000000E+03	9.3827000000E-01	0.000E+00	0.0
	2212	1	0	0	0	0	0.0000000000E+00	0.0000000000E+00	5.9291536305E+03	5.9291536305E+03	9.3827000000E-01	0.000E+00	0.0
	2212	1	0	0	0	0	0.0000000000E+00	0.0000000000E+00	-6.0199687574E+03	6.0199687574E+03	9.3827000000E-01	0.000E+00	0.0
	51	2	1	2	0	0	-1.1769845931E+02	5.1946414283E+01	4.9548252627E+01	1.0559842589E+03	1.0469462108E+03	0.000E+00	0.0
	1000022	2	5	5	0	0	1.1769845931E+02	-5.1946414283E+01	1.1684899134E+02	8.6950045252E+02	8.5195421994E+02	0.000E+00	0.0
	14	1	6	6	0	0	-1.5752487415E+01	-5.3523023396E+01	3.2346228251E+02	4.6191525533E+02	3.2500000000E+02	0.000E+00	0.0
	-14	1	6	6	0	0	1.3345094672E+02	1.5766091124E+00	-2.0661329118E+02	4.0758519719E+02	3.2500000000E+02	0.000E+00	0.0
	25	2	5	5	0	0	-1.1769845931E+02	5.1946414283E+01	-2.6033864443E+01	1.8137715959E+02	1.2517409733E+02	0.000E+00	0.0
	-5	1	9	9	0	501	-9.7415755513E+01	8.7083685353E+01	3.8922787105E+00	1.3078998398E+02	4.1800000000E+00	0.000E+00	0.0
	5	1	9	9	501	0	-2.0282703796E+01	-3.5137271070E+01	-2.9926143154E+01	5.0587175604E+01	4.1800000000E+00	0.000E+00	0.0
</event>
</LesHouchesEvents>
