<LesHouchesEvents version="1.0">
<header>
<slha>
######################################################################
## PARAM_CARD AUTOMATICALY GENERATED BY MG5 FOLLOWING UFO MODEL   ####
######################################################################
##                                                                  ##
##  Width set on Auto will be computed following the information    ##
##        present in the decay.py files of the model.               ##
##        See  arXiv:1402.1178 for more details.                    ##
##                                                                  ##
######################################################################

###################################
## INFORMATION FOR MASS
###################################
Block mass 
    6 1.730000e+02 # MT 
   15 1.777000e+00 # MTA 
   23 9.118800e+01 # MZ 
   25 1.250000e+02 # MH 
## Dependent parameters, given by model restrictions.
## Those values should be edited following the 
## analytical expression. MG5 ignores those values 
## but they are important for interfacing the output of MG5
## to external program such as Pythia.
  1 0.000000 # d : 0.0 
  2 0.000000 # u : 0.0 
  3 0.000000 # s : 0.0 
  4 0.000000 # c : 0.0 
  5 0.000000 # b : 0.0 
  11 0.000000 # e- : 0.0 
  12 0.000000 # ve : 0.0 
  13 0.000000 # mu- : 0.0 
  14 0.000000 # vm : 0.0 
  16 0.000000 # vt : 0.0 
  21 0.000000 # g : 0.0 
  22 0.000000 # a : 0.0 
  24 80.419002 # w+ : cmath.sqrt(MZ__exp__2/2. + cmath.sqrt(MZ__exp__4/4. - (aEW*cmath.pi*MZ__exp__2)/(Gf*sqrt__2))) 

###################################
## INFORMATION FOR SMINPUTS
###################################
Block sminputs 
    1 1.325070e+02 # aEWM1 
    2 1.166390e-05 # Gf 
    3 1.180000e-01 # aS 

###################################
## INFORMATION FOR WOLFENSTEIN
###################################
Block wolfenstein 
    1 2.253000e-01 # lamWS 
    2 8.080000e-01 # AWS 
    3 1.320000e-01 # rhoWS 
    4 3.410000e-01 # etaWS 

###################################
## INFORMATION FOR YUKAWA
###################################
Block yukawa 
    6 1.730000e+02 # ymt 
   15 1.777000e+00 # ymtau 

###################################
## INFORMATION FOR DECAY
###################################
DECAY   6 1.491500e+00 # WT 
DECAY  15 2.270000e-12 # WTau 
DECAY  23 2.441404e+00 # WZ 
DECAY  24 2.047600e+00 # WW 
DECAY  25 6.382339e-03 # WH 
## Dependent parameters, given by model restrictions.
## Those values should be edited following the 
## analytical expression. MG5 ignores those values 
## but they are important for interfacing the output of MG5
## to external program such as Pythia.
DECAY  1 0.000000 # d : 0.0 
DECAY  2 0.000000 # u : 0.0 
DECAY  3 0.000000 # s : 0.0 
DECAY  4 0.000000 # c : 0.0 
DECAY  5 0.000000 # b : 0.0 
DECAY  11 0.000000 # e- : 0.0 
DECAY  12 0.000000 # ve : 0.0 
DECAY  13 0.000000 # mu- : 0.0 
DECAY  14 0.000000 # vm : 0.0 
DECAY  16 0.000000 # vt : 0.0 
DECAY  21 0.000000 # g : 0.0 
DECAY  22 0.000000 # a : 0.0
</slha>
</header>
<init>
    2212  2212  6.5000000E+03  6.5000000E+03  -1  -1  -1  -1  3  1
	1.0000000E+00	0.0000000E+00	1.0000000E+00	1
</init>
<event>
    11  -1  1.0000000E+00  1.0000000E+00  -1.0000000E+00  -1.0000000E+00
	2212	-1	0	0	0	0	0.0000000000E+00	0.0000000000E+00	6.5000000000E+03	6.5000000000E+03	9.3827000000E-01	0.000E+00	0.0
	2212	-1	0	0	0	0	0.0000000000E+00	0.0000000000E+00	-6.5000000000E+03	6.5000000000E+03	9.3827000000E-01	0.000E+00	0.0
	2212	1	0	0	0	0	0.0000000000E+00	0.0000000000E+00	6.2690517038E+03	6.2690517038E+03	9.3827000000E-01	0.000E+00	0.0
	2212	1	0	0	0	0	0.0000000000E+00	0.0000000000E+00	-5.3072809882E+03	5.3072809882E+03	9.3827000000E-01	0.000E+00	0.0
	51	2	1	2	0	0	3.6401990928E+01	6.1725284662E+01	-1.1391917363E+03	1.5507155194E+03	1.0496788530E+03	0.000E+00	0.0
	1000022	2	5	5	0	0	-3.6401990928E+01	-6.1725284662E+01	-6.1886805154E+02	1.0516638260E+03	8.4726856545E+02	0.000E+00	0.0
	14	1	6	6	0	0	1.0836058208E+02	-1.1514262538E+02	-3.1395448478E+01	3.6278163420E+02	3.2500000000E+02	0.000E+00	0.0
	-14	1	6	6	0	0	-1.4476257301E+02	5.3417340720E+01	-5.8747260306E+02	6.8888219180E+02	3.2500000000E+02	0.000E+00	0.0
	25	2	5	5	0	0	3.6401990928E+01	6.1725284662E+01	-3.4290266412E+02	3.7200348199E+02	1.2517682629E+02	0.000E+00	0.0
	-5	1	9	9	0	501	4.4637973097E+01	5.1821180014E+01	-6.7223691087E+01	9.5992085005E+01	4.1800000000E+00	0.000E+00	0.0
	5	1	9	9	501	0	-8.2359821696E+00	9.9041046472E+00	-2.7567897303E+02	2.7601139698E+02	4.1800000000E+00	0.000E+00	0.0
</event>
<event>
    11  -1  1.0000000E+00  1.0000000E+00  -1.0000000E+00  -1.0000000E+00
	2212	-1	0	0	0	0	0.0000000000E+00	0.0000000000E+00	6.5000000000E+03	6.5000000000E+03	9.3827000000E-01	0.000E+00	0.0
	2212	-1	0	0	0	0	0.0000000000E+00	0.0000000000E+00	-6.5000000000E+03	6.5000000000E+03	9.3827000000E-01	0.000E+00	0.0
	2212	1	0	0	0	0	0.0000000000E+00	0.0000000000E+00	5.9795725520E+03	5.9795725520E+03	9.3827000000E-01	0.000E+00	0.0
	2212	1	0	0	0	0	0.0000000000E+00	0.0000000000E+00	-6.0332430341E+03	6.0332430341E+03	9.3827000000E-01	0.000E+00	0.0
	51	2	1	2	0	0	-4.6192061200E+01	-3.7862556216E+01	5.2677802290E+01	9.8893618447E+02	9.8572437650E+02	0.000E+00	0.0
	1000022	2	5	5	0	0	4.6192061200E+01	3.7862556216E+01	4.7211252128E+01	8.4836644344E+02	8.4494345393E+02	0.000E+00	0.0
	14	1	6	6	0	0	1.5003170121E+02	-6.8350590408E+01	-1.9823577618E+02	4.1485387492E+02	3.2500000000E+02	0.000E+00	0.0
	-14	1	6	6	0	0	-1.0383964001E+02	1.0621314662E+02	2.4544702831E+02	4.3351256852E+02	3.2500000000E+02	0.000E+00	0.0
	25	2	5	5	0	0	-4.6192061200E+01	-3.7862556216E+01	6.4592298835E+00	1.3881797047E+02	1.2514562554E+02	0.000E+00	0.0
	-5	1	9	9	0	501	-1.0094893002E+01	3.3815736046E+01	3.8417446078E+01	5.2333387357E+01	4.1800000000E+00	0.000E+00	0.0
	5	1	9	9	501	0	-3.6097168198E+01	-7.1678292262E+01	-3.1958216195E+01	8.6484583111E+01	4.1800000000E+00	0.000E+00	0.0
</event>
<event>
    11  -1  1.0000000E+00  1.0000000E+00  -1.0000000E+00  -1.0000000E+00
	2212	-1	0	0	0	0	0.0000000000E+00	0.0000000000E+00	6.5000000000E+03	6.5000000000E+03	9.3827000000E-01	0.000E+00	0.0
	2212	-1	0	0	0	0	0.0000000000E+00	0.0000000000E+00	-6.5000000000E+03	6.5000000000E+03	9.3827000000E-01	0.000E+00	0.0
	2212	1	0	0	0	0	0.0000000000E+00	0.0000000000E+00	4.9892248801E+03	4.9892248801E+03	9.3827000000E-01	0.000E+00	0.0
	2212	1	0	0	0	0	0.0000000000E+00	0.0000000000E+00	-6.3169566276E+03	6.3169566276E+03	9.3827000000E-01	0.000E+00	0.0
	51	2	1	2	0	0	-3.3228542113E+01	-1.1661109540E+02	1.2158779236E+03	1.6122068417E+03	1.0517364175E+03	0.000E+00	0.0
	1000022	2	5	5	0	0	3.3228542113E+01	1.1661109540E+02	1.2113377700E+03	1.4842490762E+03	8.4909000906E+02	0.000E+00	0.0
	14	1	6	6	0	0	2.8816908621E+02	5.5012207206E+01	6.7356914053E+02	8.0336053691E+02	3.2500000000E+02	0.000E+00	0.0
	-14	1	6	6	0	0	-2.5494054409E+02	6.1598888192E+01	5.3776862948E+02	6.8088853926E+02	3.2500000000E+02	0.000E+00	0.0
	25	2	5	5	0	0	-3.3228542113E+01	-1.1661109540E+02	1.1639397740E+02	2.0956941614E+02	1.2517786794E+02	0.000E+00	0.0
	-5	1	9	9	0	501	-6.6676290690E+01	-7.9312085310E+01	2.7239906827E+01	1.0721762700E+02	4.1800000000E+00	0.000E+00	0.0
	5	1	9	9	501	0	3.3447748577E+01	-3.7299010087E+01	8.9154070574E+01	1.0235178913E+02	4.1800000000E+00	0.000E+00	0.0
</event>
<event>
    11  -1  1.0000000E+00  1.0000000E+00  -1.0000000E+00  -1.0000000E+00
	2212	-1	0	0	0	0	0.0000000000E+00	0.0000000000E+00	6.5000000000E+03	6.5000000000E+03	9.3827000000E-01	0.000E+00	0.0
	2212	-1	0	0	0	0	0.0000000000E+00	0.0000000000E+00	-6.5000000000E+03	6.5000000000E+03	9.3827000000E-01	0.000E+00	0.0
	2212	1	0	0	0	0	0.0000000000E+00	0.0000000000E+00	5.0917286425E+03	5.0917286425E+03	9.3827000000E-01	0.000E+00	0.0
	2212	1	0	0	0	0	0.0000000000E+00	0.0000000000E+00	-6.3045331923E+03	6.3045331923E+03	9.3827000000E-01	0.000E+00	0.0
	51	2	1	2	0	0	-2.8284409456E+01	1.4747684944E+02	1.2488551671E+03	1.6380689496E+03	1.0493241760E+03	0.000E+00	0.0
	1000022	2	5	5	0	0	2.8284409456E+01	-1.4747684944E+02	9.6258121002E+02	1.2861985412E+03	8.3975869904E+02	0.000E+00	0.0
	14	1	6	6	0	0	1.2285860879E+02	-3.1752845625E+02	4.7424982189E+02	6.6817396825E+02	3.2500000000E+02	0.000E+00	0.0
	-14	1	6	6	0	0	-9.4574199336E+01	1.7005160681E+02	4.8833138814E+02	6.1802457297E+02	3.2500000000E+02	0.000E+00	0.0
	25	2	5	5	0	0	-2.8284409456E+01	1.4747684944E+02	2.5022333982E+02	3.1753962393E+02	1.2518092523E+02	0.000E+00	0.0
	-5	1	9	9	0	501	-6.5141960663E+01	1.4341922890E+02	2.1169924948E+02	2.6390641313E+02	4.1800000000E+00	0.000E+00	0.0
	5	1	9	9	501	0	3.6857551207E+01	4.0576205352E+00	3.8524090334E+01	5.3633210807E+01	4.1800000000E+00	0.000E+00	0.0
</event>
<event>
    11  -1  1.0000000E+00  1.0000000E+00  -1.0000000E+00  -1.0000000E+00
	2212	-1	0	0	0	0	0.0000000000E+00	0.0000000000E+00	6.5000000000E+03	6.5000000000E+03	9.3827000000E-01	0.000E+00	0.0
	2212	-1	0	0	0	0	0.0000000000E+00	0.0000000000E+00	-6.5000000000E+03	6.5000000000E+03	9.3827000000E-01	0.000E+00	0.0
	2212	1	0	0	0	0	0.0000000000E+00	0.0000000000E+00	5.9573681517E+03	5.9573681517E+03	9.3827000000E-01	0.000E+00	0.0
	2212	1	0	0	0	0	0.0000000000E+00	0.0000000000E+00	-5.9701439707E+03	5.9701439707E+03	9.3827000000E-01	0.000E+00	0.0
	51	2	1	2	0	0	-1.4798527053E+02	6.1189424946E+01	3.9523629083E+01	1.0850220870E+03	1.0724117801E+03	0.000E+00	0.0
	1000022	2	5	5	0	0	1.4798527053E+02	-6.1189424946E+01	-1.6268875260E+01	8.6713780769E+02	8.5206778791E+02	0.000E+00	0.0
	14	1	6	6	0	0	7.8399355837E+01	-2.0050041243E+02	2.0881647900E+02	4.4223997590E+02	3.2500000000E+02	0.000E+00	0.0
	-14	1	6	6	0	0	6.9585914690E+01	1.3931098748E+02	-2.2508535426E+02	4.2489783179E+02	3.2500000000E+02	0.000E+00	0.0
	25	2	5	5	0	0	-1.4798527053E+02	6.1189424946E+01	2.9044694310E+01	2.0535006991E+02	1.2522488142E+02	0.000E+00	0.0
	-5	1	9	9	0	501	-1.0049831829E+02	-2.1632220969E+01	-7.2229082279E+00	1.0313829438E+02	4.1800000000E+00	0.000E+00	0.0
	5	1	9	9	501	0	-4.7486952236E+01	8.2821645915E+01	3.6267602538E+01	1.0221177554E+02	4.1800000000E+00	0.000E+00	0.0
</event>
<event>
    11  -1  1.0000000E+00  1.0000000E+00  -1.0000000E+00  -1.0000000E+00
	2212	-1	0	0	0	0	0.0000000000E+00	0.0000000000E+00	6.5000000000E+03	6.5000000000E+03	9.3827000000E-01	0.000E+00	0.0
	2212	-1	0	0	0	0	0.0000000000E+00	0.0000000000E+00	-6.5000000000E+03	6.5000000000E+03	9.3827000000E-01	0.000E+00	0.0
	2212	1	0	0	0	0	0.0000000000E+00	0.0000000000E+00	5.3946698413E+03	5.3946698413E+03	9.3827000000E-01	0.000E+00	0.0
	2212	1	0	0	0	0	0.0000000000E+00	0.0000000000E+00	-6.2509323261E+03	6.2509323261E+03	9.3827000000E-01	0.000E+00	0.0
	51	2	1	2	0	0	-7.1169995128E+01	-1.4931523202E+01	7.1538284242E+02	1.2721119353E+03	1.0493846036E+03	0.000E+00	0.0
	1000022	2	5	5	0	0	7.1169995128E+01	1.4931523202E+01	8.5351398450E+02	1.2094991357E+03	8.5388167742E+02	0.000E+00	0.0
	14	1	6	6	0	0	6.7551941057E+01	-4.4423319127E+01	8.0967878355E+02	8.7620855312E+02	3.2500000000E+02	0.000E+00	0.0
	-14	1	6	6	0	0	3.6180540716E+00	5.9354842328E+01	4.3835200946E+01	3.3329058262E+02	3.2500000000E+02	0.000E+00	0.0
	25	2	5	5	0	0	-7.1169995128E+01	-1.4931523202E+01	2.7485003010E+00	1.4489869691E+02	1.2529947933E+02	0.000E+00	0.0
	-5	1	9	9	0	501	2.8316492463E+01	-3.2667500094E+00	2.9399280634E+01	4.1161699465E+01	4.1800000000E+00	0.000E+00	0.0
	5	1	9	9	501	0	-9.9486487592E+01	-1.1664773192E+01	-2.6650780333E+01	1.0373699745E+02	4.1800000000E+00	0.000E+00	0.0
</event>
<event>
    11  -1  1.0000000E+00  1.0000000E+00  -1.0000000E+00  -1.0000000E+00
	2212	-1	0	0	0	0	0.0000000000E+00	0.0000000000E+00	6.5000000000E+03	6.5000000000E+03	9.3827000000E-01	0.000E+00	0.0
	2212	-1	0	0	0	0	0.0000000000E+00	0.0000000000E+00	-6.5000000000E+03	6.5000000000E+03	9.3827000000E-01	0.000E+00	0.0
	2212	1	0	0	0	0	0.0000000000E+00	0.0000000000E+00	5.8172567312E+03	5.8172567312E+03	9.3827000000E-01	0.000E+00	0.0
	2212	1	0	0	0	0	0.0000000000E+00	0.0000000000E+00	-6.0695260041E+03	6.0695260041E+03	9.3827000000E-01	0.000E+00	0.0
	51	2	1	2	0	0	1.0920176361E+02	8.4900638963E+00	4.0305033330E+02	1.1619206384E+03	1.0842568388E+03	0.000E+00	0.0
	1000022	2	5	5	0	0	-1.0920176361E+02	-8.4900638963E+00	5.3852209016E+01	8.5430508940E+02	8.4554125801E+02	0.000E+00	0.0
	14	1	6	6	0	0	-4.4570562952E+01	-2.1414511245E+02	-1.4351496907E+02	4.1721242865E+02	3.2500000000E+02	0.000E+00	0.0
	-14	1	6	6	0	0	-6.4631200662E+01	2.0565504856E+02	1.9736717809E+02	4.3709266075E+02	3.2500000000E+02	0.000E+00	0.0
	25	2	5	5	0	0	1.0920176361E+02	8.4900638963E+00	1.9841706391E+02	2.5891217535E+02	1.2517618357E+02	0.000E+00	0.0
	-5	1	9	9	0	501	9.9867781856E+01	7.5869495650E+00	5.3488769856E+01	1.1362066959E+02	4.1800000000E+00	0.000E+00	0.0
	5	1	9	9	501	0	9.3339817588E+00	9.0311433125E-01	1.4492829405E+02	1.4529150577E+02	4.1800000000E+00	0.000E+00	0.0
</event>
<event>
    11  -1  1.0000000E+00  1.0000000E+00  -1.0000000E+00  -1.0000000E+00
	2212	-1	0	0	0	0	0.0000000000E+00	0.0000000000E+00	6.5000000000E+03	6.5000000000E+03	9.3827000000E-01	0.000E+00	0.0
	2212	-1	0	0	0	0	0.0000000000E+00	0.0000000000E+00	-6.5000000000E+03	6.5000000000E+03	9.3827000000E-01	0.000E+00	0.0
	2212	1	0	0	0	0	0.0000000000E+00	0.0000000000E+00	5.0307945774E+03	5.0307945774E+03	9.3827000000E-01	0.000E+00	0.0
	2212	1	0	0	0	0	0.0000000000E+00	0.0000000000E+00	-6.2994016762E+03	6.2994016762E+03	9.3827000000E-01	0.000E+00	0.0
	51	2	1	2	0	0	-2.9886533499E+01	-1.6883826321E+02	1.3814838991E+03	1.7654398624E+03	1.0857626722E+03	0.000E+00	0.0
	1000022	2	5	5	0	0	2.9886533499E+01	1.6883826321E+02	9.1512159494E+02	1.2574664901E+03	8.4520700201E+02	0.000E+00	0.0
	14	1	6	6	0	0	1.2750667672E+02	1.5803794101E+02	1.3438329177E+02	4.0610074183E+02	3.2500000000E+02	0.000E+00	0.0
	-14	1	6	6	0	0	-9.7620143225E+01	1.0800322204E+01	7.8073830318E+02	8.5136574830E+02	3.2500000000E+02	0.000E+00	0.0
	25	2	5	5	0	0	-2.9886533499E+01	-1.6883826321E+02	3.5348550390E+02	4.1233725629E+02	1.2518165780E+02	0.000E+00	0.0
	-5	1	9	9	0	501	-7.4006728217E+01	-9.4901228355E+01	2.5120463994E+02	2.7857581103E+02	4.1800000000E+00	0.000E+00	0.0
	5	1	9	9	501	0	4.4120194718E+01	-7.3937034857E+01	1.0228086396E+02	1.3376144526E+02	4.1800000000E+00	0.000E+00	0.0
</event>
<event>
    11  -1  1.0000000E+00  1.0000000E+00  -1.0000000E+00  -1.0000000E+00
	2212	-1	0	0	0	0	0.0000000000E+00	0.0000000000E+00	6.5000000000E+03	6.5000000000E+03	9.3827000000E-01	0.000E+00	0.0
	2212	-1	0	0	0	0	0.0000000000E+00	0.0000000000E+00	-6.5000000000E+03	6.5000000000E+03	9.3827000000E-01	0.000E+00	0.0
	2212	1	0	0	0	0	0.0000000000E+00	0.0000000000E+00	5.6475109620E+03	5.6475109620E+03	9.3827000000E-01	0.000E+00	0.0
	2212	1	0	0	0	0	0.0000000000E+00	0.0000000000E+00	-6.1687683075E+03	6.1687683075E+03	9.3827000000E-01	0.000E+00	0.0
	51	2	1	2	0	0	-1.2324919557E+02	-3.0018517180E+01	6.2439273861E+02	1.2391300638E+03	1.0627725756E+03	0.000E+00	0.0
	1000022	2	5	5	0	0	1.2324919557E+02	3.0018517180E+01	3.2616290234E+02	9.1948204449E+02	8.5027849302E+02	0.000E+00	0.0
	14	1	6	6	0	0	1.5022288333E+02	2.6425992896E+02	9.1157350410E+01	4.5424100130E+02	3.2500000000E+02	0.000E+00	0.0
	-14	1	6	6	0	0	-2.6973687764E+01	-2.3424141178E+02	2.3500555193E+02	4.6524104318E+02	3.2500000000E+02	0.000E+00	0.0
	25	2	5	5	0	0	-1.2324919557E+02	-3.0018517180E+01	1.9509444322E+02	2.6423868601E+02	1.2517494089E+02	0.000E+00	0.0
	-5	1	9	9	0	501	-1.1219794313E+02	-5.6858628896E+01	8.8938248892E+01	1.5410634847E+02	4.1800000000E+00	0.000E+00	0.0
	5	1	9	9	501	0	-1.1051252435E+01	2.6840111716E+01	1.0615619433E+02	1.1013233754E+02	4.1800000000E+00	0.000E+00	0.0
</event>
<event>
    11  -1  1.0000000E+00  1.0000000E+00  -1.0000000E+00  -1.0000000E+00
	2212	-1	0	0	0	0	0.0000000000E+00	0.0000000000E+00	6.5000000000E+03	6.5000000000E+03	9.3827000000E-01	0.000E+00	0.0
	2212	-1	0	0	0	0	0.0000000000E+00	0.0000000000E+00	-6.5000000000E+03	6.5000000000E+03	9.3827000000E-01	0.000E+00	0.0
	2212	1	0	0	0	0	0.0000000000E+00	0.0000000000E+00	6.1757183745E+03	6.1757183745E+03	9.3827000000E-01	0.000E+00	0.0
	2212	1	0	0	0	0	0.0000000000E+00	0.0000000000E+00	-5.6912835719E+03	5.6912835719E+03	9.3827000000E-01	0.000E+00	0.0
	51	2	1	2	0	0	-6.8221635498E+01	5.6867946440E+01	-4.3770411747E+02	1.1173542683E+03	1.0242106774E+03	0.000E+00	0.0
	1000022	2	5	5	0	0	6.8221635498E+01	-5.6867946440E+01	-4.5787970253E+02	9.7724075166E+02	8.5875346278E+02	0.000E+00	0.0
	14	1	6	6	0	0	1.8734880691E+02	2.0432584513E+02	-2.6461451739E+02	5.0248827772E+02	3.2500000000E+02	0.000E+00	0.0
	-14	1	6	6	0	0	-1.1912717141E+02	-2.6119379157E+02	-1.9326518515E+02	4.7475247394E+02	3.2500000000E+02	0.000E+00	0.0
	25	2	5	5	0	0	-6.8221635498E+01	5.6867946440E+01	-2.6555100016E+01	1.5575730197E+02	1.2516792280E+02	0.000E+00	0.0
	-5	1	9	9	0	501	-3.8496177004E+01	2.3653467702E+01	4.9721018788E+01	6.7313403476E+01	4.1800000000E+00	0.000E+00	0.0
	5	1	9	9	501	0	-2.9725458494E+01	3.3214478738E+01	-7.6276118804E+01	8.8443898491E+01	4.1800000000E+00	0.000E+00	0.0
</event>
<event>
    11  -1  1.0000000E+00  1.0000000E+00  -1.0000000E+00  -1.0000000E+00
	2212	-1	0	0	0	0	0.0000000000E+00	0.0000000000E+00	6.5000000000E+03	6.5000000000E+03	9.3827000000E-01	0.000E+00	0.0
	2212	-1	0	0	0	0	0.0000000000E+00	0.0000000000E+00	-6.5000000000E+03	6.5000000000E+03	9.3827000000E-01	0.000E+00	0.0
	2212	1	0	0	0	0	0.0000000000E+00	0.0000000000E+00	5.7493211299E+03	5.7493211299E+03	9.3827000000E-01	0.000E+00	0.0
	2212	1	0	0	0	0	0.0000000000E+00	0.0000000000E+00	-6.1195082955E+03	6.1195082955E+03	9.3827000000E-01	0.000E+00	0.0
	51	2	1	2	0	0	-1.4961426036E+02	-1.2399085857E+01	3.0585642532E+02	1.1218710480E+03	1.0688818135E+03	0.000E+00	0.0
	1000022	2	5	5	0	0	1.4961426036E+02	1.2399085857E+01	3.6747764586E+02	9.3561705208E+02	8.4723154078E+02	0.000E+00	0.0
	14	1	6	6	0	0	6.4707549363E+01	-2.3121285850E+02	3.2490349233E+02	5.1849178606E+02	3.2500000000E+02	0.000E+00	0.0
	-14	1	6	6	0	0	8.4906710995E+01	2.4361194436E+02	4.2574153530E+01	4.1712526602E+02	3.2500000000E+02	0.000E+00	0.0
	25	2	5	5	0	0	-1.4961426036E+02	-1.2399085857E+01	2.7095198204E+00	1.9555352252E+02	1.2528237881E+02	0.000E+00	0.0
	-5	1	9	9	0	501	-7.7147262339E+01	1.1992578977E+01	-5.8395161900E+01	9.7585805168E+01	4.1800000000E+00	0.000E+00	0.0
	5	1	9	9	501	0	-7.2466998020E+01	-2.4391664835E+01	6.1104681720E+01	9.7967717354E+01	4.1800000000E+00	0.000E+00	0.0
</event>
<event>
    11  -1  1.0000000E+00  1.0000000E+00  -1.0000000E+00  -1.0000000E+00
	2212	-1	0	0	0	0	0.0000000000E+00	0.0000000000E+00	6.5000000000E+03	6.5000000000E+03	9.3827000000E-01	0.000E+00	0.0
	2212	-1	0	0	0	0	0.0000000000E+00	0.0000000000E+00	-6.5000000000E+03	6.5000000000E+03	9.3827000000E-01	0.000E+00	0.0
	2212	1	0	0	0	0	0.0000000000E+00	0.0000000000E+00	5.8251097032E+03	5.8251097032E+03	9.3827000000E-01	0.000E+00	0.0
	2212	1	0	0	0	0	0.0000000000E+00	0.0000000000E+00	-6.0951533340E+03	6.0951533340E+03	9.3827000000E-01	0.000E+00	0.0
	51	2	1	2	0	0	-9.7143543371E+01	-4.4336636525E+01	2.0636276214E+02	1.0709325568E+03	1.0454225683E+03	0.000E+00	0.0
	1000022	2	5	5	0	0	9.7143543371E+01	4.4336636525E+01	2.9006863973E+02	9.1398866648E+02	8.6013537384E+02	0.000E+00	0.0
	14	1	6	6	0	0	1.5440787517E+00	-1.8154475247E+00	-1.4897355313E+02	3.5752454400E+02	3.2500000000E+02	0.000E+00	0.0
	-14	1	6	6	0	0	9.5599464620E+01	4.6152084050E+01	4.3904219286E+02	5.5646412248E+02	3.2500000000E+02	0.000E+00	0.0
	25	2	5	5	0	0	-9.7143543371E+01	-4.4336636525E+01	-2.0025008881E+01	1.6574829631E+02	1.2517544244E+02	0.000E+00	0.0
	-5	1	9	9	0	501	1.3912254952E+01	1.7163964636E+01	2.2492383125E+01	3.1804594299E+01	4.1800000000E+00	0.000E+00	0.0
	5	1	9	9	501	0	-1.1105579832E+02	-6.1500601162E+01	-4.2517392006E+01	1.3394370201E+02	4.1800000000E+00	0.000E+00	0.0
</event>
<event>
    11  -1  1.0000000E+00  1.0000000E+00  -1.0000000E+00  -1.0000000E+00
	2212	-1	0	0	0	0	0.0000000000E+00	0.0000000000E+00	6.5000000000E+03	6.5000000000E+03	9.3827000000E-01	0.000E+00	0.0
	2212	-1	0	0	0	0	0.0000000000E+00	0.0000000000E+00	-6.5000000000E+03	6.5000000000E+03	9.3827000000E-01	0.000E+00	0.0
	2212	1	0	0	0	0	0.0000000000E+00	0.0000000000E+00	6.2866603320E+03	6.2866603320E+03	9.3827000000E-01	0.000E+00	0.0
	2212	1	0	0	0	0	0.0000000000E+00	0.0000000000E+00	-5.1640124386E+03	5.1640124386E+03	9.3827000000E-01	0.000E+00	0.0
	51	2	1	2	0	0	-1.4334595178E+00	-1.4878086421E+02	-1.2489733925E+03	1.6498936047E+03	1.0677436823E+03	0.000E+00	0.0
	1000022	2	5	5	0	0	1.4334595178E+00	1.4878086421E+02	-7.9000772436E+02	1.1640331690E+03	8.4185700303E+02	0.000E+00	0.0
	14	1	6	6	0	0	-2.4149555014E+02	1.8619812387E+02	-4.4992413646E+02	6.3328237828E+02	3.2500000000E+02	0.000E+00	0.0
	-14	1	6	6	0	0	2.4292900966E+02	-3.7417259654E+01	-3.4008358790E+02	5.3075079069E+02	3.2500000000E+02	0.000E+00	0.0
	25	2	5	5	0	0	-1.4334595178E+00	-1.4878086421E+02	-3.3264016902E+02	3.8529406041E+02	1.2515682395E+02	0.000E+00	0.0
	-5	1	9	9	0	501	-1.6734922381E+00	-1.0281264153E+02	-3.2183427613E+02	3.3788757527E+02	4.1800000000E+00	0.000E+00	0.0
	5	1	9	9	501	0	2.4003272030E-01	-4.5968222681E+01	-1.0805892896E+01	4.7406485141E+01	4.1800000000E+00	0.000E+00	0.0
</event>
<event>
    11  -1  1.0000000E+00  1.0000000E+00  -1.0000000E+00  -1.0000000E+00
	2212	-1	0	0	0	0	0.0000000000E+00	0.0000000000E+00	6.5000000000E+03	6.5000000000E+03	9.3827000000E-01	0.000E+00	0.0
	2212	-1	0	0	0	0	0.0000000000E+00	0.0000000000E+00	-6.5000000000E+03	6.5000000000E+03	9.3827000000E-01	0.000E+00	0.0
	2212	1	0	0	0	0	0.0000000000E+00	0.0000000000E+00	6.2259480102E+03	6.2259480102E+03	9.3827000000E-01	0.000E+00	0.0
	2212	1	0	0	0	0	0.0000000000E+00	0.0000000000E+00	-5.4811846391E+03	5.4811846391E+03	9.3827000000E-01	0.000E+00	0.0
	51	2	1	2	0	0	-6.7114466816E+01	-7.7428739654E+01	-6.1949354095E+02	1.2292702372E+03	1.0568034384E+03	0.000E+00	0.0
	1000022	2	5	5	0	0	6.7114466816E+01	7.7428739654E+01	-7.4017446193E+02	1.1310369918E+03	8.4905057644E+02	0.000E+00	0.0
	14	1	6	6	0	0	-8.5661201354E+01	2.5157163123E+02	-5.4158011328E+02	6.8524458856E+02	3.2500000000E+02	0.000E+00	0.0
	-14	1	6	6	0	0	1.5277566817E+02	-1.7414289157E+02	-1.9859434865E+02	4.4579240324E+02	3.2500000000E+02	0.000E+00	0.0
	25	2	5	5	0	0	-6.7114466816E+01	-7.7428739654E+01	-4.5889091379E+00	1.6183035885E+02	1.2517366168E+02	0.000E+00	0.0
	-5	1	9	9	0	501	3.0703600600E+01	-2.0174882032E+01	-2.7549667098E+01	4.6110665925E+01	4.1800000000E+00	0.000E+00	0.0
	5	1	9	9	501	0	-9.7818067416E+01	-5.7253857622E+01	2.2960757961E+01	1.1571969293E+02	4.1800000000E+00	0.000E+00	0.0
</event>
<event>
    11  -1  1.0000000E+00  1.0000000E+00  -1.0000000E+00  -1.0000000E+00
	2212	-1	0	0	0	0	0.0000000000E+00	0.0000000000E+00	6.5000000000E+03	6.5000000000E+03	9.3827000000E-01	0.000E+00	0.0
	2212	-1	0	0	0	0	0.0000000000E+00	0.0000000000E+00	-6.5000000000E+03	6.5000000000E+03	9.3827000000E-01	0.000E+00	0.0
	2212	1	0	0	0	0	0.0000000000E+00	0.0000000000E+00	6.3102304480E+03	6.3102304480E+03	9.3827000000E-01	0.000E+00	0.0
	2212	1	0	0	0	0	0.0000000000E+00	0.0000000000E+00	-5.0330720002E+03	5.0330720002E+03	9.3827000000E-01	0.000E+00	0.0
	51	2	1	2	0	0	3.3254232925E+01	5.0331016977E+01	-1.4897766659E+03	1.8266325977E+03	1.0552312910E+03	0.000E+00	0.0
	1000022	2	5	5	0	0	-3.3254232925E+01	-5.0331016977E+01	-8.4722303107E+02	1.2048641467E+03	8.5455935572E+02	0.000E+00	0.0
	14	1	6	6	0	0	-2.4929953159E+01	1.9772427813E+02	-6.4360303144E+02	7.4804161302E+02	3.2500000000E+02	0.000E+00	0.0
	-14	1	6	6	0	0	-8.3242797657E+00	-2.4805529511E+02	-2.0361999963E+02	4.5682253372E+02	3.2500000000E+02	0.000E+00	0.0
	25	2	5	5	0	0	3.3254232925E+01	5.0331016977E+01	-4.2993541670E+02	4.5183340509E+02	1.2517950369E+02	0.000E+00	0.0
	-5	1	9	9	0	501	-7.6005248999E-01	1.2220838360E+01	5.0131543509E+00	1.3875542749E+01	4.1800000000E+00	0.000E+00	0.0
	5	1	9	9	501	0	3.4014285415E+01	3.8110178616E+01	-4.3494857106E+02	4.3795786234E+02	4.1800000000E+00	0.000E+00	0.0
</event>
<event>
    11  -1  1.0000000E+00  1.0000000E+00  -1.0000000E+00  -1.0000000E+00
	2212	-1	0	0	0	0	0.0000000000E+00	0.0000000000E+00	6.5000000000E+03	6.5000000000E+03	9.3827000000E-01	0.000E+00	0.0
	2212	-1	0	0	0	0	0.0000000000E+00	0.0000000000E+00	-6.5000000000E+03	6.5000000000E+03	9.3827000000E-01	0.000E+00	0.0
	2212	1	0	0	0	0	0.0000000000E+00	0.0000000000E+00	5.9864433608E+03	5.9864433608E+03	9.3827000000E-01	0.000E+00	0.0
	2212	1	0	0	0	0	0.0000000000E+00	0.0000000000E+00	-5.9748658340E+03	5.9748658340E+03	9.3827000000E-01	0.000E+00	0.0
	51	2	1	2	0	0	2.0186097777E+01	-1.2308383466E+02	1.2671638381E+01	1.0461654883E+03	1.0386262800E+03	0.000E+00	0.0
	1000022	2	5	5	0	0	-2.0186097777E+01	1.2308383466E+02	-3.3924611419E+01	8.6056882955E+02	8.5080592513E+02	0.000E+00	0.0
	14	1	6	6	0	0	8.2224108088E+01	4.2073033153E+00	-2.6902013539E+02	4.2985502044E+02	3.2500000000E+02	0.000E+00	0.0
	-14	1	6	6	0	0	-1.0241020586E+02	1.1887653134E+02	2.3509552397E+02	4.3071380911E+02	3.2500000000E+02	0.000E+00	0.0
	25	2	5	5	0	0	2.0186097777E+01	-1.2308383466E+02	2.2347084613E+01	1.7812197556E+02	1.2518361350E+02	0.000E+00	0.0
	-5	1	9	9	0	501	3.8002079435E+01	6.6307104279E+00	2.6616272282E+01	4.7053402771E+01	4.1800000000E+00	0.000E+00	0.0
	5	1	9	9	501	0	-1.7815981658E+01	-1.2971454509E+02	-4.2691876687E+00	1.3106857279E+02	4.1800000000E+00	0.000E+00	0.0
</event>
<event>
    11  -1  1.0000000E+00  1.0000000E+00  -1.0000000E+00  -1.0000000E+00
	2212	-1	0	0	0	0	0.0000000000E+00	0.0000000000E+00	6.5000000000E+03	6.5000000000E+03	9.3827000000E-01	0.000E+00	0.0
	2212	-1	0	0	0	0	0.0000000000E+00	0.0000000000E+00	-6.5000000000E+03	6.5000000000E+03	9.3827000000E-01	0.000E+00	0.0
	2212	1	0	0	0	0	0.0000000000E+00	0.0000000000E+00	6.2000015118E+03	6.2000015118E+03	9.3827000000E-01	0.000E+00	0.0
	2212	1	0	0	0	0	0.0000000000E+00	0.0000000000E+00	-5.5897093556E+03	5.5897093556E+03	9.3827000000E-01	0.000E+00	0.0
	51	2	1	2	0	0	9.7049286268E+01	-2.7277418079E+01	-6.2912963147E+02	1.2240547305E+03	1.0451522705E+03	0.000E+00	0.0
	1000022	2	5	5	0	0	-9.7049286268E+01	2.7277418079E+01	-5.0015234682E+02	1.0154590696E+03	8.7797615603E+02	0.000E+00	0.0
	14	1	6	6	0	0	8.4901768497E+01	6.2657522408E+01	5.4898927282E+01	3.4608260231E+02	3.2500000000E+02	0.000E+00	0.0
	-14	1	6	6	0	0	-1.8195105477E+02	-3.5380104329E+01	-5.5505127411E+02	6.6937646732E+02	3.2500000000E+02	0.000E+00	0.0
	25	2	5	5	0	0	9.7049286268E+01	-2.7277418079E+01	-1.1013980940E+02	1.9483006298E+02	1.2516131321E+02	0.000E+00	0.0
	-5	1	9	9	0	501	5.5501077508E+01	-5.1340257085E+01	-1.2345755695E+02	1.4482897628E+02	4.1800000000E+00	0.000E+00	0.0
	5	1	9	9	501	0	4.1548208760E+01	2.4062839006E+01	1.3317747542E+01	5.0001086706E+01	4.1800000000E+00	0.000E+00	0.0
</event>
<event>
    11  -1  1.0000000E+00  1.0000000E+00  -1.0000000E+00  -1.0000000E+00
	2212	-1	0	0	0	0	0.0000000000E+00	0.0000000000E+00	6.5000000000E+03	6.5000000000E+03	9.3827000000E-01	0.000E+00	0.0
	2212	-1	0	0	0	0	0.0000000000E+00	0.0000000000E+00	-6.5000000000E+03	6.5000000000E+03	9.3827000000E-01	0.000E+00	0.0
	2212	1	0	0	0	0	0.0000000000E+00	0.0000000000E+00	5.6664866906E+03	5.6664866906E+03	9.3827000000E-01	0.000E+00	0.0
	2212	1	0	0	0	0	0.0000000000E+00	0.0000000000E+00	-6.1638272967E+03	6.1638272967E+03	9.3827000000E-01	0.000E+00	0.0
	51	2	1	2	0	0	1.0925543266E+02	-8.9743557284E+01	5.7424842234E+02	1.2126704400E+03	1.0586867761E+03	0.000E+00	0.0
	1000022	2	5	5	0	0	-1.0925543266E+02	8.9743557284E+01	3.3198074103E+02	9.1867287639E+02	8.4484198864E+02	0.000E+00	0.0
	14	1	6	6	0	0	-1.9388254320E+02	6.6636898447E+01	-7.3959710568E+01	3.9131311706E+02	3.2500000000E+02	0.000E+00	0.0
	-14	1	6	6	0	0	8.4627110547E+01	2.3106658836E+01	4.0594045160E+02	5.2735975934E+02	3.2500000000E+02	0.000E+00	0.0
	25	2	5	5	0	0	1.0925543266E+02	-8.9743557284E+01	1.6535986503E+02	2.5101313632E+02	1.2519206845E+02	0.000E+00	0.0
	-5	1	9	9	0	501	4.5940739571E+01	-9.7908336190E+01	5.0267982780E+01	1.1933539433E+02	4.1800000000E+00	0.000E+00	0.0
	5	1	9	9	501	0	6.3314693085E+01	8.1647789060E+00	1.1509188225E+02	1.3167774198E+02	4.1800000000E+00	0.000E+00	0.0
</event>
<event>
    11  -1  1.0000000E+00  1.0000000E+00  -1.0000000E+00  -1.0000000E+00
	2212	-1	0	0	0	0	0.0000000000E+00	0.0000000000E+00	6.5000000000E+03	6.5000000000E+03	9.3827000000E-01	0.000E+00	0.0
	2212	-1	0	0	0	0	0.0000000000E+00	0.0000000000E+00	-6.5000000000E+03	6.5000000000E+03	9.3827000000E-01	0.000E+00	0.0
	2212	1	0	0	0	0	0.0000000000E+00	0.0000000000E+00	6.2148464649E+03	6.2148464649E+03	9.3827000000E-01	0.000E+00	0.0
	2212	1	0	0	0	0	0.0000000000E+00	0.0000000000E+00	-5.5363899374E+03	5.5363899374E+03	9.3827000000E-01	0.000E+00	0.0
	51	2	1	2	0	0	4.5247684390E+01	8.5994460864E+01	-5.5610023350E+02	1.1907128677E+03	1.0483831663E+03	0.000E+00	0.0
	1000022	2	5	5	0	0	-4.5247684390E+01	-8.5994460864E+01	-6.8314464199E+02	1.0902348815E+03	8.4408713695E+02	0.000E+00	0.0
	14	1	6	6	0	0	1.4983047359E+02	-1.8382263133E+02	-5.4003065728E+02	6.7342263209E+02	3.2500000000E+02	0.000E+00	0.0
	-14	1	6	6	0	0	-1.9507815798E+02	9.7828170465E+01	-1.4311398471E+02	4.1681224943E+02	3.2500000000E+02	0.000E+00	0.0
	25	2	5	5	0	0	4.5247684390E+01	8.5994460864E+01	4.6881145765E+00	1.5852871618E+02	1.2516778816E+02	0.000E+00	0.0
	-5	1	9	9	0	501	-3.1946223549E+01	-3.2705761786E+00	2.2041053654E+01	3.9173183605E+01	4.1800000000E+00	0.000E+00	0.0
	5	1	9	9	501	0	7.7193907939E+01	8.9265037043E+01	-1.7352939077E+01	1.1935553257E+02	4.1800000000E+00	0.000E+00	0.0
</event>
<event>
    11  -1  1.0000000E+00  1.0000000E+00  -1.0000000E+00  -1.0000000E+00
	2212	-1	0	0	0	0	0.0000000000E+00	0.0000000000E+00	6.5000000000E+03	6.5000000000E+03	9.3827000000E-01	0.000E+00	0.0
	2212	-1	0	0	0	0	0.0000000000E+00	0.0000000000E+00	-6.5000000000E+03	6.5000000000E+03	9.3827000000E-01	0.000E+00	0.0
	2212	1	0	0	0	0	0.0000000000E+00	0.0000000000E+00	5.1831282361E+03	5.1831282361E+03	9.3827000000E-01	0.000E+00	0.0
	2212	1	0	0	0	0	0.0000000000E+00	0.0000000000E+00	-6.2853228217E+03	6.2853228217E+03	9.3827000000E-01	0.000E+00	0.0
	51	2	1	2	0	0	-1.2418673035E+02	3.9552978779E+01	9.9701388201E+02	1.4635001610E+03	1.0633951561E+03	0.000E+00	0.0
	1000022	2	5	5	0	0	1.2418673035E+02	-3.9552978779E+01	1.0135464256E+03	1.3302638012E+03	8.5166815239E+02	0.000E+00	0.0
	14	1	6	6	0	0	9.2300767291E+01	-1.2060955115E+02	1.2457976540E+02	3.7975151536E+02	3.2500000000E+02	0.000E+00	0.0
	-14	1	6	6	0	0	3.1885963064E+01	8.1056572368E+01	8.8896666023E+02	9.5051228586E+02	3.2500000000E+02	0.000E+00	0.0
	25	2	5	5	0	0	-1.2418673035E+02	3.9552978779E+01	8.8648159972E+01	2.0128514106E+02	1.2518158658E+02	0.000E+00	0.0
	-5	1	9	9	0	501	-8.4324151229E+01	8.4039161233E+01	4.5670716128E+01	1.2757911198E+02	4.1800000000E+00	0.000E+00	0.0
	5	1	9	9	501	0	-3.9862579125E+01	-4.4486182454E+01	4.2977443844E+01	7.3706029083E+01	4.1800000000E+00	0.000E+00	0.0
</event>
<event>
    11  -1  1.0000000E+00  1.0000000E+00  -1.0000000E+00  -1.0000000E+00
	2212	-1	0	0	0	0	0.0000000000E+00	0.0000000000E+00	6.5000000000E+03	6.5000000000E+03	9.3827000000E-01	0.000E+00	0.0
	2212	-1	0	0	0	0	0.0000000000E+00	0.0000000000E+00	-6.5000000000E+03	6.5000000000E+03	9.3827000000E-01	0.000E+00	0.0
	2212	1	0	0	0	0	0.0000000000E+00	0.0000000000E+00	6.2330287965E+03	6.2330287965E+03	9.3827000000E-01	0.000E+00	0.0
	2212	1	0	0	0	0	0.0000000000E+00	0.0000000000E+00	-5.4626458869E+03	5.4626458869E+03	9.3827000000E-01	0.000E+00	0.0
	51	2	1	2	0	0	9.2390830508E+01	1.0883121023E+02	-7.6899814827E+02	1.3113020834E+03	1.0525087667E+03	0.000E+00	0.0
	1000022	2	5	5	0	0	-9.2390830508E+01	-1.0883121023E+02	-6.3976064473E+02	1.0738491651E+03	8.5057512840E+02	0.000E+00	0.0
	14	1	6	6	0	0	1.1014389497E+02	-2.4973268692E+02	-1.8533636045E+02	4.6311192926E+02	3.2500000000E+02	0.000E+00	0.0
	-14	1	6	6	0	0	-2.0253472548E+02	1.4090147669E+02	-4.5442428428E+02	6.1073723589E+02	3.2500000000E+02	0.000E+00	0.0
	25	2	5	5	0	0	9.2390830508E+01	1.0883121023E+02	-1.3062226484E+02	2.3047615142E+02	1.2520695835E+02	0.000E+00	0.0
	-5	1	9	9	0	501	1.1427406178E+02	1.0088735449E+02	-7.4802721353E+01	1.6985210924E+02	4.1800000000E+00	0.000E+00	0.0
	5	1	9	9	501	0	-2.1883231274E+01	7.9438557449E+00	-5.5819543489E+01	6.0624042181E+01	4.1800000000E+00	0.000E+00	0.0
</event>
<event>
    11  -1  1.0000000E+00  1.0000000E+00  -1.0000000E+00  -1.0000000E+00
	2212	-1	0	0	0	0	0.0000000000E+00	0.0000000000E+00	6.5000000000E+03	6.5000000000E+03	9.3827000000E-01	0.000E+00	0.0
	2212	-1	0	0	0	0	0.0000000000E+00	0.0000000000E+00	-6.5000000000E+03	6.5000000000E+03	9.3827000000E-01	0.000E+00	0.0
	2212	1	0	0	0	0	0.0000000000E+00	0.0000000000E+00	4.9493424617E+03	4.9493424617E+03	9.3827000000E-01	0.000E+00	0.0
	2212	1	0	0	0	0	0.0000000000E+00	0.0000000000E+00	-6.3171249736E+03	6.3171249736E+03	9.3827000000E-01	0.000E+00	0.0
	51	2	1	2	0	0	-9.5780967895E+01	1.2205604399E+02	1.4282398468E+03	1.7883643041E+03	1.0650380992E+03	0.000E+00	0.0
	1000022	2	5	5	0	0	9.5780967895E+01	-1.2205604399E+02	1.0636973385E+03	1.3699260103E+03	8.4921939099E+02	0.000E+00	0.0
	14	1	6	6	0	0	-3.9546073342E+01	-9.6338083059E+01	9.3310432432E+02	9.9355603679E+02	3.2500000000E+02	0.000E+00	0.0
	-14	1	6	6	0	0	1.3532704124E+02	-2.5717960935E+01	1.3059301419E+02	3.7636997351E+02	3.2500000000E+02	0.000E+00	0.0
	25	2	5	5	0	0	-9.5780967895E+01	1.2205604399E+02	3.0408517347E+02	3.6360655440E+02	1.2518091704E+02	0.000E+00	0.0
	-5	1	9	9	0	501	-3.6807057448E+01	1.2260862396E+02	2.6006429072E+02	2.8989401831E+02	4.1800000000E+00	0.000E+00	0.0
	5	1	9	9	501	0	-5.8973910446E+01	-5.5257996554E-01	4.4020882749E+01	7.3712536084E+01	4.1800000000E+00	0.000E+00	0.0
</event>
<event>
    11  -1  1.0000000E+00  1.0000000E+00  -1.0000000E+00  -1.0000000E+00
	2212	-1	0	0	0	0	0.0000000000E+00	0.0000000000E+00	6.5000000000E+03	6.5000000000E+03	9.3827000000E-01	0.000E+00	0.0
	2212	-1	0	0	0	0	0.0000000000E+00	0.0000000000E+00	-6.5000000000E+03	6.5000000000E+03	9.3827000000E-01	0.000E+00	0.0
	2212	1	0	0	0	0	0.0000000000E+00	0.0000000000E+00	5.2907771880E+03	5.2907771880E+03	9.3827000000E-01	0.000E+00	0.0
	2212	1	0	0	0	0	0.0000000000E+00	0.0000000000E+00	-6.2682705903E+03	6.2682705903E+03	9.3827000000E-01	0.000E+00	0.0
	51	2	1	2	0	0	5.2365194905E+01	-5.2068749045E+01	1.1724111966E+03	1.5814079917E+03	1.0587020137E+03	0.000E+00	0.0
	1000022	2	5	5	0	0	-5.2365194905E+01	5.2068749045E+01	6.0939328551E+02	1.0452032174E+03	8.4595290706E+02	0.000E+00	0.0
	14	1	6	6	0	0	1.3186236350E+01	2.0375976725E+02	5.5762030434E+02	6.7694706100E+02	3.2500000000E+02	0.000E+00	0.0
	-14	1	6	6	0	0	-6.5551431255E+01	-1.5169101820E+02	5.1772981167E+01	3.6825615639E+02	3.2500000000E+02	0.000E+00	0.0
	25	2	5	5	0	0	5.2365194905E+01	-5.2068749045E+01	3.6810011681E+02	3.9574900438E+02	1.2516513177E+02	0.000E+00	0.0
	-5	1	9	9	0	501	-1.3707714770E+01	9.2323200468E+00	2.3096769715E+02	2.3159595572E+02	4.1800000000E+00	0.000E+00	0.0
	5	1	9	9	501	0	6.6072909675E+01	-6.1301069092E+01	1.3713241966E+02	1.6415304866E+02	4.1800000000E+00	0.000E+00	0.0
</event>
<event>
    11  -1  1.0000000E+00  1.0000000E+00  -1.0000000E+00  -1.0000000E+00
	2212	-1	0	0	0	0	0.0000000000E+00	0.0000000000E+00	6.5000000000E+03	6.5000000000E+03	9.3827000000E-01	0.000E+00	0.0
	2212	-1	0	0	0	0	0.0000000000E+00	0.0000000000E+00	-6.5000000000E+03	6.5000000000E+03	9.3827000000E-01	0.000E+00	0.0
	2212	1	0	0	0	0	0.0000000000E+00	0.0000000000E+00	6.3245270265E+03	6.3245270265E+03	9.3827000000E-01	0.000E+00	0.0
	2212	1	0	0	0	0	0.0000000000E+00	0.0000000000E+00	-4.9023996386E+03	4.9023996386E+03	9.3827000000E-01	0.000E+00	0.0
	51	2	1	2	0	0	-1.1667088821E+02	3.8593847820E+01	-1.3051490486E+03	1.6851879313E+03	1.0589347210E+03	0.000E+00	0.0
	1000022	2	5	5	0	0	1.1667088821E+02	-3.8593847820E+01	-1.2947267734E+03	1.5562730892E+03	8.5473208021E+02	0.000E+00	0.0
	14	1	6	6	0	0	-4.1370764615E+00	1.2921378828E+02	-1.0328981223E+03	1.0905121960E+03	3.2500000000E+02	0.000E+00	0.0
	-14	1	6	6	0	0	1.2080796468E+02	-1.6780763610E+02	-2.6182865109E+02	4.6576089316E+02	3.2500000000E+02	0.000E+00	0.0
	25	2	5	5	0	0	-1.1667088821E+02	3.8593847820E+01	-1.2740061452E+02	2.1680024574E+02	1.2517926637E+02	0.000E+00	0.0
	-5	1	9	9	0	501	-1.3562055847E+02	2.8745161194E+01	-1.3519381467E+02	1.9368546693E+02	4.1800000000E+00	0.000E+00	0.0
	5	1	9	9	501	0	1.8949670257E+01	9.8486866261E+00	7.7932001543E+00	2.3114778817E+01	4.1800000000E+00	0.000E+00	0.0
</event>
<event>
    11  -1  1.0000000E+00  1.0000000E+00  -1.0000000E+00  -1.0000000E+00
	2212	-1	0	0	0	0	0.0000000000E+00	0.0000000000E+00	6.5000000000E+03	6.5000000000E+03	9.3827000000E-01	0.000E+00	0.0
	2212	-1	0	0	0	0	0.0000000000E+00	0.0000000000E+00	-6.5000000000E+03	6.5000000000E+03	9.3827000000E-01	0.000E+00	0.0
	2212	1	0	0	0	0	0.0000000000E+00	0.0000000000E+00	6.3202829355E+03	6.3202829355E+03	9.3827000000E-01	0.000E+00	0.0
	2212	1	0	0	0	0	0.0000000000E+00	0.0000000000E+00	-4.9683049295E+03	4.9683049295E+03	9.3827000000E-01	0.000E+00	0.0
	51	2	1	2	0	0	-9.8685237864E+01	-1.1062468779E+02	-1.3847272282E+03	1.7437124365E+03	1.0493269113E+03	0.000E+00	0.0
	1000022	2	5	5	0	0	9.8685237864E+01	1.1062468779E+02	-1.0822783073E+03	1.3791661841E+03	8.4190048758E+02	0.000E+00	0.0
	14	1	6	6	0	0	1.3594023261E+02	1.8946995995E+02	-9.2488762961E+02	1.0076808721E+03	3.2500000000E+02	0.000E+00	0.0
	-14	1	6	6	0	0	-3.7254994742E+01	-7.8845272161E+01	-1.5739067773E+02	3.7148531198E+02	3.2500000000E+02	0.000E+00	0.0
	25	2	5	5	0	0	-9.8685237864E+01	-1.1062468779E+02	-2.6969969873E+02	3.3224595091E+02	1.2519124044E+02	0.000E+00	0.0
	-5	1	9	9	0	501	-1.6728193662E+01	-1.5877559262E+01	-1.7128653669E+02	1.7288284878E+02	4.1800000000E+00	0.000E+00	0.0
	5	1	9	9	501	0	-8.1957044201E+01	-9.4747128529E+01	-9.8413162038E+01	1.5936310213E+02	4.1800000000E+00	0.000E+00	0.0
</event>
<event>
    11  -1  1.0000000E+00  1.0000000E+00  -1.0000000E+00  -1.0000000E+00
	2212	-1	0	0	0	0	0.0000000000E+00	0.0000000000E+00	6.5000000000E+03	6.5000000000E+03	9.3827000000E-01	0.000E+00	0.0
	2212	-1	0	0	0	0	0.0000000000E+00	0.0000000000E+00	-6.5000000000E+03	6.5000000000E+03	9.3827000000E-01	0.000E+00	0.0
	2212	1	0	0	0	0	0.0000000000E+00	0.0000000000E+00	6.2700674985E+03	6.2700674985E+03	9.3827000000E-01	0.000E+00	0.0
	2212	1	0	0	0	0	0.0000000000E+00	0.0000000000E+00	-5.2957727191E+03	5.2957727191E+03	9.3827000000E-01	0.000E+00	0.0
	51	2	1	2	0	0	1.3840392235E+01	1.4723878663E+02	-9.4334706991E+02	1.4210342978E+03	1.0524086490E+03	0.000E+00	0.0
	1000022	2	5	5	0	0	-1.3840392235E+01	-1.4723878663E+02	-8.3369543163E+02	1.1947683744E+03	8.4294280887E+02	0.000E+00	0.0
	14	1	6	6	0	0	-1.7830869680E+02	5.0993123314E+01	-6.3000129047E+02	7.3274887648E+02	3.2500000000E+02	0.000E+00	0.0
	-14	1	6	6	0	0	1.6446830457E+02	-1.9823190995E+02	-2.0369414116E+02	4.6201949793E+02	3.2500000000E+02	0.000E+00	0.0
	25	2	5	5	0	0	1.3840392235E+01	1.4723878663E+02	-1.4059934773E+02	2.3939140799E+02	1.2517688642E+02	0.000E+00	0.0
	-5	1	9	9	0	501	2.9322230124E+01	9.3167051342E+01	-1.5307393240E+02	1.8162872519E+02	4.1800000000E+00	0.000E+00	0.0
	5	1	9	9	501	0	-1.5481837890E+01	5.4071735292E+01	1.2474584671E+01	5.7762682803E+01	4.1800000000E+00	0.000E+00	0.0
</event>
<event>
    11  -1  1.0000000E+00  1.0000000E+00  -1.0000000E+00  -1.0000000E+00
	2212	-1	0	0	0	0	0.0000000000E+00	0.0000000000E+00	6.5000000000E+03	6.5000000000E+03	9.3827000000E-01	0.000E+00	0.0
	2212	-1	0	0	0	0	0.0000000000E+00	0.0000000000E+00	-6.5000000000E+03	6.5000000000E+03	9.3827000000E-01	0.000E+00	0.0
	2212	1	0	0	0	0	0.0000000000E+00	0.0000000000E+00	5.1123003085E+03	5.1123003085E+03	9.3827000000E-01	0.000E+00	0.0
	2212	1	0	0	0	0	0.0000000000E+00	0.0000000000E+00	-6.3032220924E+03	6.3032220924E+03	9.3827000000E-01	0.000E+00	0.0
	51	2	1	2	0	0	-9.1288342640E+01	-9.5667269776E+01	1.1615456943E+03	1.5681035536E+03	1.0451194031E+03	0.000E+00	0.0
	1000022	2	5	5	0	0	9.1288342640E+01	9.5667269776E+01	1.0205768311E+03	1.3351301489E+03	8.5059370932E+02	0.000E+00	0.0
	14	1	6	6	0	0	1.6001328684E+02	2.3202478700E+00	1.3827525027E+02	3.8775595463E+02	3.2500000000E+02	0.000E+00	0.0
	-14	1	6	6	0	0	-6.8724944202E+01	9.3347021906E+01	8.8230158081E+02	9.4737419426E+02	3.2500000000E+02	0.000E+00	0.0
	25	2	5	5	0	0	-9.1288342640E+01	-9.5667269776E+01	1.7034495283E+02	2.4934745025E+02	1.2518370495E+02	0.000E+00	0.0
	-5	1	9	9	0	501	-1.2224958040E+02	-6.7198257821E+01	1.3623182786E+02	1.9503114901E+02	4.1800000000E+00	0.000E+00	0.0
	5	1	9	9	501	0	3.0961237762E+01	-2.8469011954E+01	3.4113124972E+01	5.4316301243E+01	4.1800000000E+00	0.000E+00	0.0
</event>
<event>
    11  -1  1.0000000E+00  1.0000000E+00  -1.0000000E+00  -1.0000000E+00
	2212	-1	0	0	0	0	0.0000000000E+00	0.0000000000E+00	6.5000000000E+03	6.5000000000E+03	9.3827000000E-01	0.000E+00	0.0
	2212	-1	0	0	0	0	0.0000000000E+00	0.0000000000E+00	-6.5000000000E+03	6.5000000000E+03	9.3827000000E-01	0.000E+00	0.0
	2212	1	0	0	0	0	0.0000000000E+00	0.0000000000E+00	6.3160434781E+03	6.3160434781E+03	9.3827000000E-01	0.000E+00	0.0
	2212	1	0	0	0	0	0.0000000000E+00	0.0000000000E+00	-5.0066201178E+03	5.0066201178E+03	9.3827000000E-01	0.000E+00	0.0
	51	2	1	2	0	0	2.2478737227E+01	-4.5725807969E+01	-1.1047018262E+03	1.5237552769E+03	1.0482689902E+03	0.000E+00	0.0
	1000022	2	5	5	0	0	-2.2478737227E+01	4.5725807969E+01	-1.2873486161E+03	1.5403975471E+03	8.4437077199E+02	0.000E+00	0.0
	14	1	6	6	0	0	-1.7563875110E+02	-3.9419449074E+01	-1.0171039710E+03	1.0828334829E+03	3.2500000000E+02	0.000E+00	0.0
	-14	1	6	6	0	0	1.5316001387E+02	8.5145257043E+01	-2.7024464509E+02	4.5756406420E+02	3.2500000000E+02	0.000E+00	0.0
	25	2	5	5	0	0	2.2478737227E+01	-4.5725807969E+01	-2.2074744203E+01	1.3693885695E+02	1.2517512960E+02	0.000E+00	0.0
	-5	1	9	9	0	501	3.3326416321E+01	-7.8055920967E+01	1.5113742128E+01	8.6309179256E+01	4.1800000000E+00	0.000E+00	0.0
	5	1	9	9	501	0	-1.0847679094E+01	3.2330112998E+01	-3.7188486331E+01	5.0629677698E+01	4.1800000000E+00	0.000E+00	0.0
</event>
<event>
    11  -1  1.0000000E+00  1.0000000E+00  -1.0000000E+00  -1.0000000E+00
	2212	-1	0	0	0	0	0.0000000000E+00	0.0000000000E+00	6.5000000000E+03	6.5000000000E+03	9.3827000000E-01	0.000E+00	0.0
	2212	-1	0	0	0	0	0.0000000000E+00	0.0000000000E+00	-6.5000000000E+03	6.5000000000E+03	9.3827000000E-01	0.000E+00	0.0
	2212	1	0	0	0	0	0.0000000000E+00	0.0000000000E+00	5.6504218034E+03	5.6504218034E+03	9.3827000000E-01	0.000E+00	0.0
	2212	1	0	0	0	0	0.0000000000E+00	0.0000000000E+00	-6.1676065799E+03	6.1676065799E+03	9.3827000000E-01	0.000E+00	0.0
	51	2	1	2	0	0	-7.4127962609E+01	1.3356639101E+02	4.9979505178E+02	1.1843592525E+03	1.0628155106E+03	0.000E+00	0.0
	1000022	2	5	5	0	0	7.4127962609E+01	-1.3356639101E+02	4.4336701472E+02	9.7113882708E+02	8.5041247409E+02	0.000E+00	0.0
	14	1	6	6	0	0	1.6216388514E+02	-2.0925678033E+02	4.6412776114E+02	6.2539995556E+02	3.2500000000E+02	0.000E+00	0.0
	-14	1	6	6	0	0	-8.8035922527E+01	7.5690389324E+01	-2.0760746419E+01	3.4573887152E+02	3.2500000000E+02	0.000E+00	0.0
	25	2	5	5	0	0	-7.4127962609E+01	1.3356639101E+02	7.3817761770E+01	2.1083278958E+02	1.2516576033E+02	0.000E+00	0.0
	-5	1	9	9	0	501	-1.8258193766E+01	1.3975880009E+02	4.9507455804E+01	1.4944679462E+02	4.1800000000E+00	0.000E+00	0.0
	5	1	9	9	501	0	-5.5869768843E+01	-6.1924090762E+00	2.4310305967E+01	6.1385994958E+01	4.1800000000E+00	0.000E+00	0.0
</event>
<event>
    11  -1  1.0000000E+00  1.0000000E+00  -1.0000000E+00  -1.0000000E+00
	2212	-1	0	0	0	0	0.0000000000E+00	0.0000000000E+00	6.5000000000E+03	6.5000000000E+03	9.3827000000E-01	0.000E+00	0.0
	2212	-1	0	0	0	0	0.0000000000E+00	0.0000000000E+00	-6.5000000000E+03	6.5000000000E+03	9.3827000000E-01	0.000E+00	0.0
	2212	1	0	0	0	0	0.0000000000E+00	0.0000000000E+00	6.3168971473E+03	6.3168971473E+03	9.3827000000E-01	0.000E+00	0.0
	2212	1	0	0	0	0	0.0000000000E+00	0.0000000000E+00	-4.9999492680E+03	4.9999492680E+03	9.3827000000E-01	0.000E+00	0.0
	51	2	1	2	0	0	-3.6807444783E+01	3.9926897632E+00	-1.1145932345E+03	1.5304715225E+03	1.0481671017E+03	0.000E+00	0.0
	1000022	2	5	5	0	0	3.6807444783E+01	-3.9926897632E+00	-1.2964564855E+03	1.5510224707E+03	8.5058835880E+02	0.000E+00	0.0
	14	1	6	6	0	0	1.5615373122E+02	-1.5444911943E+02	-3.2705927322E+02	5.1071644429E+02	3.2500000000E+02	0.000E+00	0.0
	-14	1	6	6	0	0	-1.1934628643E+02	1.5045642967E+02	-9.6939721231E+02	1.0403060264E+03	3.2500000000E+02	0.000E+00	0.0
	25	2	5	5	0	0	-3.6807444783E+01	3.9926897632E+00	-2.0491393737E+01	1.3213111408E+02	1.2517189991E+02	0.000E+00	0.0
	-5	1	9	9	0	501	-2.3368670565E+01	-3.2229653157E+01	-6.2933915140E+01	7.4585490422E+01	4.1800000000E+00	0.000E+00	0.0
	5	1	9	9	501	0	-1.3438774218E+01	3.6222342920E+01	4.2442521403E+01	5.7545623658E+01	4.1800000000E+00	0.000E+00	0.0
</event>
<event>
    11  -1  1.0000000E+00  1.0000000E+00  -1.0000000E+00  -1.0000000E+00
	2212	-1	0	0	0	0	0.0000000000E+00	0.0000000000E+00	6.5000000000E+03	6.5000000000E+03	9.3827000000E-01	0.000E+00	0.0
	2212	-1	0	0	0	0	0.0000000000E+00	0.0000000000E+00	-6.5000000000E+03	6.5000000000E+03	9.3827000000E-01	0.000E+00	0.0
	2212	1	0	0	0	0	0.0000000000E+00	0.0000000000E+00	6.2802342394E+03	6.2802342394E+03	9.3827000000E-01	0.000E+00	0.0
	2212	1	0	0	0	0	0.0000000000E+00	0.0000000000E+00	-5.2631966084E+03	5.2631966084E+03	9.3827000000E-01	0.000E+00	0.0
	51	2	1	2	0	0	1.1717416178E+02	3.8435348845E+01	-1.1062852205E+03	1.5252220172E+03	1.0427023316E+03	0.000E+00	0.0
	1000022	2	5	5	0	0	-1.1717416178E+02	-3.8435348845E+01	-7.5602948476E+02	1.1419262463E+03	8.4688128441E+02	0.000E+00	0.0
	14	1	6	6	0	0	2.0261235653E+02	-8.2570103064E+01	-4.1594224596E+02	5.7140400848E+02	3.2500000000E+02	0.000E+00	0.0
	-14	1	6	6	0	0	-3.1978651831E+02	4.4134754219E+01	-3.4008723881E+02	5.7052223780E+02	3.2500000000E+02	0.000E+00	0.0
	25	2	5	5	0	0	1.1717416178E+02	3.8435348845E+01	-2.6100814625E+02	3.1464290595E+02	1.2517126518E+02	0.000E+00	0.0
	-5	1	9	9	0	501	-1.5968989925E+01	6.3213547103E+00	-1.0721293477E+02	1.0866026848E+02	4.1800000000E+00	0.000E+00	0.0
	5	1	9	9	501	0	1.3314315170E+02	3.2113994135E+01	-1.5379521148E+02	2.0598263747E+02	4.1800000000E+00	0.000E+00	0.0
</event>
<event>
    11  -1  1.0000000E+00  1.0000000E+00  -1.0000000E+00  -1.0000000E+00
	2212	-1	0	0	0	0	0.0000000000E+00	0.0000000000E+00	6.5000000000E+03	6.5000000000E+03	9.3827000000E-01	0.000E+00	0.0
	2212	-1	0	0	0	0	0.0000000000E+00	0.0000000000E+00	-6.5000000000E+03	6.5000000000E+03	9.3827000000E-01	0.000E+00	0.0
	2212	1	0	0	0	0	0.0000000000E+00	0.0000000000E+00	6.0508378004E+03	6.0508378004E+03	9.3827000000E-01	0.000E+00	0.0
	2212	1	0	0	0	0	0.0000000000E+00	0.0000000000E+00	-5.8876855800E+03	5.8876855800E+03	9.3827000000E-01	0.000E+00	0.0
	51	2	1	2	0	0	6.2516079465E+01	-7.5267970814E+01	-6.3744911970E+01	1.0553439764E+03	1.0488631784E+03	0.000E+00	0.0
	1000022	2	5	5	0	0	-6.2516079465E+01	7.5267970814E+01	-2.3482549674E+02	8.8717024340E+02	8.4991440701E+02	0.000E+00	0.0
	14	1	6	6	0	0	-2.2480534836E+02	2.3193576419E+02	-9.8052376967E+01	4.6858394338E+02	3.2500000000E+02	0.000E+00	0.0
	-14	1	6	6	0	0	1.6228926890E+02	-1.5666779337E+02	-1.3677311977E+02	4.1858630003E+02	3.2500000000E+02	0.000E+00	0.0
	25	2	5	5	0	0	6.2516079465E+01	-7.5267970814E+01	7.1673276313E+01	1.7430637626E+02	1.2518836466E+02	0.000E+00	0.0
	-5	1	9	9	0	501	-3.7052434029E+01	-3.4080532325E+01	1.6251334701E+01	5.3065467402E+01	4.1800000000E+00	0.000E+00	0.0
	5	1	9	9	501	0	9.9568513494E+01	-4.1187438489E+01	5.5421941612E+01	1.2124090886E+02	4.1800000000E+00	0.000E+00	0.0
</event>
<event>
    11  -1  1.0000000E+00  1.0000000E+00  -1.0000000E+00  -1.0000000E+00
	2212	-1	0	0	0	0	0.0000000000E+00	0.0000000000E+00	6.5000000000E+03	6.5000000000E+03	9.3827000000E-01	0.000E+00	0.0
	2212	-1	0	0	0	0	0.0000000000E+00	0.0000000000E+00	-6.5000000000E+03	6.5000000000E+03	9.3827000000E-01	0.000E+00	0.0
	2212	1	0	0	0	0	0.0000000000E+00	0.0000000000E+00	6.2011281551E+03	6.2011281551E+03	9.3827000000E-01	0.000E+00	0.0
	2212	1	0	0	0	0	0.0000000000E+00	0.0000000000E+00	-5.6055462816E+03	5.6055462816E+03	9.3827000000E-01	0.000E+00	0.0
	51	2	1	2	0	0	-1.1741792384E+02	-2.4762231351E+01	-6.0397280135E+02	1.2035328885E+03	1.0340735622E+03	0.000E+00	0.0
	1000022	2	5	5	0	0	1.1741792384E+02	2.4762231351E+01	-4.9129390644E+02	9.9097607678E+02	8.5221109199E+02	0.000E+00	0.0
	14	1	6	6	0	0	-7.7284823224E+01	-1.8348363924E+02	-3.9332628910E+02	5.4769495110E+02	3.2500000000E+02	0.000E+00	0.0
	-14	1	6	6	0	0	1.9470274707E+02	2.0824587059E+02	-9.7967617340E+01	4.4328112568E+02	3.2500000000E+02	0.000E+00	0.0
	25	2	5	5	0	0	-1.1741792384E+02	-2.4762231351E+01	-1.0428796712E+02	2.0234948656E+02	1.2517666590E+02	0.000E+00	0.0
	-5	1	9	9	0	501	1.1413335562E+01	-2.8048184824E+00	1.8938784687E+01	2.2677768867E+01	4.1800000000E+00	0.000E+00	0.0
	5	1	9	9	501	0	-1.2883125940E+02	-2.1957412868E+01	-1.2322675180E+02	1.7967171769E+02	4.1800000000E+00	0.000E+00	0.0
</event>
<event>
    11  -1  1.0000000E+00  1.0000000E+00  -1.0000000E+00  -1.0000000E+00
	2212	-1	0	0	0	0	0.0000000000E+00	0.0000000000E+00	6.5000000000E+03	6.5000000000E+03	9.3827000000E-01	0.000E+00	0.0
	2212	-1	0	0	0	0	0.0000000000E+00	0.0000000000E+00	-6.5000000000E+03	6.5000000000E+03	9.3827000000E-01	0.000E+00	0.0
	2212	1	0	0	0	0	0.0000000000E+00	0.0000000000E+00	5.5544923484E+03	5.5544923484E+03	9.3827000000E-01	0.000E+00	0.0
	2212	1	0	0	0	0	0.0000000000E+00	0.0000000000E+00	-6.2094223740E+03	6.2094223740E+03	9.3827000000E-01	0.000E+00	0.0
	51	2	1	2	0	0	9.3157335366E+01	9.0902986327E+01	6.8603103549E+02	1.2595847327E+03	1.0483193574E+03	0.000E+00	0.0
	1000022	2	5	5	0	0	-9.3157335366E+01	-9.0902986327E+01	5.1535110342E+02	1.0078495224E+03	8.5628982123E+02	0.000E+00	0.0
	14	1	6	6	0	0	2.2768794421E+02	1.5422327181E+01	2.4397179772E+02	4.6607605194E+02	3.2500000000E+02	0.000E+00	0.0
	-14	1	6	6	0	0	-3.2084527958E+02	-1.0632531351E+02	2.7137930570E+02	5.4177347045E+02	3.2500000000E+02	0.000E+00	0.0
	25	2	5	5	0	0	9.3157335366E+01	9.0902986327E+01	1.3957892216E+02	2.2823575519E+02	1.2517045331E+02	0.000E+00	0.0
	-5	1	9	9	0	501	1.2313978593E+02	5.9711847716E+01	1.1042432367E+02	1.7589745676E+02	4.1800000000E+00	0.000E+00	0.0
	5	1	9	9	501	0	-2.9982450564E+01	3.1191138612E+01	2.9154598486E+01	5.2338298431E+01	4.1800000000E+00	0.000E+00	0.0
</event>
<event>
    11  -1  1.0000000E+00  1.0000000E+00  -1.0000000E+00  -1.0000000E+00
	2212	-1	0	0	0	0	0.0000000000E+00	0.0000000000E+00	6.5000000000E+03	6.5000000000E+03	9.3827000000E-01	0.000E+00	0.0
	2212	-1	0	0	0	0	0.0000000000E+00	0.0000000000E+00	-6.5000000000E+03	6.5000000000E+03	9.3827000000E-01	0.000E+00	0.0
	2212	1	0	0	0	0	0.0000000000E+00	0.0000000000E+00	6.3127745440E+03	6.3127745440E+03	9.3827000000E-01	0.000E+00	0.0
	2212	1	0	0	0	0	0.0000000000E+00	0.0000000000E+00	-5.0197833775E+03	5.0197833775E+03	9.3827000000E-01	0.000E+00	0.0
	51	2	1	2	0	0	-1.3686279083E+02	-4.9204787694E+01	-1.3597178632E+03	1.7258395437E+03	1.0528708034E+03	0.000E+00	0.0
	1000022	2	5	5	0	0	1.3686279083E+02	4.9204787694E+01	-9.9990378519E+02	1.3171297571E+03	8.4490868314E+02	0.000E+00	0.0
	14	1	6	6	0	0	-1.6058117729E+02	-5.2075269267E+01	-2.5667619949E+02	4.4722010191E+02	3.2500000000E+02	0.000E+00	0.0
	-14	1	6	6	0	0	2.9744396812E+02	1.0128005696E+02	-7.4322758569E+02	8.6990965522E+02	3.2500000000E+02	0.000E+00	0.0
	25	2	5	5	0	0	-1.3686279083E+02	-4.9204787694E+01	-2.9308738128E+02	3.5031232138E+02	1.2516379187E+02	0.000E+00	0.0
	-5	1	9	9	0	501	-2.3158126976E+01	-1.9400696783E+00	8.0486353282E+00	2.4946255150E+01	4.1800000000E+00	0.000E+00	0.0
	5	1	9	9	501	0	-1.1370466385E+02	-4.7264718016E+01	-3.0113601661E+02	3.2536606623E+02	4.1800000000E+00	0.000E+00	0.0
</event>
<event>
    11  -1  1.0000000E+00  1.0000000E+00  -1.0000000E+00  -1.0000000E+00
	2212	-1	0	0	0	0	0.0000000000E+00	0.0000000000E+00	6.5000000000E+03	6.5000000000E+03	9.3827000000E-01	0.000E+00	0.0
	2212	-1	0	0	0	0	0.0000000000E+00	0.0000000000E+00	-6.5000000000E+03	6.5000000000E+03	9.3827000000E-01	0.000E+00	0.0
	2212	1	0	0	0	0	0.0000000000E+00	0.0000000000E+00	5.8061042980E+03	5.8061042980E+03	9.3827000000E-01	0.000E+00	0.0
	2212	1	0	0	0	0	0.0000000000E+00	0.0000000000E+00	-6.0788390444E+03	6.0788390444E+03	9.3827000000E-01	0.000E+00	0.0
	51	2	1	2	0	0	-6.5331474901E+01	-1.7876101779E+02	2.0948347375E+02	1.1176198533E+03	1.0811878226E+03	0.000E+00	0.0
	1000022	2	5	5	0	0	6.5331474901E+01	1.7876101779E+02	2.8085922475E+02	8.8711147552E+02	8.1967137487E+02	0.000E+00	0.0
	14	1	6	6	0	0	-4.5785267219E+01	2.8408043823E+02	4.9047553132E+00	4.3410487524E+02	3.2500000000E+02	0.000E+00	0.0
	-14	1	6	6	0	0	1.1111674212E+02	-1.0531942044E+02	2.7595446943E+02	4.5300660028E+02	3.2500000000E+02	0.000E+00	0.0
	25	2	5	5	0	0	-6.5331474901E+01	-1.7876101779E+02	-8.1244784091E+00	2.2794518205E+02	1.2517705770E+02	0.000E+00	0.0
	-5	1	9	9	0	501	3.0012293128E+01	-8.4111783838E+01	1.7534092358E+01	9.1106787421E+01	4.1800000000E+00	0.000E+00	0.0
	5	1	9	9	501	0	-9.5343768029E+01	-9.4649233952E+01	-2.5658570767E+01	1.3683839462E+02	4.1800000000E+00	0.000E+00	0.0
</event>
<event>
    11  -1  1.0000000E+00  1.0000000E+00  -1.0000000E+00  -1.0000000E+00
	2212	-1	0	0	0	0	0.0000000000E+00	0.0000000000E+00	6.5000000000E+03	6.5000000000E+03	9.3827000000E-01	0.000E+00	0.0
	2212	-1	0	0	0	0	0.0000000000E+00	0.0000000000E+00	-6.5000000000E+03	6.5000000000E+03	9.3827000000E-01	0.000E+00	0.0
	2212	1	0	0	0	0	0.0000000000E+00	0.0000000000E+00	6.0404857317E+03	6.0404857317E+03	9.3827000000E-01	0.000E+00	0.0
	2212	1	0	0	0	0	0.0000000000E+00	0.0000000000E+00	-5.9107423468E+03	5.9107423468E+03	9.3827000000E-01	0.000E+00	0.0
	51	2	1	2	0	0	1.2999644237E+02	-1.2651923002E+01	-1.0907261139E+02	1.0545355273E+03	1.0407157141E+03	0.000E+00	0.0
	1000022	2	5	5	0	0	-1.2999644237E+02	1.2651923002E+01	-1.2874676876E+02	8.6786142961E+02	8.4826209650E+02	0.000E+00	0.0
	14	1	6	6	0	0	7.1268560062E+01	-1.5600666252E+02	-2.3568765958E+02	4.3656724486E+02	3.2500000000E+02	0.000E+00	0.0
	-14	1	6	6	0	0	-2.0126500243E+02	1.6865858552E+02	1.0694089082E+02	4.3129418476E+02	3.2500000000E+02	0.000E+00	0.0
	25	2	5	5	0	0	1.2999644237E+02	-1.2651923002E+01	-9.9661613519E-01	1.8091049193E+02	1.2517374590E+02	0.000E+00	0.0
	-5	1	9	9	0	501	4.3457604085E+01	-5.9605041222E+01	2.6679710339E+01	7.8553189850E+01	4.1800000000E+00	0.000E+00	0.0
	5	1	9	9	501	0	8.6538838286E+01	4.6953118220E+01	-2.7676326474E+01	1.0235730208E+02	4.1800000000E+00	0.000E+00	0.0
</event>
<event>
    11  -1  1.0000000E+00  1.0000000E+00  -1.0000000E+00  -1.0000000E+00
	2212	-1	0	0	0	0	0.0000000000E+00	0.0000000000E+00	6.5000000000E+03	6.5000000000E+03	9.3827000000E-01	0.000E+00	0.0
	2212	-1	0	0	0	0	0.0000000000E+00	0.0000000000E+00	-6.5000000000E+03	6.5000000000E+03	9.3827000000E-01	0.000E+00	0.0
	2212	1	0	0	0	0	0.0000000000E+00	0.0000000000E+00	5.4494470179E+03	5.4494470179E+03	9.3827000000E-01	0.000E+00	0.0
	2212	1	0	0	0	0	0.0000000000E+00	0.0000000000E+00	-6.2292967150E+03	6.2292967150E+03	9.3827000000E-01	0.000E+00	0.0
	51	2	1	2	0	0	-3.8563067441E+01	-4.9784758176E+01	6.0213079320E+02	1.2264092701E+03	1.0665610968E+03	0.000E+00	0.0
	1000022	2	5	5	0	0	3.8563067441E+01	4.9784758176E+01	8.1616938824E+02	1.1765383880E+03	8.4507069278E+02	0.000E+00	0.0
	14	1	6	6	0	0	2.7516153752E+02	6.2346512372E+01	5.3096436975E+02	6.8348308046E+02	3.2500000000E+02	0.000E+00	0.0
	-14	1	6	6	0	0	-2.3659847007E+02	-1.2561754195E+01	2.8520501849E+02	4.9305530753E+02	3.2500000000E+02	0.000E+00	0.0
	25	2	5	5	0	0	-3.8563067441E+01	-4.9784758176E+01	-3.6319691100E+01	1.4471787913E+02	1.2513397724E+02	0.000E+00	0.0
	-5	1	9	9	0	501	-4.5447800885E+01	-6.0929461948E+01	2.6349040858E+01	8.0558340926E+01	4.1800000000E+00	0.000E+00	0.0
	5	1	9	9	501	0	6.8847334442E+00	1.1144703772E+01	-6.2668731959E+01	6.4159538200E+01	4.1800000000E+00	0.000E+00	0.0
</event>
<event>
    11  -1  1.0000000E+00  1.0000000E+00  -1.0000000E+00  -1.0000000E+00
	2212	-1	0	0	0	0	0.0000000000E+00	0.0000000000E+00	6.5000000000E+03	6.5000000000E+03	9.3827000000E-01	0.000E+00	0.0
	2212	-1	0	0	0	0	0.0000000000E+00	0.0000000000E+00	-6.5000000000E+03	6.5000000000E+03	9.3827000000E-01	0.000E+00	0.0
	2212	1	0	0	0	0	0.0000000000E+00	0.0000000000E+00	6.2845387024E+03	6.2845387024E+03	9.3827000000E-01	0.000E+00	0.0
	2212	1	0	0	0	0	0.0000000000E+00	0.0000000000E+00	-5.2292141044E+03	5.2292141044E+03	9.3827000000E-01	0.000E+00	0.0
	51	2	1	2	0	0	1.3042704593E+01	-8.1973442967E+01	-1.2239180152E+03	1.6124781479E+03	1.0465279319E+03	0.000E+00	0.0
	1000022	2	5	5	0	0	-1.3042704593E+01	8.1973442967E+01	-7.0704822214E+02	1.1069630135E+03	8.4767928324E+02	0.000E+00	0.0
	14	1	6	6	0	0	-1.1870105996E+02	-1.0444189247E+02	-6.0466300584E+02	7.0444332715E+02	3.2500000000E+02	0.000E+00	0.0
	-14	1	6	6	0	0	1.0565835536E+02	1.8641533544E+02	-1.0238521629E+02	4.0251968630E+02	3.2500000000E+02	0.000E+00	0.0
	25	2	5	5	0	0	1.3042704593E+01	-8.1973442967E+01	-3.4827637585E+02	3.7928417975E+02	1.2518105902E+02	0.000E+00	0.0
	-5	1	9	9	0	501	-2.8377628398E+01	-7.9871530925E+01	-3.1415431947E+02	3.2541536548E+02	4.1800000000E+00	0.000E+00	0.0
	5	1	9	9	501	0	4.1420332990E+01	-2.1019120426E+00	-3.4122056373E+01	5.3868814266E+01	4.1800000000E+00	0.000E+00	0.0
</event>
<event>
    11  -1  1.0000000E+00  1.0000000E+00  -1.0000000E+00  -1.0000000E+00
	2212	-1	0	0	0	0	0.0000000000E+00	0.0000000000E+00	6.5000000000E+03	6.5000000000E+03	9.3827000000E-01	0.000E+00	0.0
	2212	-1	0	0	0	0	0.0000000000E+00	0.0000000000E+00	-6.5000000000E+03	6.5000000000E+03	9.3827000000E-01	0.000E+00	0.0
	2212	1	0	0	0	0	0.0000000000E+00	0.0000000000E+00	6.2820954679E+03	6.2820954679E+03	9.3827000000E-01	0.000E+00	0.0
	2212	1	0	0	0	0	0.0000000000E+00	0.0000000000E+00	-5.3036236558E+03	5.3036236558E+03	9.3827000000E-01	0.000E+00	0.0
	51	2	1	2	0	0	-5.4160964214E+00	1.0741461698E+02	-9.5995202488E+02	1.4056523162E+03	1.0211676208E+03	0.000E+00	0.0
	1000022	2	5	5	0	0	5.4160964214E+00	-1.0741461698E+02	-8.4353000832E+02	1.2010964104E+03	8.4824670831E+02	0.000E+00	0.0
	14	1	6	6	0	0	-4.4833258324E+01	-2.2816659160E+02	-1.5511447763E+02	4.2866713863E+02	3.2500000000E+02	0.000E+00	0.0
	-14	1	6	6	0	0	5.0249354745E+01	1.2075197462E+02	-6.8841553069E+02	7.7242927179E+02	3.2500000000E+02	0.000E+00	0.0
	25	2	5	5	0	0	-5.4160964214E+00	1.0741461698E+02	-1.3494180378E+02	2.1318446580E+02	1.2518423228E+02	0.000E+00	0.0
	-5	1	9	9	0	501	-5.7478654659E+01	1.7514289884E+01	-3.9348914176E+01	7.1946893876E+01	4.1800000000E+00	0.000E+00	0.0
	5	1	9	9	501	0	5.2062558238E+01	8.9900327093E+01	-9.5592889600E+01	1.4123757193E+02	4.1800000000E+00	0.000E+00	0.0
</event>
<event>
    11  -1  1.0000000E+00  1.0000000E+00  -1.0000000E+00  -1.0000000E+00
	2212	-1	0	0	0	0	0.0000000000E+00	0.0000000000E+00	6.5000000000E+03	6.5000000000E+03	9.3827000000E-01	0.000E+00	0.0
	2212	-1	0	0	0	0	0.0000000000E+00	0.0000000000E+00	-6.5000000000E+03	6.5000000000E+03	9.3827000000E-01	0.000E+00	0.0
	2212	1	0	0	0	0	0.0000000000E+00	0.0000000000E+00	6.0634418047E+03	6.0634418047E+03	9.3827000000E-01	0.000E+00	0.0
	2212	1	0	0	0	0	0.0000000000E+00	0.0000000000E+00	-5.8810394009E+03	5.8810394009E+03	9.3827000000E-01	0.000E+00	0.0
	51	2	1	2	0	0	-1.0808472425E+02	4.7837255673E+01	-1.2364550997E+02	1.0536167288E+03	1.0396390184E+03	0.000E+00	0.0
	1000022	2	5	5	0	0	1.0808472425E+02	-4.7837255673E+01	-2.1068120355E+02	8.8105146773E+02	8.4728649737E+02	0.000E+00	0.0
	14	1	6	6	0	0	-4.4886755698E+01	1.2497419935E+02	-3.1209239168E+02	4.6974464583E+02	3.2500000000E+02	0.000E+00	0.0
	-14	1	6	6	0	0	1.5297147994E+02	-1.7281145502E+02	1.0141118814E+02	4.1130682190E+02	3.2500000000E+02	0.000E+00	0.0
	25	2	5	5	0	0	-1.0808472425E+02	4.7837255673E+01	2.8278799753E+01	1.7446732669E+02	1.2517366705E+02	0.000E+00	0.0
	-5	1	9	9	0	501	-9.3527966963E+00	6.9034083887E+01	1.0597787333E+00	6.9798102231E+01	4.1800000000E+00	0.000E+00	0.0
	5	1	9	9	501	0	-9.8731927551E+01	-2.1196828214E+01	2.7219021020E+01	1.0466922446E+02	4.1800000000E+00	0.000E+00	0.0
</event>
<event>
    11  -1  1.0000000E+00  1.0000000E+00  -1.0000000E+00  -1.0000000E+00
	2212	-1	0	0	0	0	0.0000000000E+00	0.0000000000E+00	6.5000000000E+03	6.5000000000E+03	9.3827000000E-01	0.000E+00	0.0
	2212	-1	0	0	0	0	0.0000000000E+00	0.0000000000E+00	-6.5000000000E+03	6.5000000000E+03	9.3827000000E-01	0.000E+00	0.0
	2212	1	0	0	0	0	0.0000000000E+00	0.0000000000E+00	5.5752781907E+03	5.5752781907E+03	9.3827000000E-01	0.000E+00	0.0
	2212	1	0	0	0	0	0.0000000000E+00	0.0000000000E+00	-6.2060692725E+03	6.2060692725E+03	9.3827000000E-01	0.000E+00	0.0
	51	2	1	2	0	0	-6.4883062025E+01	9.2587611020E+01	5.8442985890E+02	1.2006486389E+03	1.0426967999E+03	0.000E+00	0.0
	1000022	2	5	5	0	0	6.4883062025E+01	-9.2587611020E+01	5.7603629831E+02	1.0413060544E+03	8.6006872085E+02	0.000E+00	0.0
	14	1	6	6	0	0	-2.4404274836E+01	8.7368865872E+01	-1.4740856641E+01	3.3774425267E+02	3.2500000000E+02	0.000E+00	0.0
	-14	1	6	6	0	0	8.9287336861E+01	-1.7995647689E+02	5.9077715495E+02	7.0356180177E+02	3.2500000000E+02	0.000E+00	0.0
	25	2	5	5	0	0	-6.4883062025E+01	9.2587611020E+01	5.4754783504E+01	1.7734648238E+02	1.2518550652E+02	0.000E+00	0.0
	-5	1	9	9	0	501	-5.9330882462E+01	4.0829273949E+01	8.9248356595E+01	1.1476029270E+02	4.1800000000E+00	0.000E+00	0.0
	5	1	9	9	501	0	-5.5521795627E+00	5.1758337071E+01	-3.4493573090E+01	6.2586189681E+01	4.1800000000E+00	0.000E+00	0.0
</event>
<event>
    11  -1  1.0000000E+00  1.0000000E+00  -1.0000000E+00  -1.0000000E+00
	2212	-1	0	0	0	0	0.0000000000E+00	0.0000000000E+00	6.5000000000E+03	6.5000000000E+03	9.3827000000E-01	0.000E+00	0.0
	2212	-1	0	0	0	0	0.0000000000E+00	0.0000000000E+00	-6.5000000000E+03	6.5000000000E+03	9.3827000000E-01	0.000E+00	0.0
	2212	1	0	0	0	0	0.0000000000E+00	0.0000000000E+00	6.2983213749E+03	6.2983213749E+03	9.3827000000E-01	0.000E+00	0.0
	2212	1	0	0	0	0	0.0000000000E+00	0.0000000000E+00	-5.1372998248E+03	5.1372998248E+03	9.3827000000E-01	0.000E+00	0.0
	51	2	1	2	0	0	9.1996690967E+00	9.5823890392E+01	-1.0133111654E+03	1.4612927019E+03	1.0484798476E+03	0.000E+00	0.0
	1000022	2	5	5	0	0	-9.1996690967E+00	-9.5823890392E+01	-1.1087802858E+03	1.3980468840E+03	8.4609368031E+02	0.000E+00	0.0
	14	1	6	6	0	0	1.0172847392E+02	-2.9349825659E+02	-6.6975568459E+02	8.0665208490E+02	3.2500000000E+02	0.000E+00	0.0
	-14	1	6	6	0	0	-1.1092814301E+02	1.9767436620E+02	-4.3902460118E+02	5.9139479910E+02	3.2500000000E+02	0.000E+00	0.0
	25	2	5	5	0	0	9.1996690967E+00	9.5823890392E+01	-5.2241264421E+01	1.6633191631E+02	1.2518108800E+02	0.000E+00	0.0
	-5	1	9	9	0	501	-2.8909004962E+01	-1.9509698522E+01	-2.0683964015E+01	4.0763435474E+01	4.1800000000E+00	0.000E+00	0.0
	5	1	9	9	501	0	3.8108674058E+01	1.1533358891E+02	-3.1557300406E+01	1.2556848083E+02	4.1800000000E+00	0.000E+00	0.0
</event>
<event>
    11  -1  1.0000000E+00  1.0000000E+00  -1.0000000E+00  -1.0000000E+00
	2212	-1	0	0	0	0	0.0000000000E+00	0.0000000000E+00	6.5000000000E+03	6.5000000000E+03	9.3827000000E-01	0.000E+00	0.0
	2212	-1	0	0	0	0	0.0000000000E+00	0.0000000000E+00	-6.5000000000E+03	6.5000000000E+03	9.3827000000E-01	0.000E+00	0.0
	2212	1	0	0	0	0	0.0000000000E+00	0.0000000000E+00	5.6541035949E+03	5.6541035949E+03	9.3827000000E-01	0.000E+00	0.0
	2212	1	0	0	0	0	0.0000000000E+00	0.0000000000E+00	-6.1741141841E+03	6.1741141841E+03	9.3827000000E-01	0.000E+00	0.0
	51	2	1	2	0	0	5.7142918984E+01	1.1987879720E+02	5.5311486913E+02	1.1942507518E+03	1.0500774069E+03	0.000E+00	0.0
	1000022	2	5	5	0	0	-5.7142918984E+01	-1.1987879720E+02	3.9992421534E+02	9.5330985245E+02	8.5511640000E+02	0.000E+00	0.0
	14	1	6	6	0	0	1.6289832991E+02	-1.3902995444E+02	4.0311063526E+02	5.6034665912E+02	3.2500000000E+02	0.000E+00	0.0
	-14	1	6	6	0	0	-2.2004124890E+02	1.9151157242E+01	-3.1864199256E+00	3.9296319333E+02	3.2500000000E+02	0.000E+00	0.0
	25	2	5	5	0	0	5.7142918984E+01	1.1987879720E+02	1.2008637382E+02	2.1847236853E+02	1.2519264926E+02	0.000E+00	0.0
	-5	1	9	9	0	501	5.3287667871E+01	9.0605360884E+01	1.4532581609E+02	1.7940449323E+02	4.1800000000E+00	0.000E+00	0.0
	5	1	9	9	501	0	3.8552511123E+00	2.9273436316E+01	-2.5239442271E+01	3.9067875307E+01	4.1800000000E+00	0.000E+00	0.0
</event>
<event>
    11  -1  1.0000000E+00  1.0000000E+00  -1.0000000E+00  -1.0000000E+00
	2212	-1	0	0	0	0	0.0000000000E+00	0.0000000000E+00	6.5000000000E+03	6.5000000000E+03	9.3827000000E-01	0.000E+00	0.0
	2212	-1	0	0	0	0	0.0000000000E+00	0.0000000000E+00	-6.5000000000E+03	6.5000000000E+03	9.3827000000E-01	0.000E+00	0.0
	2212	1	0	0	0	0	0.0000000000E+00	0.0000000000E+00	6.2796401534E+03	6.2796401534E+03	9.3827000000E-01	0.000E+00	0.0
	2212	1	0	0	0	0	0.0000000000E+00	0.0000000000E+00	-5.3142925849E+03	5.3142925849E+03	9.3827000000E-01	0.000E+00	0.0
	51	2	1	2	0	0	-1.2214872047E+01	7.5032442674E+01	-8.7043441574E+02	1.3448287471E+03	1.0223156148E+03	0.000E+00	0.0
	1000022	2	5	5	0	0	1.2214872047E+01	-7.5032442674E+01	-9.1095279425E+02	1.2498328215E+03	8.5233093205E+02	0.000E+00	0.0
	14	1	6	6	0	0	-6.4100490768E+01	4.2897961189E+01	-7.5500505756E+01	3.4245355066E+02	3.2500000000E+02	0.000E+00	0.0
	-14	1	6	6	0	0	7.6315362814E+01	-1.1793040386E+02	-8.3545228849E+02	9.0737927081E+02	3.2500000000E+02	0.000E+00	0.0
	25	2	5	5	0	0	-1.2214872047E+01	7.5032442674E+01	-5.4394774257E+01	1.5623444016E+02	1.2518521588E+02	0.000E+00	0.0
	-5	1	9	9	0	501	4.7172736069E+01	6.7992818253E+01	-1.4227149256E+01	8.4072436257E+01	4.1800000000E+00	0.000E+00	0.0
	5	1	9	9	501	0	-5.9387608115E+01	7.0396244205E+00	-4.0167625000E+01	7.2162003907E+01	4.1800000000E+00	0.000E+00	0.0
</event>
<event>
    11  -1  1.0000000E+00  1.0000000E+00  -1.0000000E+00  -1.0000000E+00
	2212	-1	0	0	0	0	0.0000000000E+00	0.0000000000E+00	6.5000000000E+03	6.5000000000E+03	9.3827000000E-01	0.000E+00	0.0
	2212	-1	0	0	0	0	0.0000000000E+00	0.0000000000E+00	-6.5000000000E+03	6.5000000000E+03	9.3827000000E-01	0.000E+00	0.0
	2212	1	0	0	0	0	0.0000000000E+00	0.0000000000E+00	5.9947542647E+03	5.9947542647E+03	9.3827000000E-01	0.000E+00	0.0
	2212	1	0	0	0	0	0.0000000000E+00	0.0000000000E+00	-5.9423077047E+03	5.9423077047E+03	9.3827000000E-01	0.000E+00	0.0
	51	2	1	2	0	0	1.3740700827E+02	-1.0940675436E+01	-1.1319450924E+02	1.0765221766E+03	1.0616433560E+03	0.000E+00	0.0
	1000022	2	5	5	0	0	-1.3740700827E+02	1.0940675436E+01	1.7444452521E+01	8.6405079378E+02	8.5280659063E+02	0.000E+00	0.0
	14	1	6	6	0	0	1.7764560185E+02	-3.2624994737E+01	1.3296297464E+02	3.9487530027E+02	3.2500000000E+02	0.000E+00	0.0
	-14	1	6	6	0	0	-3.1505261012E+02	4.3565670174E+01	-1.1551852212E+02	4.6917549351E+02	3.2500000000E+02	0.000E+00	0.0
	25	2	5	5	0	0	1.3740700827E+02	-1.0940675436E+01	-6.9891012524E+01	1.9888723690E+02	1.2518384508E+02	0.000E+00	0.0
	-5	1	9	9	0	501	7.4687398828E+01	-2.3005355451E+01	-1.0095816421E+02	1.2773988118E+02	4.1800000000E+00	0.000E+00	0.0
	5	1	9	9	501	0	6.2719609440E+01	1.2064680015E+01	3.1067151684E+01	7.1147355720E+01	4.1800000000E+00	0.000E+00	0.0
</event>
<event>
    11  -1  1.0000000E+00  1.0000000E+00  -1.0000000E+00  -1.0000000E+00
	2212	-1	0	0	0	0	0.0000000000E+00	0.0000000000E+00	6.5000000000E+03	6.5000000000E+03	9.3827000000E-01	0.000E+00	0.0
	2212	-1	0	0	0	0	0.0000000000E+00	0.0000000000E+00	-6.5000000000E+03	6.5000000000E+03	9.3827000000E-01	0.000E+00	0.0
	2212	1	0	0	0	0	0.0000000000E+00	0.0000000000E+00	5.6013223427E+03	5.6013223427E+03	9.3827000000E-01	0.000E+00	0.0
	2212	1	0	0	0	0	0.0000000000E+00	0.0000000000E+00	-6.2043437986E+03	6.2043437986E+03	9.3827000000E-01	0.000E+00	0.0
	51	2	1	2	0	0	6.8031709327E+01	1.9590674001E+01	5.0106169094E+02	1.1484221419E+03	1.0309211851E+03	0.000E+00	0.0
	1000022	2	5	5	0	0	-6.8031709327E+01	-1.9590674001E+01	6.0912998648E+02	1.0504042796E+03	8.5281750818E+02	0.000E+00	0.0
	14	1	6	6	0	0	-9.0003907565E+01	-1.4966972274E+02	2.5943974010E+01	3.6986459559E+02	3.2500000000E+02	0.000E+00	0.0
	-14	1	6	6	0	0	2.1972198238E+01	1.3007904874E+02	5.8318601248E+02	6.8053968405E+02	3.2500000000E+02	0.000E+00	0.0
	25	2	5	5	0	0	6.8031709327E+01	1.9590674001E+01	-6.1085305562E+00	1.4392957909E+02	1.2516509741E+02	0.000E+00	0.0
	-5	1	9	9	0	501	-5.0976649205E+00	7.3100949898E+00	4.9928835602E+01	5.0889927304E+01	4.1800000000E+00	0.000E+00	0.0
	5	1	9	9	501	0	7.3129374247E+01	1.2280579011E+01	-5.6037366158E+01	9.3039651787E+01	4.1800000000E+00	0.000E+00	0.0
</event>
<event>
    11  -1  1.0000000E+00  1.0000000E+00  -1.0000000E+00  -1.0000000E+00
	2212	-1	0	0	0	0	0.0000000000E+00	0.0000000000E+00	6.5000000000E+03	6.5000000000E+03	9.3827000000E-01	0.000E+00	0.0
	2212	-1	0	0	0	0	0.0000000000E+00	0.0000000000E+00	-6.5000000000E+03	6.5000000000E+03	9.3827000000E-01	0.000E+00	0.0
	2212	1	0	0	0	0	0.0000000000E+00	0.0000000000E+00	5.3561578213E+03	5.3561578213E+03	9.3827000000E-01	0.000E+00	0.0
	2212	1	0	0	0	0	0.0000000000E+00	0.0000000000E+00	-6.2591606467E+03	6.2591606467E+03	9.3827000000E-01	0.000E+00	0.0
	51	2	1	2	0	0	-5.3765660018E+01	-4.9348550839E+00	1.0731338436E+03	1.5021518524E+03	1.0497279850E+03	0.000E+00	0.0
	1000022	2	5	5	0	0	5.3765660018E+01	4.9348550839E+00	5.8211307158E+02	1.0360349284E+03	8.5533481501E+02	0.000E+00	0.0
	14	1	6	6	0	0	-2.4244480144E+02	-3.1679086407E+01	2.0431071525E+02	4.5513834669E+02	3.2500000000E+02	0.000E+00	0.0
	-14	1	6	6	0	0	2.9621046146E+02	3.6613941491E+01	3.7780235634E+02	5.8089658171E+02	3.2500000000E+02	0.000E+00	0.0
	25	2	5	5	0	0	-5.3765660018E+01	-4.9348550839E+00	3.2088975375E+02	3.4864660359E+02	1.2517636015E+02	0.000E+00	0.0
	-5	1	9	9	0	501	-8.2727175840E+01	3.0468949383E+01	1.8027673692E+02	2.0072198877E+02	4.1800000000E+00	0.000E+00	0.0
	5	1	9	9	501	0	2.8961515821E+01	-3.5403804467E+01	1.4061301683E+02	1.4792461482E+02	4.1800000000E+00	0.000E+00	0.0
</event>
<event>
    11  -1  1.0000000E+00  1.0000000E+00  -1.0000000E+00  -1.0000000E+00
	2212	-1	0	0	0	0	0.0000000000E+00	0.0000000000E+00	6.5000000000E+03	6.5000000000E+03	9.3827000000E-01	0.000E+00	0.0
	2212	-1	0	0	0	0	0.0000000000E+00	0.0000000000E+00	-6.5000000000E+03	6.5000000000E+03	9.3827000000E-01	0.000E+00	0.0
	2212	1	0	0	0	0	0.0000000000E+00	0.0000000000E+00	6.1205755603E+03	6.1205755603E+03	9.3827000000E-01	0.000E+00	0.0
	2212	1	0	0	0	0	0.0000000000E+00	0.0000000000E+00	-5.7716181803E+03	5.7716181803E+03	9.3827000000E-01	0.000E+00	0.0
	51	2	1	2	0	0	-4.9727895192E+01	-9.2954571863E+01	-2.5480488526E+02	1.0869693652E+03	1.0514102222E+03	0.000E+00	0.0
	1000022	2	5	5	0	0	4.9727895192E+01	9.2954571863E+01	-3.8383681315E+02	9.4047384559E+02	8.5208388033E+02	0.000E+00	0.0
	14	1	6	6	0	0	5.3278867915E+01	-1.4653756926E+02	-3.9738907371E+02	5.3652117654E+02	3.2500000000E+02	0.000E+00	0.0
	-14	1	6	6	0	0	-3.5509727238E+00	2.3949214112E+02	1.3552260567E+01	4.0395266905E+02	3.2500000000E+02	0.000E+00	0.0
	25	2	5	5	0	0	-4.9727895192E+01	-9.2954571863E+01	3.4879433101E+01	1.6733241385E+02	1.2518045327E+02	0.000E+00	0.0
	-5	1	9	9	0	501	-1.3354194112E+01	1.9708497557E+01	4.2212285961E+01	4.8642665042E+01	4.1800000000E+00	0.000E+00	0.0
	5	1	9	9	501	0	-3.6373701080E+01	-1.1266306942E+02	-7.3328528598E+00	1.1868974881E+02	4.1800000000E+00	0.000E+00	0.0
</event>
<event>
    11  -1  1.0000000E+00  1.0000000E+00  -1.0000000E+00  -1.0000000E+00
	2212	-1	0	0	0	0	0.0000000000E+00	0.0000000000E+00	6.5000000000E+03	6.5000000000E+03	9.3827000000E-01	0.000E+00	0.0
	2212	-1	0	0	0	0	0.0000000000E+00	0.0000000000E+00	-6.5000000000E+03	6.5000000000E+03	9.3827000000E-01	0.000E+00	0.0
	2212	1	0	0	0	0	0.0000000000E+00	0.0000000000E+00	6.2265400639E+03	6.2265400639E+03	9.3827000000E-01	0.000E+00	0.0
	2212	1	0	0	0	0	0.0000000000E+00	0.0000000000E+00	-5.4507954793E+03	5.4507954793E+03	9.3827000000E-01	0.000E+00	0.0
	51	2	1	2	0	0	3.1915371090E+01	-9.0729703434E+01	-9.4382516178E+02	1.4309849791E+03	1.0712896922E+03	0.000E+00	0.0
	1000022	2	5	5	0	0	-3.1915371090E+01	9.0729703434E+01	-4.6871094115E+02	9.7742538457E+02	8.5230274319E+02	0.000E+00	0.0
	14	1	6	6	0	0	-2.8780433999E+02	4.3276752618E+00	-2.1391656138E+02	4.8397867941E+02	3.2500000000E+02	0.000E+00	0.0
	-14	1	6	6	0	0	2.5588896890E+02	8.6402028172E+01	-2.5479437977E+02	4.9344670516E+02	3.2500000000E+02	0.000E+00	0.0
	25	2	5	5	0	0	3.1915371090E+01	-9.0729703434E+01	-3.0703364347E+02	3.4523907216E+02	1.2517942614E+02	0.000E+00	0.0
	-5	1	9	9	0	501	-2.4006416452E+01	-6.1911279751E+01	-5.7736078287E+01	8.8092234206E+01	4.1800000000E+00	0.000E+00	0.0
	5	1	9	9	501	0	5.5921787542E+01	-2.8818423682E+01	-2.4929756518E+02	2.5714683796E+02	4.1800000000E+00	0.000E+00	0.0
</event>
<event>
    11  -1  1.0000000E+00  1.0000000E+00  -1.0000000E+00  -1.0000000E+00
	2212	-1	0	0	0	0	0.0000000000E+00	0.0000000000E+00	6.5000000000E+03	6.5000000000E+03	9.3827000000E-01	0.000E+00	0.0
	2212	-1	0	0	0	0	0.0000000000E+00	0.0000000000E+00	-6.5000000000E+03	6.5000000000E+03	9.3827000000E-01	0.000E+00	0.0
	2212	1	0	0	0	0	0.0000000000E+00	0.0000000000E+00	5.7243246114E+03	5.7243246114E+03	9.3827000000E-01	0.000E+00	0.0
	2212	1	0	0	0	0	0.0000000000E+00	0.0000000000E+00	-6.1477148947E+03	6.1477148947E+03	9.3827000000E-01	0.000E+00	0.0
	51	2	1	2	0	0	1.3166504202E+02	-3.3158260744E+01	5.0662152078E+02	1.1696734855E+03	1.0454834020E+03	0.000E+00	0.0
	1000022	2	5	5	0	0	-1.3166504202E+02	3.3158260744E+01	2.6432850927E+02	8.8422621667E+02	8.3279726698E+02	0.000E+00	0.0
	14	1	6	6	0	0	-1.9872414716E+02	-4.9223285350E+01	-8.7152698776E+01	3.9387156713E+02	3.2500000000E+02	0.000E+00	0.0
	-14	1	6	6	0	0	6.7059105143E+01	8.2381546094E+01	3.5148120805E+02	4.9035464954E+02	3.2500000000E+02	0.000E+00	0.0
	25	2	5	5	0	0	1.3166504202E+02	-3.3158260744E+01	1.5906177398E+02	2.4373427725E+02	1.2518225282E+02	0.000E+00	0.0
	-5	1	9	9	0	501	9.5816773701E+01	3.4657095920E+01	5.9800582167E+01	1.1821823230E+02	4.1800000000E+00	0.000E+00	0.0
	5	1	9	9	501	0	3.5848268320E+01	-6.7815356664E+01	9.9261191812E+01	1.2551604495E+02	4.1800000000E+00	0.000E+00	0.0
</event>
<event>
    11  -1  1.0000000E+00  1.0000000E+00  -1.0000000E+00  -1.0000000E+00
	2212	-1	0	0	0	0	0.0000000000E+00	0.0000000000E+00	6.5000000000E+03	6.5000000000E+03	9.3827000000E-01	0.000E+00	0.0
	2212	-1	0	0	0	0	0.0000000000E+00	0.0000000000E+00	-6.5000000000E+03	6.5000000000E+03	9.3827000000E-01	0.000E+00	0.0
	2212	1	0	0	0	0	0.0000000000E+00	0.0000000000E+00	5.2985397248E+03	5.2985397248E+03	9.3827000000E-01	0.000E+00	0.0
	2212	1	0	0	0	0	0.0000000000E+00	0.0000000000E+00	-5.3572167064E+03	5.3572167064E+03	9.3827000000E-01	0.000E+00	0.0
	51	2	1	2	0	0	6.5865232191E+02	7.7157972176E+02	4.5045062958E+01	2.5540599302E+03	2.3435091042E+03	0.000E+00	0.0
	1000022	2	5	5	0	0	-6.5865232191E+02	-7.7157972176E+02	5.1975004164E+01	1.3220540447E+03	8.4614853775E+02	0.000E+00	0.0
	14	1	6	6	0	0	-1.9018812729E+02	-1.8337288204E+02	-2.0117263562E+02	4.6464240762E+02	3.2500000000E+02	0.000E+00	0.0
	-14	1	6	6	0	0	-4.6846419462E+02	-5.8820683972E+02	2.5314763979E+02	8.5741163711E+02	3.2500000000E+02	0.000E+00	0.0
	25	2	5	5	0	0	6.5865232191E+02	7.7157972176E+02	6.7019774357E+00	1.0221895240E+03	1.2517331308E+02	0.000E+00	0.0
	-5	1	9	9	0	501	3.1246171427E+02	3.8036666213E+02	6.4976311082E+01	4.9653853219E+02	4.1800000000E+00	0.000E+00	0.0
	5	1	9	9	501	0	3.4619060764E+02	3.9121305963E+02	-5.8274333646E+01	5.2565099182E+02	4.1800000000E+00	0.000E+00	0.0
</event>
<event>
    11  -1  1.0000000E+00  1.0000000E+00  -1.0000000E+00  -1.0000000E+00
	2212	-1	0	0	0	0	0.0000000000E+00	0.0000000000E+00	6.5000000000E+03	6.5000000000E+03	9.3827000000E-01	0.000E+00	0.0
	2212	-1	0	0	0	0	0.0000000000E+00	0.0000000000E+00	-6.5000000000E+03	6.5000000000E+03	9.3827000000E-01	0.000E+00	0.0
	2212	1	0	0	0	0	0.0000000000E+00	0.0000000000E+00	5.7423761585E+03	5.7423761585E+03	9.3827000000E-01	0.000E+00	0.0
	2212	1	0	0	0	0	0.0000000000E+00	0.0000000000E+00	-6.1335122504E+03	6.1335122504E+03	9.3827000000E-01	0.000E+00	0.0
	51	2	1	2	0	0	-8.9561433034E-01	-6.5068030507E+01	2.5594255536E+02	1.0864532522E+03	1.0538687901E+03	0.000E+00	0.0
	1000022	2	5	5	0	0	8.9561433034E-01	6.5068030507E+01	4.5878790553E+02	9.6765735593E+02	8.4949382900E+02	0.000E+00	0.0
	14	1	6	6	0	0	1.2667455310E+02	1.1802636372E+02	4.9094697631E+02	6.1370236963E+02	3.2500000000E+02	0.000E+00	0.0
	-14	1	6	6	0	0	-1.2577893877E+02	-5.2958333216E+01	-3.2159070779E+01	3.5395498630E+02	3.2500000000E+02	0.000E+00	0.0
	25	2	5	5	0	0	-8.9561433034E-01	-6.5068030507E+01	-6.7651813634E+01	1.5645423516E+02	1.2516592624E+02	0.000E+00	0.0
	-5	1	9	9	0	501	1.4280544330E+01	-5.8005880456E+01	-1.0185005675E+02	1.1815042350E+02	4.1800000000E+00	0.000E+00	0.0
	5	1	9	9	501	0	-1.5176158660E+01	-7.0621500505E+00	3.4198243118E+01	3.8303811656E+01	4.1800000000E+00	0.000E+00	0.0
</event>
<event>
    11  -1  1.0000000E+00  1.0000000E+00  -1.0000000E+00  -1.0000000E+00
	2212	-1	0	0	0	0	0.0000000000E+00	0.0000000000E+00	6.5000000000E+03	6.5000000000E+03	9.3827000000E-01	0.000E+00	0.0
	2212	-1	0	0	0	0	0.0000000000E+00	0.0000000000E+00	-6.5000000000E+03	6.5000000000E+03	9.3827000000E-01	0.000E+00	0.0
	2212	1	0	0	0	0	0.0000000000E+00	0.0000000000E+00	6.2512718323E+03	6.2512718323E+03	9.3827000000E-01	0.000E+00	0.0
	2212	1	0	0	0	0	0.0000000000E+00	0.0000000000E+00	-5.3947334523E+03	5.3947334523E+03	9.3827000000E-01	0.000E+00	0.0
	51	2	1	2	0	0	1.3621524734E+02	-1.3231793583E+02	-9.3232829399E+02	1.4159598760E+03	1.0486389717E+03	0.000E+00	0.0
	1000022	2	5	5	0	0	-1.3621524734E+02	1.3231793583E+02	-6.0578036731E+02	1.0154443059E+03	7.9252423000E+02	0.000E+00	0.0
	14	1	6	6	0	0	-2.9557173796E+01	-9.5013149924E+01	-8.1639618142E+01	3.4955851074E+02	3.2500000000E+02	0.000E+00	0.0
	-14	1	6	6	0	0	-1.0665807355E+02	2.2733108576E+02	-5.2414074917E+02	6.6588579512E+02	3.2500000000E+02	0.000E+00	0.0
	25	2	5	5	0	0	1.3621524734E+02	-1.3231793583E+02	-2.5075801272E+02	3.3855040954E+02	1.2519652193E+02	0.000E+00	0.0
	-5	1	9	9	0	501	1.5723154150E+01	2.9792651203E+00	-1.0414008087E+02	1.0544535286E+02	4.1800000000E+00	0.000E+00	0.0
	5	1	9	9	501	0	1.2049209319E+02	-1.3529720095E+02	-1.4661793185E+02	2.3310505668E+02	4.1800000000E+00	0.000E+00	0.0
</event>
<event>
    11  -1  1.0000000E+00  1.0000000E+00  -1.0000000E+00  -1.0000000E+00
	2212	-1	0	0	0	0	0.0000000000E+00	0.0000000000E+00	6.5000000000E+03	6.5000000000E+03	9.3827000000E-01	0.000E+00	0.0
	2212	-1	0	0	0	0	0.0000000000E+00	0.0000000000E+00	-6.5000000000E+03	6.5000000000E+03	9.3827000000E-01	0.000E+00	0.0
	2212	1	0	0	0	0	0.0000000000E+00	0.0000000000E+00	6.3336976459E+03	6.3336976459E+03	9.3827000000E-01	0.000E+00	0.0
	2212	1	0	0	0	0	0.0000000000E+00	0.0000000000E+00	-4.8540091787E+03	4.8540091787E+03	9.3827000000E-01	0.000E+00	0.0
	51	2	1	2	0	0	6.7180029550E+01	-1.0861815996E+02	-1.5561751467E+03	1.8796065392E+03	1.0463883570E+03	0.000E+00	0.0
	1000022	2	5	5	0	0	-6.7180029550E+01	1.0861815996E+02	-1.1568256929E+03	1.4432232426E+03	8.5342637828E+02	0.000E+00	0.0
	14	1	6	6	0	0	8.3568151289E+01	-6.9377573805E+01	-9.1190325323E+02	9.7416088348E+02	3.2500000000E+02	0.000E+00	0.0
	-14	1	6	6	0	0	-1.5074818084E+02	1.7799573377E+02	-2.4492243964E+02	4.6906235908E+02	3.2500000000E+02	0.000E+00	0.0
	25	2	5	5	0	0	6.7180029550E+01	-1.0861815996E+02	-3.2286277436E+02	3.6906993287E+02	1.2514464927E+02	0.000E+00	0.0
	-5	1	9	9	0	501	4.3665896044E+01	-1.3169874455E+02	-2.1252439477E+02	2.5384121132E+02	4.1800000000E+00	0.000E+00	0.0
	5	1	9	9	501	0	2.3514133506E+01	2.3080584589E+01	-1.1033837959E+02	1.1522872155E+02	4.1800000000E+00	0.000E+00	0.0
</event>
<event>
    11  -1  1.0000000E+00  1.0000000E+00  -1.0000000E+00  -1.0000000E+00
	2212	-1	0	0	0	0	0.0000000000E+00	0.0000000000E+00	6.5000000000E+03	6.5000000000E+03	9.3827000000E-01	0.000E+00	0.0
	2212	-1	0	0	0	0	0.0000000000E+00	0.0000000000E+00	-6.5000000000E+03	6.5000000000E+03	9.3827000000E-01	0.000E+00	0.0
	2212	1	0	0	0	0	0.0000000000E+00	0.0000000000E+00	6.1582676158E+03	6.1582676158E+03	9.3827000000E-01	0.000E+00	0.0
	2212	1	0	0	0	0	0.0000000000E+00	0.0000000000E+00	-5.7023778127E+03	5.7023778127E+03	9.3827000000E-01	0.000E+00	0.0
	51	2	1	2	0	0	-1.2707905689E+02	1.5818408263E+01	-5.4927930612E+02	1.1867604610E+03	1.0441711196E+03	0.000E+00	0.0
	1000022	2	5	5	0	0	1.2707905689E+02	-1.5818408263E+01	-2.8143624514E+02	8.8935432467E+02	8.3387375903E+02	0.000E+00	0.0
	14	1	6	6	0	0	5.9125853212E+01	2.4722610767E+02	-7.9946375481E+01	4.2027733437E+02	3.2500000000E+02	0.000E+00	0.0
	-14	1	6	6	0	0	6.7953203675E+01	-2.6304451594E+02	-2.0148986965E+02	4.6907699030E+02	3.2500000000E+02	0.000E+00	0.0
	25	2	5	5	0	0	-1.2707905689E+02	1.5818408263E+01	-1.7445355799E+02	2.5000024679E+02	1.2516697152E+02	0.000E+00	0.0
	-5	1	9	9	0	501	-1.2390227820E+02	4.5917427352E+01	-1.7514505846E+02	2.1943894044E+02	4.1800000000E+00	0.000E+00	0.0
	5	1	9	9	501	0	-3.1767786835E+00	-3.0099019089E+01	6.9150046657E-01	3.0561306350E+01	4.1800000000E+00	0.000E+00	0.0
</event>
<event>
    11  -1  1.0000000E+00  1.0000000E+00  -1.0000000E+00  -1.0000000E+00
	2212	-1	0	0	0	0	0.0000000000E+00	0.0000000000E+00	6.5000000000E+03	6.5000000000E+03	9.3827000000E-01	0.000E+00	0.0
	2212	-1	0	0	0	0	0.0000000000E+00	0.0000000000E+00	-6.5000000000E+03	6.5000000000E+03	9.3827000000E-01	0.000E+00	0.0
	2212	1	0	0	0	0	0.0000000000E+00	0.0000000000E+00	5.7317189154E+03	5.7317189154E+03	9.3827000000E-01	0.000E+00	0.0
	2212	1	0	0	0	0	0.0000000000E+00	0.0000000000E+00	-6.1424713304E+03	6.1424713304E+03	9.3827000000E-01	0.000E+00	0.0
	51	2	1	2	0	0	-1.0447805990E+02	-7.6335762412E+01	3.7780612513E+02	1.1216997540E+03	1.0482032514E+03	0.000E+00	0.0
	1000022	2	5	5	0	0	1.0447805990E+02	7.6335762412E+01	3.7524719522E+02	9.4230460145E+02	8.5462546813E+02	0.000E+00	0.0
	14	1	6	6	0	0	-1.3171752391E+02	1.0337569693E+01	-4.9070364153E+01	3.5424465005E+02	3.2500000000E+02	0.000E+00	0.0
	-14	1	6	6	0	0	2.3619558381E+02	6.5998192719E+01	4.2431755937E+02	5.8805995140E+02	3.2500000000E+02	0.000E+00	0.0
	25	2	5	5	0	0	-1.0447805990E+02	-7.6335762412E+01	3.5505219740E+01	1.8350515274E+02	1.2518269381E+02	0.000E+00	0.0
	-5	1	9	9	0	501	-5.0998563459E+01	1.7889241419E+01	-2.4608830302E+01	5.9531045365E+01	4.1800000000E+00	0.000E+00	0.0
	5	1	9	9	501	0	-5.3479496441E+01	-9.4225003832E+01	6.0114050042E+01	1.2397410737E+02	4.1800000000E+00	0.000E+00	0.0
</event>
<event>
    11  -1  1.0000000E+00  1.0000000E+00  -1.0000000E+00  -1.0000000E+00
	2212	-1	0	0	0	0	0.0000000000E+00	0.0000000000E+00	6.5000000000E+03	6.5000000000E+03	9.3827000000E-01	0.000E+00	0.0
	2212	-1	0	0	0	0	0.0000000000E+00	0.0000000000E+00	-6.5000000000E+03	6.5000000000E+03	9.3827000000E-01	0.000E+00	0.0
	2212	1	0	0	0	0	0.0000000000E+00	0.0000000000E+00	5.8806446991E+03	5.8806446991E+03	9.3827000000E-01	0.000E+00	0.0
	2212	1	0	0	0	0	0.0000000000E+00	0.0000000000E+00	-6.0671177050E+03	6.0671177050E+03	9.3827000000E-01	0.000E+00	0.0
	51	2	1	2	0	0	8.5679835825E+01	-8.2339961479E+01	2.0247975539E+02	1.0618619172E+03	1.0355828196E+03	0.000E+00	0.0
	1000022	2	5	5	0	0	-8.5679835825E+01	8.2339961479E+01	1.4051998313E+02	8.7363120409E+02	8.5402851918E+02	0.000E+00	0.0
	14	1	6	6	0	0	-1.6434729089E+02	-1.6426844806E+02	2.1161408251E+02	4.5210582276E+02	3.2500000000E+02	0.000E+00	0.0
	-14	1	6	6	0	0	7.8667455062E+01	2.4660840954E+02	-7.1094099385E+01	4.2152538134E+02	3.2500000000E+02	0.000E+00	0.0
	25	2	5	5	0	0	8.5679835825E+01	-8.2339961479E+01	4.5953022788E+01	1.7860639184E+02	1.2517052120E+02	0.000E+00	0.0
	-5	1	9	9	0	501	8.4209245202E+01	-1.5914049465E+01	-1.6443320650E+01	8.7363087982E+01	4.1800000000E+00	0.000E+00	0.0
	5	1	9	9	501	0	1.4705906235E+00	-6.6425912014E+01	6.2396343438E+01	9.1243303854E+01	4.1800000000E+00	0.000E+00	0.0
</event>
<event>
    11  -1  1.0000000E+00  1.0000000E+00  -1.0000000E+00  -1.0000000E+00
	2212	-1	0	0	0	0	0.0000000000E+00	0.0000000000E+00	6.5000000000E+03	6.5000000000E+03	9.3827000000E-01	0.000E+00	0.0
	2212	-1	0	0	0	0	0.0000000000E+00	0.0000000000E+00	-6.5000000000E+03	6.5000000000E+03	9.3827000000E-01	0.000E+00	0.0
	2212	1	0	0	0	0	0.0000000000E+00	0.0000000000E+00	5.4219255827E+03	5.4219255827E+03	9.3827000000E-01	0.000E+00	0.0
	2212	1	0	0	0	0	0.0000000000E+00	0.0000000000E+00	-6.2421245128E+03	6.2421245128E+03	9.3827000000E-01	0.000E+00	0.0
	51	2	1	2	0	0	-2.2860999703E+01	-1.1907572368E+02	7.4734358836E+02	1.2981756256E+03	1.0545311102E+03	0.000E+00	0.0
	1000022	2	5	5	0	0	2.2860999703E+01	1.1907572368E+02	7.5578799696E+02	1.1501432203E+03	8.5843594840E+02	0.000E+00	0.0
	14	1	6	6	0	0	1.5775876863E+02	1.2485231291E+02	8.3403464742E+01	3.9122508489E+02	3.2500000000E+02	0.000E+00	0.0
	-14	1	6	6	0	0	-1.3489776893E+02	-5.7765892273E+00	6.7238453222E+02	7.5891813538E+02	3.2500000000E+02	0.000E+00	0.0
	25	2	5	5	0	0	-2.2860999703E+01	-1.1907572368E+02	6.4410933142E+01	1.8580668426E+02	1.2519465776E+02	0.000E+00	0.0
	-5	1	9	9	0	501	-4.1984796821E+01	6.4751415262E+00	-1.3969855759E+00	4.2709186255E+01	4.1800000000E+00	0.000E+00	0.0
	5	1	9	9	501	0	1.9123797117E+01	-1.2555086521E+02	6.5807918718E+01	1.4309749801E+02	4.1800000000E+00	0.000E+00	0.0
</event>
<event>
    11  -1  1.0000000E+00  1.0000000E+00  -1.0000000E+00  -1.0000000E+00
	2212	-1	0	0	0	0	0.0000000000E+00	0.0000000000E+00	6.5000000000E+03	6.5000000000E+03	9.3827000000E-01	0.000E+00	0.0
	2212	-1	0	0	0	0	0.0000000000E+00	0.0000000000E+00	-6.5000000000E+03	6.5000000000E+03	9.3827000000E-01	0.000E+00	0.0
	2212	1	0	0	0	0	0.0000000000E+00	0.0000000000E+00	6.2202084994E+03	6.2202084994E+03	9.3827000000E-01	0.000E+00	0.0
	2212	1	0	0	0	0	0.0000000000E+00	0.0000000000E+00	-5.5208863437E+03	5.5208863437E+03	9.3827000000E-01	0.000E+00	0.0
	51	2	1	2	0	0	7.7118008661E+01	-4.7311656295E+01	-5.6806991612E+02	1.1944369913E+03	1.0468002276E+03	0.000E+00	0.0
	1000022	2	5	5	0	0	-7.7118008661E+01	4.7311656295E+01	-7.0880000561E+02	1.1041576064E+03	8.4177252968E+02	0.000E+00	0.0
	14	1	6	6	0	0	-2.6363975529E+02	4.0265360955E+01	-1.8315604010E+02	4.5858298583E+02	3.2500000000E+02	0.000E+00	0.0
	-14	1	6	6	0	0	1.8652174663E+02	7.0462953403E+00	-5.2564396551E+02	6.4557462056E+02	3.2500000000E+02	0.000E+00	0.0
	25	2	5	5	0	0	7.7118008661E+01	-4.7311656295E+01	9.4778499315E+00	1.5474755046E+02	1.2518544106E+02	0.000E+00	0.0
	-5	1	9	9	0	501	3.6753794474E+01	4.1153051804E+01	-7.8521826726E+00	5.5888677331E+01	4.1800000000E+00	0.000E+00	0.0
	5	1	9	9	501	0	4.0364214187E+01	-8.8464708100E+01	1.7330032604E+01	9.8858873128E+01	4.1800000000E+00	0.000E+00	0.0
</event>
<event>
    11  -1  1.0000000E+00  1.0000000E+00  -1.0000000E+00  -1.0000000E+00
	2212	-1	0	0	0	0	0.0000000000E+00	0.0000000000E+00	6.5000000000E+03	6.5000000000E+03	9.3827000000E-01	0.000E+00	0.0
	2212	-1	0	0	0	0	0.0000000000E+00	0.0000000000E+00	-6.5000000000E+03	6.5000000000E+03	9.3827000000E-01	0.000E+00	0.0
	2212	1	0	0	0	0	0.0000000000E+00	0.0000000000E+00	5.9423048558E+03	5.9423048558E+03	9.3827000000E-01	0.000E+00	0.0
	2212	1	0	0	0	0	0.0000000000E+00	0.0000000000E+00	-6.0178234732E+03	6.0178234732E+03	9.3827000000E-01	0.000E+00	0.0
	51	2	1	2	0	0	9.3197172988E+01	-8.4352907396E+01	7.4449755307E+01	1.0473652289E+03	1.0371258509E+03	0.000E+00	0.0
	1000022	2	5	5	0	0	-9.3197172988E+01	8.4352907396E+01	6.4222193169E+01	8.6211134437E+02	8.5047654521E+02	0.000E+00	0.0
	14	1	6	6	0	0	-1.4349142093E+02	-5.6261476632E+01	2.6974159574E+02	4.4960056729E+02	3.2500000000E+02	0.000E+00	0.0
	-14	1	6	6	0	0	5.0294247944E+01	1.4061438403E+02	-2.0551940257E+02	4.1251077708E+02	3.2500000000E+02	0.000E+00	0.0
	25	2	5	5	0	0	9.3197172988E+01	-8.4352907396E+01	1.1296424237E+01	1.7776032663E+02	1.2517986453E+02	0.000E+00	0.0
	-5	1	9	9	0	501	5.0812508226E+01	7.3037790501E+00	4.7833034815E+01	7.0290310856E+01	4.1800000000E+00	0.000E+00	0.0
	5	1	9	9	501	0	4.2384664763E+01	-9.1656686446E+01	-3.6536610577E+01	1.0747001577E+02	4.1800000000E+00	0.000E+00	0.0
</event>
<event>
    11  -1  1.0000000E+00  1.0000000E+00  -1.0000000E+00  -1.0000000E+00
	2212	-1	0	0	0	0	0.0000000000E+00	0.0000000000E+00	6.5000000000E+03	6.5000000000E+03	9.3827000000E-01	0.000E+00	0.0
	2212	-1	0	0	0	0	0.0000000000E+00	0.0000000000E+00	-6.5000000000E+03	6.5000000000E+03	9.3827000000E-01	0.000E+00	0.0
	2212	1	0	0	0	0	0.0000000000E+00	0.0000000000E+00	6.3278997337E+03	6.3278997337E+03	9.3827000000E-01	0.000E+00	0.0
	2212	1	0	0	0	0	0.0000000000E+00	0.0000000000E+00	-4.8953472510E+03	4.8953472510E+03	9.3827000000E-01	0.000E+00	0.0
	51	2	1	2	0	0	-2.1404538404E+01	-1.3404464505E+02	-1.3527865073E+03	1.7184592276E+03	1.0510207712E+03	0.000E+00	0.0
	1000022	2	5	5	0	0	2.1404538404E+01	1.3404464505E+02	-1.2633893640E+03	1.5263073159E+03	8.4559754992E+02	0.000E+00	0.0
	14	1	6	6	0	0	1.8104898993E+02	2.6760303499E+02	-5.5633939492E+02	7.2078335402E+02	3.2500000000E+02	0.000E+00	0.0
	-14	1	6	6	0	0	-1.5964445153E+02	-1.3355838994E+02	-7.0704996904E+02	8.0552396187E+02	3.2500000000E+02	0.000E+00	0.0
	25	2	5	5	0	0	-2.1404538404E+01	-1.3404464505E+02	-1.6916311873E+02	2.5044569936E+02	1.2522286714E+02	0.000E+00	0.0
	-5	1	9	9	0	501	-5.5128744049E+01	-6.5152600020E+01	-2.8326473568E+01	9.0021670806E+01	4.1800000000E+00	0.000E+00	0.0
	5	1	9	9	501	0	3.3724205645E+01	-6.8892045030E+01	-1.4083664517E+02	1.6042402855E+02	4.1800000000E+00	0.000E+00	0.0
</event>
<event>
    11  -1  1.0000000E+00  1.0000000E+00  -1.0000000E+00  -1.0000000E+00
	2212	-1	0	0	0	0	0.0000000000E+00	0.0000000000E+00	6.5000000000E+03	6.5000000000E+03	9.3827000000E-01	0.000E+00	0.0
	2212	-1	0	0	0	0	0.0000000000E+00	0.0000000000E+00	-6.5000000000E+03	6.5000000000E+03	9.3827000000E-01	0.000E+00	0.0
	2212	1	0	0	0	0	0.0000000000E+00	0.0000000000E+00	5.9036747198E+03	5.9036747198E+03	9.3827000000E-01	0.000E+00	0.0
	2212	1	0	0	0	0	0.0000000000E+00	0.0000000000E+00	-6.0393779214E+03	6.0393779214E+03	9.3827000000E-01	0.000E+00	0.0
	51	2	1	2	0	0	3.2185169843E+01	-8.3084354098E+01	2.0230708033E+01	1.0521741952E+03	1.0481995804E+03	0.000E+00	0.0
	1000022	2	5	5	0	0	-3.2185169843E+01	8.3084354098E+01	2.2757992194E+02	8.7794084763E+02	8.4323698686E+02	0.000E+00	0.0
	14	1	6	6	0	0	2.1097013453E+02	-3.1958688451E+01	-1.9059964148E+01	3.8925317939E+02	3.2500000000E+02	0.000E+00	0.0
	-14	1	6	6	0	0	-2.4315530437E+02	1.1504304255E+02	2.4663988609E+02	4.8868766824E+02	3.2500000000E+02	0.000E+00	0.0
	25	2	5	5	0	0	3.2185169843E+01	-8.3084354098E+01	-9.1876720299E+01	1.7900651122E+02	1.2515232429E+02	0.000E+00	0.0
	-5	1	9	9	0	501	4.0116185294E+01	-9.2324823542E+01	-1.1478430834E+02	1.5272881590E+02	4.1800000000E+00	0.000E+00	0.0
	5	1	9	9	501	0	-7.9310154510E+00	9.2404694440E+00	2.2907588043E+01	2.6277695325E+01	4.1800000000E+00	0.000E+00	0.0
</event>
<event>
    11  -1  1.0000000E+00  1.0000000E+00  -1.0000000E+00  -1.0000000E+00
	2212	-1	0	0	0	0	0.0000000000E+00	0.0000000000E+00	6.5000000000E+03	6.5000000000E+03	9.3827000000E-01	0.000E+00	0.0
	2212	-1	0	0	0	0	0.0000000000E+00	0.0000000000E+00	-6.5000000000E+03	6.5000000000E+03	9.3827000000E-01	0.000E+00	0.0
	2212	1	0	0	0	0	0.0000000000E+00	0.0000000000E+00	6.3099646428E+03	6.3099646428E+03	9.3827000000E-01	0.000E+00	0.0
	2212	1	0	0	0	0	0.0000000000E+00	0.0000000000E+00	-5.0293404401E+03	5.0293404401E+03	9.3827000000E-01	0.000E+00	0.0
	51	2	1	2	0	0	-8.4158674695E+01	-7.6910052906E+01	-1.1560452664E+03	1.5707793467E+03	1.0573122809E+03	0.000E+00	0.0
	1000022	2	5	5	0	0	8.4158674695E+01	7.6910052906E+01	-1.1864710652E+03	1.4669619025E+03	8.5514080474E+02	0.000E+00	0.0
	14	1	6	6	0	0	-3.9677380458E+01	-1.2169039449E+02	-9.2476856336E+02	9.8853666721E+02	3.2500000000E+02	0.000E+00	0.0
	-14	1	6	6	0	0	1.2383605515E+02	1.9860044739E+02	-2.6170250186E+02	4.7842523527E+02	3.2500000000E+02	0.000E+00	0.0
	25	2	5	5	0	0	-8.4158674695E+01	-7.6910052906E+01	-9.4153137459E+01	1.9373301465E+02	1.2517918719E+02	0.000E+00	0.0
	-5	1	9	9	0	501	-9.4127576274E+01	-9.8017289504E+01	-5.2384149991E+01	1.4570161711E+02	4.1800000000E+00	0.000E+00	0.0
	5	1	9	9	501	0	9.9689015796E+00	2.1107236599E+01	-4.1768987469E+01	4.8031397540E+01	4.1800000000E+00	0.000E+00	0.0
</event>
<event>
    11  -1  1.0000000E+00  1.0000000E+00  -1.0000000E+00  -1.0000000E+00
	2212	-1	0	0	0	0	0.0000000000E+00	0.0000000000E+00	6.5000000000E+03	6.5000000000E+03	9.3827000000E-01	0.000E+00	0.0
	2212	-1	0	0	0	0	0.0000000000E+00	0.0000000000E+00	-6.5000000000E+03	6.5000000000E+03	9.3827000000E-01	0.000E+00	0.0
	2212	1	0	0	0	0	0.0000000000E+00	0.0000000000E+00	6.1649755898E+03	6.1649755898E+03	9.3827000000E-01	0.000E+00	0.0
	2212	1	0	0	0	0	0.0000000000E+00	0.0000000000E+00	-5.6633297785E+03	5.6633297785E+03	9.3827000000E-01	0.000E+00	0.0
	51	2	1	2	0	0	-6.8970051253E+01	1.2041192647E+02	-4.5914804091E+02	1.1624511230E+03	1.0588766641E+03	0.000E+00	0.0
	1000022	2	5	5	0	0	6.8970051253E+01	-1.2041192647E+02	-4.5802276036E+02	9.7978565011E+02	8.5494980622E+02	0.000E+00	0.0
	14	1	6	6	0	0	-1.2733254446E+02	1.4019808353E+02	-3.3354930885E+02	5.0274170400E+02	3.2500000000E+02	0.000E+00	0.0
	-14	1	6	6	0	0	1.9630259571E+02	-2.6061001000E+02	-1.2447345151E+02	4.7704394612E+02	3.2500000000E+02	0.000E+00	0.0
	25	2	5	5	0	0	-6.8970051253E+01	1.2041192647E+02	-4.3623051011E+01	1.9190898158E+02	1.2518061601E+02	0.000E+00	0.0
	-5	1	9	9	0	501	-5.0766567222E+01	9.7186390366E+01	2.8927220981E+01	1.1347552747E+02	4.1800000000E+00	0.000E+00	0.0
	5	1	9	9	501	0	-1.8203484031E+01	2.3225536102E+01	-7.2550271992E+01	7.8433454114E+01	4.1800000000E+00	0.000E+00	0.0
</event>
<event>
    11  -1  1.0000000E+00  1.0000000E+00  -1.0000000E+00  -1.0000000E+00
	2212	-1	0	0	0	0	0.0000000000E+00	0.0000000000E+00	6.5000000000E+03	6.5000000000E+03	9.3827000000E-01	0.000E+00	0.0
	2212	-1	0	0	0	0	0.0000000000E+00	0.0000000000E+00	-6.5000000000E+03	6.5000000000E+03	9.3827000000E-01	0.000E+00	0.0
	2212	1	0	0	0	0	0.0000000000E+00	0.0000000000E+00	6.1663034614E+03	6.1663034614E+03	9.3827000000E-01	0.000E+00	0.0
	2212	1	0	0	0	0	0.0000000000E+00	0.0000000000E+00	-5.6933402922E+03	5.6933402922E+03	9.3827000000E-01	0.000E+00	0.0
	51	2	1	2	0	0	7.1856653004E+01	8.3383390240E+01	-5.0740593043E+02	1.1602995974E+03	1.0376503309E+03	0.000E+00	0.0
	1000022	2	5	5	0	0	-7.1856653004E+01	-8.3383390240E+01	-3.6425258001E+02	9.4134655975E+02	8.6100942803E+02	0.000E+00	0.0
	14	1	6	6	0	0	1.5624657155E+02	1.6662110671E+02	-1.9521019375E+02	4.4261450955E+02	3.2500000000E+02	0.000E+00	0.0
	-14	1	6	6	0	0	-2.2810322455E+02	-2.5000449694E+02	-1.6904238627E+02	4.9873205020E+02	3.2500000000E+02	0.000E+00	0.0
	25	2	5	5	0	0	7.1856653004E+01	8.3383390240E+01	-1.0871058920E+02	1.9900968658E+02	1.2518264576E+02	0.000E+00	0.0
	-5	1	9	9	0	501	-7.7616113167E+00	-2.5810564450E+01	-3.7000107260E+01	4.5966381027E+01	4.1800000000E+00	0.000E+00	0.0
	5	1	9	9	501	0	7.9618264320E+01	1.0919395469E+02	-7.1710481943E+01	1.5304330555E+02	4.1800000000E+00	0.000E+00	0.0
</event>
<event>
    11  -1  1.0000000E+00  1.0000000E+00  -1.0000000E+00  -1.0000000E+00
	2212	-1	0	0	0	0	0.0000000000E+00	0.0000000000E+00	6.5000000000E+03	6.5000000000E+03	9.3827000000E-01	0.000E+00	0.0
	2212	-1	0	0	0	0	0.0000000000E+00	0.0000000000E+00	-6.5000000000E+03	6.5000000000E+03	9.3827000000E-01	0.000E+00	0.0
	2212	1	0	0	0	0	0.0000000000E+00	0.0000000000E+00	4.9761211289E+03	4.9761211289E+03	9.3827000000E-01	0.000E+00	0.0
	2212	1	0	0	0	0	0.0000000000E+00	0.0000000000E+00	-6.3194290466E+03	6.3194290466E+03	9.3827000000E-01	0.000E+00	0.0
	51	2	1	2	0	0	2.2341390909E+01	-1.4093098372E+02	1.3647532380E+03	1.7273057410E+03	1.0491296596E+03	0.000E+00	0.0
	1000022	2	5	5	0	0	-2.2341390909E+01	1.4093098372E+02	1.0911009888E+03	1.3887931450E+03	8.4728056262E+02	0.000E+00	0.0
	14	1	6	6	0	0	1.3550116047E+02	-8.1979970790E+01	2.2934638378E+02	4.2814255086E+02	3.2500000000E+02	0.000E+00	0.0
	-14	1	6	6	0	0	-1.5784255138E+02	2.2291095451E+02	8.6175460505E+02	9.6065059412E+02	3.2500000000E+02	0.000E+00	0.0
	25	2	5	5	0	0	2.2341390909E+01	-1.4093098372E+02	2.5220692887E+02	3.1565667955E+02	1.2518036768E+02	0.000E+00	0.0
	-5	1	9	9	0	501	-3.7749873459E+01	-9.5650744726E+01	1.9692647727E+02	2.2219727218E+02	4.1800000000E+00	0.000E+00	0.0
	5	1	9	9	501	0	6.0091264368E+01	-4.5280238990E+01	5.5280451597E+01	9.3459407365E+01	4.1800000000E+00	0.000E+00	0.0
</event>
<event>
    11  -1  1.0000000E+00  1.0000000E+00  -1.0000000E+00  -1.0000000E+00
	2212	-1	0	0	0	0	0.0000000000E+00	0.0000000000E+00	6.5000000000E+03	6.5000000000E+03	9.3827000000E-01	0.000E+00	0.0
	2212	-1	0	0	0	0	0.0000000000E+00	0.0000000000E+00	-6.5000000000E+03	6.5000000000E+03	9.3827000000E-01	0.000E+00	0.0
	2212	1	0	0	0	0	0.0000000000E+00	0.0000000000E+00	6.3001190408E+03	6.3001190408E+03	9.3827000000E-01	0.000E+00	0.0
	2212	1	0	0	0	0	0.0000000000E+00	0.0000000000E+00	-5.1232102407E+03	5.1232102407E+03	9.3827000000E-01	0.000E+00	0.0
	51	2	1	2	0	0	3.8976107312E+01	1.9182351744E+02	-1.1151450983E+03	1.5435803250E+03	1.0491788363E+03	0.000E+00	0.0
	1000022	2	5	5	0	0	-3.8976107312E+01	-1.9182351744E+02	-9.9259337806E+02	1.2800960189E+03	7.8427597478E+02	0.000E+00	0.0
	14	1	6	6	0	0	-2.1375313726E+02	-1.8244219822E+02	-6.3082561185E+02	7.6324407102E+02	3.2500000000E+02	0.000E+00	0.0
	-14	1	6	6	0	0	1.7477702994E+02	-9.3813192144E+00	-3.6176776621E+02	5.1685194787E+02	3.2500000000E+02	0.000E+00	0.0
	25	2	5	5	0	0	3.8976107312E+01	1.9182351744E+02	-1.8431542209E+02	2.9657469958E+02	1.2517579170E+02	0.000E+00	0.0
	-5	1	9	9	0	501	-4.2003598451E+01	7.1212556563E+01	-9.4918229634E+01	1.2594631083E+02	4.1800000000E+00	0.000E+00	0.0
	5	1	9	9	501	0	8.0979705763E+01	1.2061096087E+02	-8.9397192453E+01	1.7062838875E+02	4.1800000000E+00	0.000E+00	0.0
</event>
<event>
    11  -1  1.0000000E+00  1.0000000E+00  -1.0000000E+00  -1.0000000E+00
	2212	-1	0	0	0	0	0.0000000000E+00	0.0000000000E+00	6.5000000000E+03	6.5000000000E+03	9.3827000000E-01	0.000E+00	0.0
	2212	-1	0	0	0	0	0.0000000000E+00	0.0000000000E+00	-6.5000000000E+03	6.5000000000E+03	9.3827000000E-01	0.000E+00	0.0
	2212	1	0	0	0	0	0.0000000000E+00	0.0000000000E+00	6.3077102320E+03	6.3077102320E+03	9.3827000000E-01	0.000E+00	0.0
	2212	1	0	0	0	0	0.0000000000E+00	0.0000000000E+00	-5.0684005488E+03	5.0684005488E+03	9.3827000000E-01	0.000E+00	0.0
	51	2	1	2	0	0	-5.5742296135E+01	1.1696158095E+02	-1.2886955978E+03	1.6669286921E+03	1.0493463230E+03	0.000E+00	0.0
	1000022	2	5	5	0	0	5.5742296135E+01	-1.1696158095E+02	-9.8477614810E+02	1.3120412204E+03	8.5725193916E+02	0.000E+00	0.0
	14	1	6	6	0	0	9.9590840212E+01	1.4245001690E+02	-7.4209803900E+02	8.2858001560E+02	3.2500000000E+02	0.000E+00	0.0
	-14	1	6	6	0	0	-4.3848544077E+01	-2.5941159785E+02	-2.4267810910E+02	4.8346120481E+02	3.2500000000E+02	0.000E+00	0.0
	25	2	5	5	0	0	-5.5742296135E+01	1.1696158095E+02	-2.5453353511E+02	3.1184799884E+02	1.2519839811E+02	0.000E+00	0.0
	-5	1	9	9	0	501	2.9762339656E+01	8.1979043111E+01	-1.1352846111E+02	1.4322201037E+02	4.1800000000E+00	0.000E+00	0.0
	5	1	9	9	501	0	-8.5504635790E+01	3.4982537840E+01	-1.4100507400E+02	1.6862598848E+02	4.1800000000E+00	0.000E+00	0.0
</event>
<event>
    11  -1  1.0000000E+00  1.0000000E+00  -1.0000000E+00  -1.0000000E+00
	2212	-1	0	0	0	0	0.0000000000E+00	0.0000000000E+00	6.5000000000E+03	6.5000000000E+03	9.3827000000E-01	0.000E+00	0.0
	2212	-1	0	0	0	0	0.0000000000E+00	0.0000000000E+00	-6.5000000000E+03	6.5000000000E+03	9.3827000000E-01	0.000E+00	0.0
	2212	1	0	0	0	0	0.0000000000E+00	0.0000000000E+00	5.9223225406E+03	5.9223225406E+03	9.3827000000E-01	0.000E+00	0.0
	2212	1	0	0	0	0	0.0000000000E+00	0.0000000000E+00	-6.0169055103E+03	6.0169055103E+03	9.3827000000E-01	0.000E+00	0.0
	51	2	1	2	0	0	9.0109952224E+01	-1.1984658732E+02	9.4691915332E+01	1.0713266340E+03	1.0565468233E+03	0.000E+00	0.0
	1000022	2	5	5	0	0	-9.0109952224E+01	1.1984658732E+02	7.7935534315E+01	8.6473391308E+02	8.4806119174E+02	0.000E+00	0.0
	14	1	6	6	0	0	-3.1505402358E+02	1.7980057570E+01	4.5552362867E+01	4.5528270119E+02	3.2500000000E+02	0.000E+00	0.0
	-14	1	6	6	0	0	2.2494407135E+02	1.0186652975E+02	3.2383171447E+01	4.0945121188E+02	3.2500000000E+02	0.000E+00	0.0
	25	2	5	5	0	0	9.0109952224E+01	-1.1984658732E+02	1.6647435474E+01	1.9603803602E+02	1.2518293204E+02	0.000E+00	0.0
	-5	1	9	9	0	501	2.7142603994E+01	-9.6007500141E+01	5.9384143644E+01	1.1618136663E+02	4.1800000000E+00	0.000E+00	0.0
	5	1	9	9	501	0	6.2967348231E+01	-2.3839087180E+01	-4.2736708170E+01	7.9856669390E+01	4.1800000000E+00	0.000E+00	0.0
</event>
<event>
    11  -1  1.0000000E+00  1.0000000E+00  -1.0000000E+00  -1.0000000E+00
	2212	-1	0	0	0	0	0.0000000000E+00	0.0000000000E+00	6.5000000000E+03	6.5000000000E+03	9.3827000000E-01	0.000E+00	0.0
	2212	-1	0	0	0	0	0.0000000000E+00	0.0000000000E+00	-6.5000000000E+03	6.5000000000E+03	9.3827000000E-01	0.000E+00	0.0
	2212	1	0	0	0	0	0.0000000000E+00	0.0000000000E+00	6.1469236557E+03	6.1469236557E+03	9.3827000000E-01	0.000E+00	0.0
	2212	1	0	0	0	0	0.0000000000E+00	0.0000000000E+00	-5.7159224164E+03	5.7159224164E+03	9.3827000000E-01	0.000E+00	0.0
	51	2	1	2	0	0	6.5133428361E+01	1.2997209557E+02	-4.1203812085E+02	1.1394154246E+03	1.0523103095E+03	0.000E+00	0.0
	1000022	2	5	5	0	0	-6.5133428361E+01	-1.2997209557E+02	-3.7508484956E+02	9.3733029238E+02	8.4661934984E+02	0.000E+00	0.0
	14	1	6	6	0	0	-1.5043176715E-01	9.6481080914E+00	1.0118754980E+02	3.4052463766E+02	3.2500000000E+02	0.000E+00	0.0
	-14	1	6	6	0	0	-6.4982996594E+01	-1.3962020366E+02	-4.7627239935E+02	5.9680565472E+02	3.2500000000E+02	0.000E+00	0.0
	25	2	5	5	0	0	6.5133428361E+01	1.2997209557E+02	-5.5916389664E+01	1.9982363554E+02	1.2517081757E+02	0.000E+00	0.0
	-5	1	9	9	0	501	7.8892856204E+01	1.4334551317E+02	-2.8559248857E+01	1.6614789195E+02	4.1800000000E+00	0.000E+00	0.0
	5	1	9	9	501	0	-1.3759427843E+01	-1.3373417601E+01	-2.7357140807E+01	3.3675743585E+01	4.1800000000E+00	0.000E+00	0.0
</event>
<event>
    11  -1  1.0000000E+00  1.0000000E+00  -1.0000000E+00  -1.0000000E+00
	2212	-1	0	0	0	0	0.0000000000E+00	0.0000000000E+00	6.5000000000E+03	6.5000000000E+03	9.3827000000E-01	0.000E+00	0.0
	2212	-1	0	0	0	0	0.0000000000E+00	0.0000000000E+00	-6.5000000000E+03	6.5000000000E+03	9.3827000000E-01	0.000E+00	0.0
	2212	1	0	0	0	0	0.0000000000E+00	0.0000000000E+00	5.5261882108E+03	5.5261882108E+03	9.3827000000E-01	0.000E+00	0.0
	2212	1	0	0	0	0	0.0000000000E+00	0.0000000000E+00	-6.2157223627E+03	6.2157223627E+03	9.3827000000E-01	0.000E+00	0.0
	51	2	1	2	0	0	1.7360401327E+01	-3.9439655436E+01	5.3954613803E+02	1.1833421160E+03	1.0522982744E+03	0.000E+00	0.0
	1000022	2	5	5	0	0	-1.7360401327E+01	3.9439655436E+01	7.2362327118E+02	1.1213734274E+03	8.5556464108E+02	0.000E+00	0.0
	14	1	6	6	0	0	-2.4652229679E+02	5.3821315348E+00	1.7737433508E+02	4.4484701292E+02	3.2500000000E+02	0.000E+00	0.0
	-14	1	6	6	0	0	2.2916189547E+02	3.4057523901E+01	5.4624893610E+02	6.7652641446E+02	3.2500000000E+02	0.000E+00	0.0
	25	2	5	5	0	0	1.7360401327E+01	-3.9439655436E+01	-3.4089119258E+01	1.3671599912E+02	1.2518916251E+02	0.000E+00	0.0
	-5	1	9	9	0	501	5.0107990799E+01	-2.6880695929E+01	2.9334637367E+01	6.4120011735E+01	4.1800000000E+00	0.000E+00	0.0
	5	1	9	9	501	0	-3.2747589471E+01	-1.2558959507E+01	-6.3423756625E+01	7.2595987386E+01	4.1800000000E+00	0.000E+00	0.0
</event>
<event>
    11  -1  1.0000000E+00  1.0000000E+00  -1.0000000E+00  -1.0000000E+00
	2212	-1	0	0	0	0	0.0000000000E+00	0.0000000000E+00	6.5000000000E+03	6.5000000000E+03	9.3827000000E-01	0.000E+00	0.0
	2212	-1	0	0	0	0	0.0000000000E+00	0.0000000000E+00	-6.5000000000E+03	6.5000000000E+03	9.3827000000E-01	0.000E+00	0.0
	2212	1	0	0	0	0	0.0000000000E+00	0.0000000000E+00	6.1953857053E+03	6.1953857053E+03	9.3827000000E-01	0.000E+00	0.0
	2212	1	0	0	0	0	0.0000000000E+00	0.0000000000E+00	-5.4645699783E+03	5.4645699783E+03	9.3827000000E-01	0.000E+00	0.0
	51	2	1	2	0	0	-3.5662277979E+01	6.1046658722E+01	-9.8623300949E+02	1.4964227961E+03	1.1232217693E+03	0.000E+00	0.0
	1000022	2	5	5	0	0	3.5662277979E+01	-6.1046658722E+01	-3.2683555976E+02	9.1125674360E+02	8.4768442065E+02	0.000E+00	0.0
	14	1	6	6	0	0	-2.3791603305E+02	4.9491390689E-01	-6.3732442135E+01	4.0778806738E+02	3.2500000000E+02	0.000E+00	0.0
	-14	1	6	6	0	0	2.7357831103E+02	-6.1541572629E+01	-2.6310311762E+02	5.0346867621E+02	3.2500000000E+02	0.000E+00	0.0
	25	2	5	5	0	0	-3.5662277979E+01	6.1046658722E+01	-4.0398016727E+02	4.2878757279E+02	1.2514117794E+02	0.000E+00	0.0
	-5	1	9	9	0	501	-2.5871916609E+01	4.7463716492E+01	-4.0757018316E+02	4.1116065844E+02	4.1800000000E+00	0.000E+00	0.0
	5	1	9	9	501	0	-9.7903613707E+00	1.3582942230E+01	3.5900158818E+00	1.7626914348E+01	4.1800000000E+00	0.000E+00	0.0
</event>
<event>
    11  -1  1.0000000E+00  1.0000000E+00  -1.0000000E+00  -1.0000000E+00
	2212	-1	0	0	0	0	0.0000000000E+00	0.0000000000E+00	6.5000000000E+03	6.5000000000E+03	9.3827000000E-01	0.000E+00	0.0
	2212	-1	0	0	0	0	0.0000000000E+00	0.0000000000E+00	-6.5000000000E+03	6.5000000000E+03	9.3827000000E-01	0.000E+00	0.0
	2212	1	0	0	0	0	0.0000000000E+00	0.0000000000E+00	5.3047351597E+03	5.3047351597E+03	9.3827000000E-01	0.000E+00	0.0
	2212	1	0	0	0	0	0.0000000000E+00	0.0000000000E+00	-6.2695314574E+03	6.2695314574E+03	9.3827000000E-01	0.000E+00	0.0
	51	2	1	2	0	0	1.3282525133E+02	3.1764594566E+01	1.0572585951E+03	1.4961052960E+03	1.0497065223E+03	0.000E+00	0.0
	1000022	2	5	5	0	0	-1.3282525133E+02	-3.1764594566E+01	7.0283422291E+02	1.1048821803E+03	8.4150885356E+02	0.000E+00	0.0
	14	1	6	6	0	0	-1.8171858475E+02	-9.4953780578E+01	6.6504280958E+02	7.6807864380E+02	3.2500000000E+02	0.000E+00	0.0
	-14	1	6	6	0	0	4.8893333421E+01	6.3189186012E+01	3.7791413327E+01	3.3680353651E+02	3.2500000000E+02	0.000E+00	0.0
	25	2	5	5	0	0	1.3282525133E+02	3.1764594566E+01	2.6196207481E+02	3.2085120254E+02	1.2517918629E+02	0.000E+00	0.0
	-5	1	9	9	0	501	1.0114776515E+02	-3.1985367741E+01	1.9978301298E+02	2.2624026790E+02	4.1800000000E+00	0.000E+00	0.0
	5	1	9	9	501	0	3.1677486172E+01	6.3749962307E+01	6.2179061826E+01	9.4610934642E+01	4.1800000000E+00	0.000E+00	0.0
</event>
<event>
    11  -1  1.0000000E+00  1.0000000E+00  -1.0000000E+00  -1.0000000E+00
	2212	-1	0	0	0	0	0.0000000000E+00	0.0000000000E+00	6.5000000000E+03	6.5000000000E+03	9.3827000000E-01	0.000E+00	0.0
	2212	-1	0	0	0	0	0.0000000000E+00	0.0000000000E+00	-6.5000000000E+03	6.5000000000E+03	9.3827000000E-01	0.000E+00	0.0
	2212	1	0	0	0	0	0.0000000000E+00	0.0000000000E+00	6.1908607243E+03	6.1908607243E+03	9.3827000000E-01	0.000E+00	0.0
	2212	1	0	0	0	0	0.0000000000E+00	0.0000000000E+00	-5.5625018718E+03	5.5625018718E+03	9.3827000000E-01	0.000E+00	0.0
	51	2	1	2	0	0	1.0014268455E+02	3.1573665867E+01	-4.8006724756E+02	1.1835370653E+03	1.0766939998E+03	0.000E+00	0.0
	1000022	2	5	5	0	0	-1.0014268455E+02	-3.1573665867E+01	-6.6087476881E+02	1.0800436695E+03	8.4776967062E+02	0.000E+00	0.0
	14	1	6	6	0	0	8.6621449778E+01	-2.1531761089E+02	-1.6567667239E+02	4.3236409298E+02	3.2500000000E+02	0.000E+00	0.0
	-14	1	6	6	0	0	-1.8676413433E+02	1.8374394502E+02	-4.9519809641E+02	6.4767957656E+02	3.2500000000E+02	0.000E+00	0.0
	25	2	5	5	0	0	1.0014268455E+02	3.1573665867E+01	3.2515916225E+01	1.6659373437E+02	1.2518280184E+02	0.000E+00	0.0
	-5	1	9	9	0	501	6.3230881651E+01	-2.4907654713E+01	-3.0102966574E+01	7.4445931079E+01	4.1800000000E+00	0.000E+00	0.0
	5	1	9	9	501	0	3.6911802903E+01	5.6481320580E+01	6.2618882799E+01	9.2147803289E+01	4.1800000000E+00	0.000E+00	0.0
</event>
<event>
    11  -1  1.0000000E+00  1.0000000E+00  -1.0000000E+00  -1.0000000E+00
	2212	-1	0	0	0	0	0.0000000000E+00	0.0000000000E+00	6.5000000000E+03	6.5000000000E+03	9.3827000000E-01	0.000E+00	0.0
	2212	-1	0	0	0	0	0.0000000000E+00	0.0000000000E+00	-6.5000000000E+03	6.5000000000E+03	9.3827000000E-01	0.000E+00	0.0
	2212	1	0	0	0	0	0.0000000000E+00	0.0000000000E+00	6.1052898896E+03	6.1052898896E+03	9.3827000000E-01	0.000E+00	0.0
	2212	1	0	0	0	0	0.0000000000E+00	0.0000000000E+00	-5.8024497352E+03	5.8024497352E+03	9.3827000000E-01	0.000E+00	0.0
	51	2	1	2	0	0	-9.3027713016E+01	1.0925358019E+02	-2.8446685792E+02	1.0967371889E+03	1.0494382155E+03	0.000E+00	0.0
	1000022	2	5	5	0	0	9.3027713016E+01	-1.0925358019E+02	-2.6882232047E+02	8.9882329679E+02	8.4559291547E+02	0.000E+00	0.0
	14	1	6	6	0	0	2.8495557776E+02	-3.3715048332E+01	-7.5658011366E+00	4.3361114738E+02	3.2500000000E+02	0.000E+00	0.0
	-14	1	6	6	0	0	-1.9192786475E+02	-7.5538531860E+01	-2.6125651934E+02	4.6521214941E+02	3.2500000000E+02	0.000E+00	0.0
	25	2	5	5	0	0	-9.3027713016E+01	1.0925358019E+02	-3.4017833911E+01	1.9343707838E+02	1.2518062987E+02	0.000E+00	0.0
	-5	1	9	9	0	501	-2.3662821958E+01	2.0088408281E+01	4.5491242356E+01	5.5230415727E+01	4.1800000000E+00	0.000E+00	0.0
	5	1	9	9	501	0	-6.9364891058E+01	8.9165171911E+01	-7.9509076267E+01	1.3820666266E+02	4.1800000000E+00	0.000E+00	0.0
</event>
<event>
    11  -1  1.0000000E+00  1.0000000E+00  -1.0000000E+00  -1.0000000E+00
	2212	-1	0	0	0	0	0.0000000000E+00	0.0000000000E+00	6.5000000000E+03	6.5000000000E+03	9.3827000000E-01	0.000E+00	0.0
	2212	-1	0	0	0	0	0.0000000000E+00	0.0000000000E+00	-6.5000000000E+03	6.5000000000E+03	9.3827000000E-01	0.000E+00	0.0
	2212	1	0	0	0	0	0.0000000000E+00	0.0000000000E+00	4.9998823687E+03	4.9998823687E+03	9.3827000000E-01	0.000E+00	0.0
	2212	1	0	0	0	0	0.0000000000E+00	0.0000000000E+00	-6.2990987286E+03	6.2990987286E+03	9.3827000000E-01	0.000E+00	0.0
	51	2	1	2	0	0	-6.0351568600E+01	-1.7534622520E+02	1.3351018927E+03	1.7385016054E+03	1.0979536227E+03	0.000E+00	0.0
	1000022	2	5	5	0	0	6.0351568600E+01	1.7534622520E+02	1.0167168144E+03	1.3406530297E+03	8.5396068699E+02	0.000E+00	0.0
	14	1	6	6	0	0	-1.8810097195E+02	-4.1402452587E+01	6.4260497842E+02	7.4542759341E+02	3.2500000000E+02	0.000E+00	0.0
	-14	1	6	6	0	0	2.4845254055E+02	2.1674867779E+02	3.7411183600E+02	5.9522543634E+02	3.2500000000E+02	0.000E+00	0.0
	25	2	5	5	0	0	-6.0351568600E+01	-1.7534622520E+02	2.8249954543E+02	3.6036587294E+02	1.2517571123E+02	0.000E+00	0.0
	-5	1	9	9	0	501	3.0939477845E+01	-7.0606639021E+00	4.6370025488E+01	5.6344972516E+01	4.1800000000E+00	0.000E+00	0.0
	5	1	9	9	501	0	-9.1291046445E+01	-1.6828556130E+02	2.3612951995E+02	3.0402090042E+02	4.1800000000E+00	0.000E+00	0.0
</event>
<event>
    11  -1  1.0000000E+00  1.0000000E+00  -1.0000000E+00  -1.0000000E+00
	2212	-1	0	0	0	0	0.0000000000E+00	0.0000000000E+00	6.5000000000E+03	6.5000000000E+03	9.3827000000E-01	0.000E+00	0.0
	2212	-1	0	0	0	0	0.0000000000E+00	0.0000000000E+00	-6.5000000000E+03	6.5000000000E+03	9.3827000000E-01	0.000E+00	0.0
	2212	1	0	0	0	0	0.0000000000E+00	0.0000000000E+00	6.0028631166E+03	6.0028631166E+03	9.3827000000E-01	0.000E+00	0.0
	2212	1	0	0	0	0	0.0000000000E+00	0.0000000000E+00	-5.9481029034E+03	5.9481029034E+03	9.3827000000E-01	0.000E+00	0.0
	51	2	1	2	0	0	1.6471047170E+00	9.1867735852E+01	-1.2357970721E+02	1.0588616284E+03	1.0476037468E+03	0.000E+00	0.0
	1000022	2	5	5	0	0	-1.6471047170E+00	-9.1867735852E+01	2.2602093166E+01	8.7555283207E+02	8.7042490388E+02	0.000E+00	0.0
	14	1	6	6	0	0	-1.7514558480E+02	-2.2268955720E+02	1.6187395497E+02	4.6053750342E+02	3.2500000000E+02	0.000E+00	0.0
	-14	1	6	6	0	0	1.7349848008E+02	1.3082182135E+02	-1.3927186180E+02	4.1501532866E+02	3.2500000000E+02	0.000E+00	0.0
	25	2	5	5	0	0	1.6471047170E+00	9.1867735852E+01	-7.7362306409E+01	1.7348114792E+02	1.2517343323E+02	0.000E+00	0.0
	-5	1	9	9	0	501	1.9792714190E+01	-2.4643216055E+01	8.9983938308E-01	3.1895481552E+01	4.1800000000E+00	0.000E+00	0.0
	5	1	9	9	501	0	-1.8145609473E+01	1.1651095191E+02	-7.8262145792E+01	1.4158566637E+02	4.1800000000E+00	0.000E+00	0.0
</event>
<event>
    11  -1  1.0000000E+00  1.0000000E+00  -1.0000000E+00  -1.0000000E+00
	2212	-1	0	0	0	0	0.0000000000E+00	0.0000000000E+00	6.5000000000E+03	6.5000000000E+03	9.3827000000E-01	0.000E+00	0.0
	2212	-1	0	0	0	0	0.0000000000E+00	0.0000000000E+00	-6.5000000000E+03	6.5000000000E+03	9.3827000000E-01	0.000E+00	0.0
	2212	1	0	0	0	0	0.0000000000E+00	0.0000000000E+00	5.6994007012E+03	5.6994007012E+03	9.3827000000E-01	0.000E+00	0.0
	2212	1	0	0	0	0	0.0000000000E+00	0.0000000000E+00	-6.1551123867E+03	6.1551123867E+03	9.3827000000E-01	0.000E+00	0.0
	51	2	1	2	0	0	-1.7647105540E+01	-9.0116682543E+01	3.4878037771E+02	1.1111018469E+03	1.0509363089E+03	0.000E+00	0.0
	1000022	2	5	5	0	0	1.7647105540E+01	9.0116682543E+01	4.8603771128E+02	9.8731525582E+02	8.5447429498E+02	0.000E+00	0.0
	14	1	6	6	0	0	2.5132553945E+02	-2.3263662854E+01	1.0861456916E+02	4.2559117639E+02	3.2500000000E+02	0.000E+00	0.0
	-14	1	6	6	0	0	-2.3367843391E+02	1.1338034540E+02	3.7742314212E+02	5.6172407942E+02	3.2500000000E+02	0.000E+00	0.0
	25	2	5	5	0	0	-1.7647105540E+01	-9.0116682543E+01	-3.0326025692E+01	1.5817165629E+02	1.2516456453E+02	0.000E+00	0.0
	-5	1	9	9	0	501	-1.7153419738E+01	-7.2435178055E+01	4.0641590792E+01	8.4913521483E+01	4.1800000000E+00	0.000E+00	0.0
	5	1	9	9	501	0	-4.9368580226E-01	-1.7681504488E+01	-7.0967616484E+01	7.3258134811E+01	4.1800000000E+00	0.000E+00	0.0
</event>
<event>
    11  -1  1.0000000E+00  1.0000000E+00  -1.0000000E+00  -1.0000000E+00
	2212	-1	0	0	0	0	0.0000000000E+00	0.0000000000E+00	6.5000000000E+03	6.5000000000E+03	9.3827000000E-01	0.000E+00	0.0
	2212	-1	0	0	0	0	0.0000000000E+00	0.0000000000E+00	-6.5000000000E+03	6.5000000000E+03	9.3827000000E-01	0.000E+00	0.0
	2212	1	0	0	0	0	0.0000000000E+00	0.0000000000E+00	5.6989314282E+03	5.6989314282E+03	9.3827000000E-01	0.000E+00	0.0
	2212	1	0	0	0	0	0.0000000000E+00	0.0000000000E+00	-6.1591521880E+03	6.1591521880E+03	9.3827000000E-01	0.000E+00	0.0
	51	2	1	2	0	0	-3.6306445898E+01	1.3036719336E+02	4.7132995103E+02	1.1543983566E+03	1.0450693182E+03	0.000E+00	0.0
	1000022	2	5	5	0	0	3.6306445898E+01	-1.3036719336E+02	3.7172825547E+02	9.3742813784E+02	8.4986813952E+02	0.000E+00	0.0
	14	1	6	6	0	0	1.3400196738E+01	1.8402274299E+02	2.9954067094E+02	4.7895046587E+02	3.2500000000E+02	0.000E+00	0.0
	-14	1	6	6	0	0	2.2906249161E+01	-3.1438993635E+02	7.2187584527E+01	4.5847767196E+02	3.2500000000E+02	0.000E+00	0.0
	25	2	5	5	0	0	-3.6306445898E+01	1.3036719336E+02	8.8492504265E+01	2.0448824598E+02	1.2518289146E+02	0.000E+00	0.0
	-5	1	9	9	0	501	1.9400243555E+01	7.9440324381E+01	-7.5914903422E+00	8.2232826252E+01	4.1800000000E+00	0.000E+00	0.0
	5	1	9	9	501	0	-5.5706689453E+01	5.0926868981E+01	9.6083994607E+01	1.2225541973E+02	4.1800000000E+00	0.000E+00	0.0
</event>
<event>
    11  -1  1.0000000E+00  1.0000000E+00  -1.0000000E+00  -1.0000000E+00
	2212	-1	0	0	0	0	0.0000000000E+00	0.0000000000E+00	6.5000000000E+03	6.5000000000E+03	9.3827000000E-01	0.000E+00	0.0
	2212	-1	0	0	0	0	0.0000000000E+00	0.0000000000E+00	-6.5000000000E+03	6.5000000000E+03	9.3827000000E-01	0.000E+00	0.0
	2212	1	0	0	0	0	0.0000000000E+00	0.0000000000E+00	5.4938577913E+03	5.4938577913E+03	9.3827000000E-01	0.000E+00	0.0
	2212	1	0	0	0	0	0.0000000000E+00	0.0000000000E+00	-6.2312564394E+03	6.2312564394E+03	9.3827000000E-01	0.000E+00	0.0
	51	2	1	2	0	0	-1.0902310832E+02	-7.6308917211E+01	7.1393494243E+02	1.2684593606E+03	1.0399889222E+03	0.000E+00	0.0
	1000022	2	5	5	0	0	1.0902310832E+02	7.6308917211E+01	6.3644267593E+02	1.0662034613E+03	8.4499790073E+02	0.000E+00	0.0
	14	1	6	6	0	0	1.3446423023E+02	2.6183714521E+02	1.7641153097E+02	4.7263659198E+02	3.2500000000E+02	0.000E+00	0.0
	-14	1	6	6	0	0	-2.5441121910E+01	-1.8552822800E+02	4.6003114496E+02	5.9356686936E+02	3.2500000000E+02	0.000E+00	0.0
	25	2	5	5	0	0	-1.0902310832E+02	-7.6308917211E+01	1.0095597223E+02	2.0868230793E+02	1.2508840202E+02	0.000E+00	0.0
	-5	1	9	9	0	501	-1.1537819497E+02	-8.9811633060E+01	1.1630061121E+02	1.8687311705E+02	4.1800000000E+00	0.000E+00	0.0
	5	1	9	9	501	0	6.3550866526E+00	1.3502715849E+01	-1.5344638977E+01	2.1809190884E+01	4.1800000000E+00	0.000E+00	0.0
</event>
<event>
    11  -1  1.0000000E+00  1.0000000E+00  -1.0000000E+00  -1.0000000E+00
	2212	-1	0	0	0	0	0.0000000000E+00	0.0000000000E+00	6.5000000000E+03	6.5000000000E+03	9.3827000000E-01	0.000E+00	0.0
	2212	-1	0	0	0	0	0.0000000000E+00	0.0000000000E+00	-6.5000000000E+03	6.5000000000E+03	9.3827000000E-01	0.000E+00	0.0
	2212	1	0	0	0	0	0.0000000000E+00	0.0000000000E+00	6.2022034390E+03	6.2022034390E+03	9.3827000000E-01	0.000E+00	0.0
	2212	1	0	0	0	0	0.0000000000E+00	0.0000000000E+00	-5.5538350075E+03	5.5538350075E+03	9.3827000000E-01	0.000E+00	0.0
	51	2	1	2	0	0	1.2544433130E+02	-6.5968988942E+01	-7.4700082855E+02	1.3058166599E+03	1.0616302198E+03	0.000E+00	0.0
	1000022	2	5	5	0	0	-1.2544433130E+02	6.5968988942E+01	-4.3233034295E+02	9.5685154686E+02	8.4176431948E+02	0.000E+00	0.0
	14	1	6	6	0	0	2.1438555201E+00	-1.3552575886E+02	1.7822016446E+01	3.5258254594E+02	3.2500000000E+02	0.000E+00	0.0
	-14	1	6	6	0	0	-1.2758818682E+02	2.0149474781E+02	-4.5015235939E+02	6.0426900092E+02	3.2500000000E+02	0.000E+00	0.0
	25	2	5	5	0	0	1.2544433130E+02	-6.5968988942E+01	-2.1603808854E+02	2.8711000664E+02	1.2518591156E+02	0.000E+00	0.0
	-5	1	9	9	0	501	1.4635611637E+02	-4.2486829285E+01	-2.0024358311E+02	2.5167480692E+02	4.1800000000E+00	0.000E+00	0.0
	5	1	9	9	501	0	-2.0911785072E+01	-2.3482159657E+01	-1.5794505431E+01	3.5435199715E+01	4.1800000000E+00	0.000E+00	0.0
</event>
<event>
    11  -1  1.0000000E+00  1.0000000E+00  -1.0000000E+00  -1.0000000E+00
	2212	-1	0	0	0	0	0.0000000000E+00	0.0000000000E+00	6.5000000000E+03	6.5000000000E+03	9.3827000000E-01	0.000E+00	0.0
	2212	-1	0	0	0	0	0.0000000000E+00	0.0000000000E+00	-6.5000000000E+03	6.5000000000E+03	9.3827000000E-01	0.000E+00	0.0
	2212	1	0	0	0	0	0.0000000000E+00	0.0000000000E+00	6.2925246870E+03	6.2925246870E+03	9.3827000000E-01	0.000E+00	0.0
	2212	1	0	0	0	0	0.0000000000E+00	0.0000000000E+00	-5.1768680280E+03	5.1768680280E+03	9.3827000000E-01	0.000E+00	0.0
	51	2	1	2	0	0	-1.1636612997E+02	5.2567869287E+01	-1.2545787803E+03	1.6396161908E+03	1.0478878185E+03	0.000E+00	0.0
	1000022	2	5	5	0	0	1.1636612997E+02	-5.2567869287E+01	-7.7713004116E+02	1.1477541870E+03	8.3492761113E+02	0.000E+00	0.0
	14	1	6	6	0	0	-1.9309991123E+02	-9.8493478542E+01	-4.0794397991E+02	5.6482902880E+02	3.2500000000E+02	0.000E+00	0.0
	-14	1	6	6	0	0	3.0946604120E+02	4.5925609255E+01	-3.6918606125E+02	5.8292515820E+02	3.2500000000E+02	0.000E+00	0.0
	25	2	5	5	0	0	-1.1636612997E+02	5.2567869287E+01	-3.3852661785E+02	3.8285309801E+02	1.2518692654E+02	0.000E+00	0.0
	-5	1	9	9	0	501	1.5608069978E+01	-2.0753119335E+01	-6.9822821385E+01	7.4612348822E+01	4.1800000000E+00	0.000E+00	0.0
	5	1	9	9	501	0	-1.3197419995E+02	7.3320988622E+01	-2.6870379647E+02	3.0824074919E+02	4.1800000000E+00	0.000E+00	0.0
</event>
<event>
    11  -1  1.0000000E+00  1.0000000E+00  -1.0000000E+00  -1.0000000E+00
	2212	-1	0	0	0	0	0.0000000000E+00	0.0000000000E+00	6.5000000000E+03	6.5000000000E+03	9.3827000000E-01	0.000E+00	0.0
	2212	-1	0	0	0	0	0.0000000000E+00	0.0000000000E+00	-6.5000000000E+03	6.5000000000E+03	9.3827000000E-01	0.000E+00	0.0
	2212	1	0	0	0	0	0.0000000000E+00	0.0000000000E+00	4.8461848910E+03	4.8461848910E+03	9.3827000000E-01	0.000E+00	0.0
	2212	1	0	0	0	0	0.0000000000E+00	0.0000000000E+00	-6.3309816288E+03	6.3309816288E+03	9.3827000000E-01	0.000E+00	0.0
	51	2	1	2	0	0	-1.4438744258E+02	3.5367639962E+01	1.4898820202E+03	1.8330159797E+03	1.0574027351E+03	0.000E+00	0.0
	1000022	2	5	5	0	0	1.4438744258E+02	-3.5367639962E+01	1.2213293486E+03	1.4954442258E+03	8.5006438073E+02	0.000E+00	0.0
	14	1	6	6	0	0	-7.6904736063E+01	1.7441342415E+02	3.3845289648E+02	5.0646791022E+02	3.2500000000E+02	0.000E+00	0.0
	-14	1	6	6	0	0	2.2129217864E+02	-2.0978106411E+02	8.8287645209E+02	9.8897631562E+02	3.2500000000E+02	0.000E+00	0.0
	25	2	5	5	0	0	-1.4438744258E+02	3.5367639962E+01	2.6346738921E+02	3.2738925439E+02	1.2518009099E+02	0.000E+00	0.0
	-5	1	9	9	0	501	-2.4594361317E+01	6.2292209972E+01	1.2792726520E+02	1.4445781257E+02	4.1800000000E+00	0.000E+00	0.0
	5	1	9	9	501	0	-1.1979308126E+02	-2.6924570010E+01	1.3554012402E+02	1.8293144182E+02	4.1800000000E+00	0.000E+00	0.0
</event>
<event>
    11  -1  1.0000000E+00  1.0000000E+00  -1.0000000E+00  -1.0000000E+00
	2212	-1	0	0	0	0	0.0000000000E+00	0.0000000000E+00	6.5000000000E+03	6.5000000000E+03	9.3827000000E-01	0.000E+00	0.0
	2212	-1	0	0	0	0	0.0000000000E+00	0.0000000000E+00	-6.5000000000E+03	6.5000000000E+03	9.3827000000E-01	0.000E+00	0.0
	2212	1	0	0	0	0	0.0000000000E+00	0.0000000000E+00	5.2383658169E+03	5.2383658169E+03	9.3827000000E-01	0.000E+00	0.0
	2212	1	0	0	0	0	0.0000000000E+00	0.0000000000E+00	-6.2779216885E+03	6.2779216885E+03	9.3827000000E-01	0.000E+00	0.0
	51	2	1	2	0	0	1.3111942828E+01	9.0017411241E+01	1.2021850498E+03	1.6044470412E+03	1.0586436400E+03	0.000E+00	0.0
	1000022	2	5	5	0	0	-1.3111942828E+01	-9.0017411241E+01	7.0019992750E+02	1.1107435874E+03	8.5743589911E+02	0.000E+00	0.0
	14	1	6	6	0	0	-1.3137195545E+02	1.4142807886E+02	1.1972207612E+02	3.9650834503E+02	3.2500000000E+02	0.000E+00	0.0
	-14	1	6	6	0	0	1.1826001262E+02	-2.3144549011E+02	5.8047785139E+02	7.1423524236E+02	3.2500000000E+02	0.000E+00	0.0
	25	2	5	5	0	0	1.3111942828E+01	9.0017411241E+01	3.3935594413E+02	3.7296890727E+02	1.2517304664E+02	0.000E+00	0.0
	-5	1	9	9	0	501	8.9133037688E+00	8.4836188449E+00	-8.5706381767E+00	1.5567498564E+01	4.1800000000E+00	0.000E+00	0.0
	5	1	9	9	501	0	4.1986390595E+00	8.1533792396E+01	3.4792658230E+02	3.5740140871E+02	4.1800000000E+00	0.000E+00	0.0
</event>
<event>
    11  -1  1.0000000E+00  1.0000000E+00  -1.0000000E+00  -1.0000000E+00
	2212	-1	0	0	0	0	0.0000000000E+00	0.0000000000E+00	6.5000000000E+03	6.5000000000E+03	9.3827000000E-01	0.000E+00	0.0
	2212	-1	0	0	0	0	0.0000000000E+00	0.0000000000E+00	-6.5000000000E+03	6.5000000000E+03	9.3827000000E-01	0.000E+00	0.0
	2212	1	0	0	0	0	0.0000000000E+00	0.0000000000E+00	5.6534835741E+03	5.6534835741E+03	9.3827000000E-01	0.000E+00	0.0
	2212	1	0	0	0	0	0.0000000000E+00	0.0000000000E+00	-6.1785824981E+03	6.1785824981E+03	9.3827000000E-01	0.000E+00	0.0
	51	2	1	2	0	0	5.4330692286E+01	-6.8801581996E+01	4.4192752024E+02	1.1363653438E+03	1.0432357259E+03	0.000E+00	0.0
	1000022	2	5	5	0	0	-5.4330692286E+01	6.8801581996E+01	5.2536645082E+02	1.0151063032E+03	8.6414432664E+02	0.000E+00	0.0
	14	1	6	6	0	0	1.1178364339E+02	-1.5631750619E+02	4.3654459903E+02	5.7717149324E+02	3.2500000000E+02	0.000E+00	0.0
	-14	1	6	6	0	0	-1.6611433568E+02	2.2511908819E+02	8.8821851792E+01	4.3793480992E+02	3.2500000000E+02	0.000E+00	0.0
	25	2	5	5	0	0	5.4330692286E+01	-6.8801581996E+01	-2.6752675993E-01	1.5282762468E+02	1.2518278429E+02	0.000E+00	0.0
	-5	1	9	9	0	501	-3.2747655774E+01	-4.7465651564E+01	-1.9540126933E+01	6.1030205617E+01	4.1800000000E+00	0.000E+00	0.0
	5	1	9	9	501	0	8.7078348060E+01	-2.1335930432E+01	1.9272600173E+01	9.1797419058E+01	4.1800000000E+00	0.000E+00	0.0
</event>
<event>
    11  -1  1.0000000E+00  1.0000000E+00  -1.0000000E+00  -1.0000000E+00
	2212	-1	0	0	0	0	0.0000000000E+00	0.0000000000E+00	6.5000000000E+03	6.5000000000E+03	9.3827000000E-01	0.000E+00	0.0
	2212	-1	0	0	0	0	0.0000000000E+00	0.0000000000E+00	-6.5000000000E+03	6.5000000000E+03	9.3827000000E-01	0.000E+00	0.0
	2212	1	0	0	0	0	0.0000000000E+00	0.0000000000E+00	6.2910408571E+03	6.2910408571E+03	9.3827000000E-01	0.000E+00	0.0
	2212	1	0	0	0	0	0.0000000000E+00	0.0000000000E+00	-5.1926366833E+03	5.1926366833E+03	9.3827000000E-01	0.000E+00	0.0
	51	2	1	2	0	0	-4.0120753353E+01	1.1262370788E+02	-1.1446330641E+03	1.5547413607E+03	1.0453430406E+03	0.000E+00	0.0
	1000022	2	5	5	0	0	4.0120753353E+01	-1.1262370788E+02	-8.7565366637E+02	1.2342194040E+03	8.6153027769E+02	0.000E+00	0.0
	14	1	6	6	0	0	9.3449795643E+01	1.4640637084E+02	-6.7636446365E+02	7.7023475474E+02	3.2500000000E+02	0.000E+00	0.0
	-14	1	6	6	0	0	-5.3329042290E+01	-2.5903007872E+02	-1.9928920272E+02	4.6398464927E+02	3.2500000000E+02	0.000E+00	0.0
	25	2	5	5	0	0	-4.0120753353E+01	1.1262370788E+02	-2.2275050737E+02	2.8210305560E+02	1.2518215137E+02	0.000E+00	0.0
	-5	1	9	9	0	501	-8.5272528301E+01	8.0059925765E+01	-1.4382678964E+02	1.8543088635E+02	4.1800000000E+00	0.000E+00	0.0
	5	1	9	9	501	0	4.5151774948E+01	3.2563782112E+01	-7.8923717732E+01	9.6672169247E+01	4.1800000000E+00	0.000E+00	0.0
</event>
<event>
    11  -1  1.0000000E+00  1.0000000E+00  -1.0000000E+00  -1.0000000E+00
	2212	-1	0	0	0	0	0.0000000000E+00	0.0000000000E+00	6.5000000000E+03	6.5000000000E+03	9.3827000000E-01	0.000E+00	0.0
	2212	-1	0	0	0	0	0.0000000000E+00	0.0000000000E+00	-6.5000000000E+03	6.5000000000E+03	9.3827000000E-01	0.000E+00	0.0
	2212	1	0	0	0	0	0.0000000000E+00	0.0000000000E+00	5.3953629755E+03	5.3953629755E+03	9.3827000000E-01	0.000E+00	0.0
	2212	1	0	0	0	0	0.0000000000E+00	0.0000000000E+00	-6.2549917179E+03	6.2549917179E+03	9.3827000000E-01	0.000E+00	0.0
	51	2	1	2	0	0	7.6758884670E+01	6.3640060030E+01	9.7006543692E+02	1.4260258814E+03	1.0404714696E+03	0.000E+00	0.0
	1000022	2	5	5	0	0	-7.6758884670E+01	-6.3640060030E+01	6.0779199590E+02	1.0512620149E+03	8.5193821961E+02	0.000E+00	0.0
	14	1	6	6	0	0	-1.4549628441E+02	-2.7136483708E+02	2.1561421107E+02	4.9691300204E+02	3.2500000000E+02	0.000E+00	0.0
	-14	1	6	6	0	0	6.8737399739E+01	2.0772477705E+02	3.9217778482E+02	5.5434901284E+02	3.2500000000E+02	0.000E+00	0.0
	25	2	5	5	0	0	7.6758884670E+01	6.3640060030E+01	2.5183674643E+02	2.9838329172E+02	1.2517531031E+02	0.000E+00	0.0
	-5	1	9	9	0	501	-2.3296982036E+01	-1.6387825429E+01	7.1929570537E+01	7.7476743039E+01	4.1800000000E+00	0.000E+00	0.0
	5	1	9	9	501	0	1.0005586671E+02	8.0027885459E+01	1.7990717589E+02	2.2090654868E+02	4.1800000000E+00	0.000E+00	0.0
</event>
<event>
    11  -1  1.0000000E+00  1.0000000E+00  -1.0000000E+00  -1.0000000E+00
	2212	-1	0	0	0	0	0.0000000000E+00	0.0000000000E+00	6.5000000000E+03	6.5000000000E+03	9.3827000000E-01	0.000E+00	0.0
	2212	-1	0	0	0	0	0.0000000000E+00	0.0000000000E+00	-6.5000000000E+03	6.5000000000E+03	9.3827000000E-01	0.000E+00	0.0
	2212	1	0	0	0	0	0.0000000000E+00	0.0000000000E+00	5.1156841628E+03	5.1156841628E+03	9.3827000000E-01	0.000E+00	0.0
	2212	1	0	0	0	0	0.0000000000E+00	0.0000000000E+00	-6.2998547030E+03	6.2998547030E+03	9.3827000000E-01	0.000E+00	0.0
	51	2	1	2	0	0	-3.6668621726E+01	-1.4357170107E+00	1.4010752240E+03	1.7528878030E+03	1.0527379625E+03	0.000E+00	0.0
	1000022	2	5	5	0	0	3.6668621726E+01	1.4357170107E+00	7.6517243837E+02	1.1456264832E+03	8.5183597575E+02	0.000E+00	0.0
	14	1	6	6	0	0	5.2721835676E+01	9.9858577264E+01	4.2099834529E+01	3.4662475889E+02	3.2500000000E+02	0.000E+00	0.0
	-14	1	6	6	0	0	-1.6053213950E+01	-9.8422860254E+01	7.2307260384E+02	7.9900172435E+02	3.2500000000E+02	0.000E+00	0.0
	25	2	5	5	0	0	-3.6668621726E+01	-1.4357170107E+00	4.1899810182E+02	4.3883465101E+02	1.2517904174E+02	0.000E+00	0.0
	-5	1	9	9	0	501	1.1698699350E+01	-2.8402073064E+01	3.4461949925E+02	3.4601099547E+02	4.1800000000E+00	0.000E+00	0.0
	5	1	9	9	501	0	-4.8367321076E+01	2.6966356054E+01	7.4378602567E+01	9.2823655534E+01	4.1800000000E+00	0.000E+00	0.0
</event>
<event>
    11  -1  1.0000000E+00  1.0000000E+00  -1.0000000E+00  -1.0000000E+00
	2212	-1	0	0	0	0	0.0000000000E+00	0.0000000000E+00	6.5000000000E+03	6.5000000000E+03	9.3827000000E-01	0.000E+00	0.0
	2212	-1	0	0	0	0	0.0000000000E+00	0.0000000000E+00	-6.5000000000E+03	6.5000000000E+03	9.3827000000E-01	0.000E+00	0.0
	2212	1	0	0	0	0	0.0000000000E+00	0.0000000000E+00	6.2302461323E+03	6.2302461323E+03	9.3827000000E-01	0.000E+00	0.0
	2212	1	0	0	0	0	0.0000000000E+00	0.0000000000E+00	-5.4715284403E+03	5.4715284403E+03	9.3827000000E-01	0.000E+00	0.0
	51	2	1	2	0	0	3.2665568287E+01	4.0699054883E+01	-9.3633697610E+02	1.4103854472E+03	1.0534404228E+03	0.000E+00	0.0
	1000022	2	5	5	0	0	-3.2665568287E+01	-4.0699054883E+01	-4.4910124293E+02	9.6020791465E+02	8.4710321717E+02	0.000E+00	0.0
	14	1	6	6	0	0	-6.9430326746E+01	-2.0020023360E+02	-7.5731795100E+00	3.8805032774E+02	3.2500000000E+02	0.000E+00	0.0
	-14	1	6	6	0	0	3.6764758459E+01	1.5950117872E+02	-4.4152806342E+02	5.7215758692E+02	3.2500000000E+02	0.000E+00	0.0
	25	2	5	5	0	0	3.2665568287E+01	4.0699054883E+01	-3.0961644906E+02	3.3801751283E+02	1.2518003447E+02	0.000E+00	0.0
	-5	1	9	9	0	501	-1.2986847699E+01	1.5325862811E+01	3.2670574170E+00	2.0777063032E+01	4.1800000000E+00	0.000E+00	0.0
	5	1	9	9	501	0	4.5652415987E+01	2.5373192072E+01	-3.1288350648E+02	3.1724044980E+02	4.1800000000E+00	0.000E+00	0.0
</event>
<event>
    11  -1  1.0000000E+00  1.0000000E+00  -1.0000000E+00  -1.0000000E+00
	2212	-1	0	0	0	0	0.0000000000E+00	0.0000000000E+00	6.5000000000E+03	6.5000000000E+03	9.3827000000E-01	0.000E+00	0.0
	2212	-1	0	0	0	0	0.0000000000E+00	0.0000000000E+00	-6.5000000000E+03	6.5000000000E+03	9.3827000000E-01	0.000E+00	0.0
	2212	1	0	0	0	0	0.0000000000E+00	0.0000000000E+00	5.8268812835E+03	5.8268812835E+03	9.3827000000E-01	0.000E+00	0.0
	2212	1	0	0	0	0	0.0000000000E+00	0.0000000000E+00	-6.0845237091E+03	6.0845237091E+03	9.3827000000E-01	0.000E+00	0.0
	51	2	1	2	0	0	-5.1808675603E+01	-1.2482939922E+02	1.9632074779E+02	1.0841899392E+03	1.0576669941E+03	0.000E+00	0.0
	1000022	2	5	5	0	0	5.1808675603E+01	1.2482939922E+02	2.7414721599E+02	9.0363902681E+02	8.5037655010E+02	0.000E+00	0.0
	14	1	6	6	0	0	-2.3585036415E+02	1.3914069497E+02	1.0630824630E+02	4.3807758502E+02	3.2500000000E+02	0.000E+00	0.0
	-14	1	6	6	0	0	2.8765903975E+02	-1.4311295742E+01	1.6783896969E+02	4.6556144179E+02	3.2500000000E+02	0.000E+00	0.0
	25	2	5	5	0	0	-5.1808675603E+01	-1.2482939922E+02	-1.6504790393E+01	1.8495598050E+02	1.2517902715E+02	0.000E+00	0.0
	-5	1	9	9	0	501	-8.4708658396E+01	-6.2659106586E+01	-3.6707417657E+01	1.1165405213E+02	4.1800000000E+00	0.000E+00	0.0
	5	1	9	9	501	0	3.2899982793E+01	-6.2170292638E+01	2.0202627264E+01	7.3301928371E+01	4.1800000000E+00	0.000E+00	0.0
</event>
<event>
    11  -1  1.0000000E+00  1.0000000E+00  -1.0000000E+00  -1.0000000E+00
	2212	-1	0	0	0	0	0.0000000000E+00	0.0000000000E+00	6.5000000000E+03	6.5000000000E+03	9.3827000000E-01	0.000E+00	0.0
	2212	-1	0	0	0	0	0.0000000000E+00	0.0000000000E+00	-6.5000000000E+03	6.5000000000E+03	9.3827000000E-01	0.000E+00	0.0
	2212	1	0	0	0	0	0.0000000000E+00	0.0000000000E+00	6.2774601439E+03	6.2774601439E+03	9.3827000000E-01	0.000E+00	0.0
	2212	1	0	0	0	0	0.0000000000E+00	0.0000000000E+00	-5.2754209081E+03	5.2754209081E+03	9.3827000000E-01	0.000E+00	0.0
	51	2	1	2	0	0	7.6134769550E+01	5.2729623791E+01	-1.1351298932E+03	1.5450460868E+03	1.0440644710E+03	0.000E+00	0.0
	1000022	2	5	5	0	0	-7.6134769550E+01	-5.2729623791E+01	-7.0377380435E+02	1.1106507055E+03	8.5420753076E+02	0.000E+00	0.0
	14	1	6	6	0	0	1.0578864562E+02	-2.0344807547E+02	-1.4701632847E+02	4.2405324877E+02	3.2500000000E+02	0.000E+00	0.0
	-14	1	6	6	0	0	-1.8192341517E+02	1.5071845167E+02	-5.5675747587E+02	6.8659745674E+02	3.2500000000E+02	0.000E+00	0.0
	25	2	5	5	0	0	7.6134769550E+01	5.2729623791E+01	-2.9826543144E+02	3.3646824246E+02	1.2518663759E+02	0.000E+00	0.0
	-5	1	9	9	0	501	5.0707717657E+01	1.1058519132E+01	-2.3077289962E+01	5.6952587188E+01	4.1800000000E+00	0.000E+00	0.0
	5	1	9	9	501	0	2.5427051893E+01	4.1671104660E+01	-2.7518814148E+02	2.7951565527E+02	4.1800000000E+00	0.000E+00	0.0
</event>
<event>
    11  -1  1.0000000E+00  1.0000000E+00  -1.0000000E+00  -1.0000000E+00
	2212	-1	0	0	0	0	0.0000000000E+00	0.0000000000E+00	6.5000000000E+03	6.5000000000E+03	9.3827000000E-01	0.000E+00	0.0
	2212	-1	0	0	0	0	0.0000000000E+00	0.0000000000E+00	-6.5000000000E+03	6.5000000000E+03	9.3827000000E-01	0.000E+00	0.0
	2212	1	0	0	0	0	0.0000000000E+00	0.0000000000E+00	6.0694015400E+03	6.0694015400E+03	9.3827000000E-01	0.000E+00	0.0
	2212	1	0	0	0	0	0.0000000000E+00	0.0000000000E+00	-5.8585075630E+03	5.8585075630E+03	9.3827000000E-01	0.000E+00	0.0
	51	2	1	2	0	0	6.2659970722E+01	1.1060170000E+02	-1.2572323298E+02	1.0662401048E+03	1.0511434830E+03	0.000E+00	0.0
	1000022	2	5	5	0	0	-6.2659970722E+01	-1.1060170000E+02	-2.5858791276E+02	8.8742631501E+02	8.3934423687E+02	0.000E+00	0.0
	14	1	6	6	0	0	1.7868393588E+02	-2.9480542490E+01	4.5281659295E+01	3.7479658482E+02	3.2500000000E+02	0.000E+00	0.0
	-14	1	6	6	0	0	-2.4134390660E+02	-8.1121157507E+01	-3.0386957205E+02	5.1262973018E+02	3.2500000000E+02	0.000E+00	0.0
	25	2	5	5	0	0	6.2659970722E+01	1.1060170000E+02	4.7693935788E+01	1.8466458196E+02	1.2516903909E+02	0.000E+00	0.0
	-5	1	9	9	0	501	4.8150483951E+01	1.2651074064E+02	3.6690012428E+00	1.3547830295E+02	4.1800000000E+00	0.000E+00	0.0
	5	1	9	9	501	0	1.4509486771E+01	-1.5909040641E+01	4.4024934545E+01	4.9186279003E+01	4.1800000000E+00	0.000E+00	0.0
</event>
<event>
    11  -1  1.0000000E+00  1.0000000E+00  -1.0000000E+00  -1.0000000E+00
	2212	-1	0	0	0	0	0.0000000000E+00	0.0000000000E+00	6.5000000000E+03	6.5000000000E+03	9.3827000000E-01	0.000E+00	0.0
	2212	-1	0	0	0	0	0.0000000000E+00	0.0000000000E+00	-6.5000000000E+03	6.5000000000E+03	9.3827000000E-01	0.000E+00	0.0
	2212	1	0	0	0	0	0.0000000000E+00	0.0000000000E+00	5.2402578442E+03	5.2402578442E+03	9.3827000000E-01	0.000E+00	0.0
	2212	1	0	0	0	0	0.0000000000E+00	0.0000000000E+00	-6.2808050295E+03	6.2808050295E+03	9.3827000000E-01	0.000E+00	0.0
	51	2	1	2	0	0	6.5021685544E+01	1.2212240880E+02	1.0387103106E+03	1.4841082812E+03	1.0509598368E+03	0.000E+00	0.0
	1000022	2	5	5	0	0	-6.5021685544E+01	-1.2212240880E+02	8.6668407732E+02	1.2240423344E+03	8.5322719380E+02	0.000E+00	0.0
	14	1	6	6	0	0	-1.4329538705E+02	1.9329820402E+02	3.8751961178E+02	5.6008411256E+02	3.2500000000E+02	0.000E+00	0.0
	-14	1	6	6	0	0	7.8273701502E+01	-3.1542061282E+02	4.7916446554E+02	6.6395822186E+02	3.2500000000E+02	0.000E+00	0.0
	25	2	5	5	0	0	6.5021685544E+01	1.2212240880E+02	1.7386310803E+02	2.5489479187E+02	1.2490505301E+02	0.000E+00	0.0
	-5	1	9	9	0	501	3.6700524159E+01	1.0144413397E+02	1.8805005961E+02	2.1683666228E+02	4.1800000000E+00	0.000E+00	0.0
	5	1	9	9	501	0	2.8321161385E+01	2.0678274835E+01	-1.4186951587E+01	3.8058129587E+01	4.1800000000E+00	0.000E+00	0.0
</event>
<event>
    11  -1  1.0000000E+00  1.0000000E+00  -1.0000000E+00  -1.0000000E+00
	2212	-1	0	0	0	0	0.0000000000E+00	0.0000000000E+00	6.5000000000E+03	6.5000000000E+03	9.3827000000E-01	0.000E+00	0.0
	2212	-1	0	0	0	0	0.0000000000E+00	0.0000000000E+00	-6.5000000000E+03	6.5000000000E+03	9.3827000000E-01	0.000E+00	0.0
	2212	1	0	0	0	0	0.0000000000E+00	0.0000000000E+00	5.8635822299E+03	5.8635822299E+03	9.3827000000E-01	0.000E+00	0.0
	2212	1	0	0	0	0	0.0000000000E+00	0.0000000000E+00	-6.0758974060E+03	6.0758974060E+03	9.3827000000E-01	0.000E+00	0.0
	51	2	1	2	0	0	1.2698682638E+02	2.4608928537E+01	2.1982319821E+02	1.0698968177E+03	1.0390503879E+03	0.000E+00	0.0
	1000022	2	5	5	0	0	-1.2698682638E+02	-2.4608928537E+01	1.6965141078E+02	8.7553996937E+02	8.4915097794E+02	0.000E+00	0.0
	14	1	6	6	0	0	-9.9046970785E+01	3.7650581170E+01	-1.8582266063E+02	3.8907959325E+02	3.2500000000E+02	0.000E+00	0.0
	-14	1	6	6	0	0	-2.7939855590E+01	-6.2259509707E+01	3.5547407141E+02	4.8646037611E+02	3.2500000000E+02	0.000E+00	0.0
	25	2	5	5	0	0	1.2698682638E+02	2.4608928537E+01	4.2663765364E+01	1.8498039469E+02	1.2516507543E+02	0.000E+00	0.0
	-5	1	9	9	0	501	5.7921536210E+01	5.3975494609E+01	-2.5732446863E+01	8.3354001684E+01	4.1800000000E+00	0.000E+00	0.0
	5	1	9	9	501	0	6.9065290165E+01	-2.9366566071E+01	6.8396212227E+01	1.0162639301E+02	4.1800000000E+00	0.000E+00	0.0
</event>
<event>
    11  -1  1.0000000E+00  1.0000000E+00  -1.0000000E+00  -1.0000000E+00
	2212	-1	0	0	0	0	0.0000000000E+00	0.0000000000E+00	6.5000000000E+03	6.5000000000E+03	9.3827000000E-01	0.000E+00	0.0
	2212	-1	0	0	0	0	0.0000000000E+00	0.0000000000E+00	-6.5000000000E+03	6.5000000000E+03	9.3827000000E-01	0.000E+00	0.0
	2212	1	0	0	0	0	0.0000000000E+00	0.0000000000E+00	6.1075663856E+03	6.1075663856E+03	9.3827000000E-01	0.000E+00	0.0
	2212	1	0	0	0	0	0.0000000000E+00	0.0000000000E+00	-5.8040554135E+03	5.8040554135E+03	9.3827000000E-01	0.000E+00	0.0
	51	2	1	2	0	0	-2.7867985607E+01	-1.2994901454E+02	-3.2571539999E+02	1.1028155289E+03	1.0452024674E+03	0.000E+00	0.0
	1000022	2	5	5	0	0	2.7867985607E+01	1.2994901454E+02	-2.3049982490E+02	8.9175001065E+02	8.5113133018E+02	0.000E+00	0.0
	14	1	6	6	0	0	-9.0936795037E+01	2.7675350623E+02	-2.7091817004E+02	5.1369607626E+02	3.2500000000E+02	0.000E+00	0.0
	-14	1	6	6	0	0	1.1880478064E+02	-1.4680449169E+02	4.0418345145E+01	3.7805393439E+02	3.2500000000E+02	0.000E+00	0.0
	25	2	5	5	0	0	-2.7867985607E+01	-1.2994901454E+02	-7.3011147169E+01	1.9662819020E+02	1.2517446453E+02	0.000E+00	0.0
	-5	1	9	9	0	501	-3.7916721099E+01	-7.3697529808E+01	-1.0274951312E+02	1.3207550297E+02	4.1800000000E+00	0.000E+00	0.0
	5	1	9	9	501	0	1.0048735492E+01	-5.6251484730E+01	2.9738365950E+01	6.4552687231E+01	4.1800000000E+00	0.000E+00	0.0
</event>
<event>
    11  -1  1.0000000E+00  1.0000000E+00  -1.0000000E+00  -1.0000000E+00
	2212	-1	0	0	0	0	0.0000000000E+00	0.0000000000E+00	6.5000000000E+03	6.5000000000E+03	9.3827000000E-01	0.000E+00	0.0
	2212	-1	0	0	0	0	0.0000000000E+00	0.0000000000E+00	-6.5000000000E+03	6.5000000000E+03	9.3827000000E-01	0.000E+00	0.0
	2212	1	0	0	0	0	0.0000000000E+00	0.0000000000E+00	6.0604532963E+03	6.0604532963E+03	9.3827000000E-01	0.000E+00	0.0
	2212	1	0	0	0	0	0.0000000000E+00	0.0000000000E+00	-5.8022975420E+03	5.8022975420E+03	9.3827000000E-01	0.000E+00	0.0
	51	2	1	2	0	0	-9.9475569915E+01	1.5643735012E+02	-1.7689012551E+02	1.1368154698E+03	1.1075609520E+03	0.000E+00	0.0
	1000022	2	5	5	0	0	9.9475569915E+01	-1.5643735012E+02	-2.8809228475E+02	9.1156364812E+02	8.4473847227E+02	0.000E+00	0.0
	14	1	6	6	0	0	-7.6677362964E+01	1.5149182222E+02	-2.1460745569E+02	4.2486533187E+02	3.2500000000E+02	0.000E+00	0.0
	-14	1	6	6	0	0	1.7615293288E+02	-3.0792917234E+02	-7.3484829059E+01	4.8669831625E+02	3.2500000000E+02	0.000E+00	0.0
	25	2	5	5	0	0	-9.9475569915E+01	1.5643735012E+02	2.9936530444E+01	2.2568551363E+02	1.2517875892E+02	0.000E+00	0.0
	-5	1	9	9	0	501	2.8856372933E+01	4.4863763841E+01	9.7662993630E+00	5.4390261703E+01	4.1800000000E+00	0.000E+00	0.0
	5	1	9	9	501	0	-1.2833194285E+02	1.1157358628E+02	2.0170231081E+01	1.7129525193E+02	4.1800000000E+00	0.000E+00	0.0
</event>
<event>
    11  -1  1.0000000E+00  1.0000000E+00  -1.0000000E+00  -1.0000000E+00
	2212	-1	0	0	0	0	0.0000000000E+00	0.0000000000E+00	6.5000000000E+03	6.5000000000E+03	9.3827000000E-01	0.000E+00	0.0
	2212	-1	0	0	0	0	0.0000000000E+00	0.0000000000E+00	-6.5000000000E+03	6.5000000000E+03	9.3827000000E-01	0.000E+00	0.0
	2212	1	0	0	0	0	0.0000000000E+00	0.0000000000E+00	6.1795993585E+03	6.1795993585E+03	9.3827000000E-01	0.000E+00	0.0
	2212	1	0	0	0	0	0.0000000000E+00	0.0000000000E+00	-5.6461285427E+03	5.6461285427E+03	9.3827000000E-01	0.000E+00	0.0
	51	2	1	2	0	0	1.1193015234E+02	-1.0045305626E+01	-4.4659750075E+02	1.1429796348E+03	1.0460993503E+03	0.000E+00	0.0
	1000022	2	5	5	0	0	-1.1193015234E+02	1.0045305626E+01	-5.2968233747E+02	1.0060004795E+03	8.4784687241E+02	0.000E+00	0.0
	14	1	6	6	0	0	2.1751782190E+01	-2.3286315930E+02	-3.8363169746E+02	5.5452382301E+02	3.2500000000E+02	0.000E+00	0.0
	-14	1	6	6	0	0	-1.3368193453E+02	2.4290846493E+02	-1.4605064001E+02	4.5147665654E+02	3.2500000000E+02	0.000E+00	0.0
	25	2	5	5	0	0	1.1193015234E+02	-1.0045305626E+01	-3.7884782758E+00	1.6827161924E+02	1.2518673295E+02	0.000E+00	0.0
	-5	1	9	9	0	501	5.0490828413E+01	-1.4821742716E+01	-6.3353700219E+01	8.2463152634E+01	4.1800000000E+00	0.000E+00	0.0
	5	1	9	9	501	0	6.1439323927E+01	4.7764370891E+00	5.9565221943E+01	8.5808466605E+01	4.1800000000E+00	0.000E+00	0.0
</event>
<event>
    11  -1  1.0000000E+00  1.0000000E+00  -1.0000000E+00  -1.0000000E+00
	2212	-1	0	0	0	0	0.0000000000E+00	0.0000000000E+00	6.5000000000E+03	6.5000000000E+03	9.3827000000E-01	0.000E+00	0.0
	2212	-1	0	0	0	0	0.0000000000E+00	0.0000000000E+00	-6.5000000000E+03	6.5000000000E+03	9.3827000000E-01	0.000E+00	0.0
	2212	1	0	0	0	0	0.0000000000E+00	0.0000000000E+00	5.7919346218E+03	5.7919346218E+03	9.3827000000E-01	0.000E+00	0.0
	2212	1	0	0	0	0	0.0000000000E+00	0.0000000000E+00	-6.1098847499E+03	6.1098847499E+03	9.3827000000E-01	0.000E+00	0.0
	51	2	1	2	0	0	-1.2819480051E+02	1.1984556214E+01	2.8178267020E+02	1.0958500893E+03	1.0511462355E+03	0.000E+00	0.0
	1000022	2	5	5	0	0	1.2819480051E+02	-1.1984556214E+01	3.0122071646E+02	9.1780855988E+02	8.5735704120E+02	0.000E+00	0.0
	14	1	6	6	0	0	2.0870450062E+02	-9.8498373387E+01	3.9326575234E+02	5.5994861381E+02	3.2500000000E+02	0.000E+00	0.0
	-14	1	6	6	0	0	-8.0509700106E+01	8.6513817174E+01	-9.2045035881E+01	3.5785994607E+02	3.2500000000E+02	0.000E+00	0.0
	25	2	5	5	0	0	-1.2819480051E+02	1.1984556214E+01	1.6729411652E+01	1.8037206844E+02	1.2520652296E+02	0.000E+00	0.0
	-5	1	9	9	0	501	-1.3185816691E+02	1.6358400211E+01	5.3227496159E+01	1.4319501453E+02	4.1800000000E+00	0.000E+00	0.0
	5	1	9	9	501	0	3.6633663976E+00	-4.3738439972E+00	-3.6498084507E+01	3.7177053909E+01	4.1800000000E+00	0.000E+00	0.0
</event>
<event>
    11  -1  1.0000000E+00  1.0000000E+00  -1.0000000E+00  -1.0000000E+00
	2212	-1	0	0	0	0	0.0000000000E+00	0.0000000000E+00	6.5000000000E+03	6.5000000000E+03	9.3827000000E-01	0.000E+00	0.0
	2212	-1	0	0	0	0	0.0000000000E+00	0.0000000000E+00	-6.5000000000E+03	6.5000000000E+03	9.3827000000E-01	0.000E+00	0.0
	2212	1	0	0	0	0	0.0000000000E+00	0.0000000000E+00	5.0631337354E+03	5.0631337354E+03	9.3827000000E-01	0.000E+00	0.0
	2212	1	0	0	0	0	0.0000000000E+00	0.0000000000E+00	-6.3079174636E+03	6.3079174636E+03	9.3827000000E-01	0.000E+00	0.0
	51	2	1	2	0	0	-1.5375577448E+01	3.2492337398E+01	1.1053013280E+03	1.5254411992E+03	1.0507081737E+03	0.000E+00	0.0
	1000022	2	5	5	0	0	1.5375577448E+01	-3.2492337398E+01	1.1999003339E+03	1.4911916488E+03	8.8464657459E+02	0.000E+00	0.0
	14	1	6	6	0	0	-1.7614808628E+02	-1.4829956397E+02	9.3392313947E+02	1.0153119419E+03	3.2500000000E+02	0.000E+00	0.0
	-14	1	6	6	0	0	1.9152366373E+02	1.1580722657E+02	2.6597719439E+02	4.7587970689E+02	3.2500000000E+02	0.000E+00	0.0
	25	2	5	5	0	0	-1.5375577448E+01	3.2492337398E+01	4.4883394292E+01	1.3775715216E+02	1.2518128261E+02	0.000E+00	0.0
	-5	1	9	9	0	501	2.6400358449E+01	-1.5150934810E+01	6.4374366317E+01	7.1330646924E+01	4.1800000000E+00	0.000E+00	0.0
	5	1	9	9	501	0	-4.1775935897E+01	4.7643272209E+01	-1.9490972024E+01	6.6426505232E+01	4.1800000000E+00	0.000E+00	0.0
</event>
<event>
    11  -1  1.0000000E+00  1.0000000E+00  -1.0000000E+00  -1.0000000E+00
	2212	-1	0	0	0	0	0.0000000000E+00	0.0000000000E+00	6.5000000000E+03	6.5000000000E+03	9.3827000000E-01	0.000E+00	0.0
	2212	-1	0	0	0	0	0.0000000000E+00	0.0000000000E+00	-6.5000000000E+03	6.5000000000E+03	9.3827000000E-01	0.000E+00	0.0
	2212	1	0	0	0	0	0.0000000000E+00	0.0000000000E+00	4.8540804372E+03	4.8540804372E+03	9.3827000000E-01	0.000E+00	0.0
	2212	1	0	0	0	0	0.0000000000E+00	0.0000000000E+00	-6.3313474173E+03	6.3313474173E+03	9.3827000000E-01	0.000E+00	0.0
	51	2	1	2	0	0	9.1424486560E+01	-9.4484391500E+01	1.3926160263E+03	1.7512908023E+03	1.0537335245E+03	0.000E+00	0.0
	1000022	2	5	5	0	0	-9.1424486560E+01	9.4484391500E+01	1.3087437590E+03	1.5668719179E+03	8.5146441121E+02	0.000E+00	0.0
	14	1	6	6	0	0	2.4039972812E+01	1.5016461463E+02	1.1064180322E+03	1.1631479673E+03	3.2500000000E+02	0.000E+00	0.0
	-14	1	6	6	0	0	-1.1546445937E+02	-5.5680223132E+01	2.0232572679E+02	4.0372395067E+02	3.2500000000E+02	0.000E+00	0.0
	25	2	5	5	0	0	9.1424486560E+01	-9.4484391500E+01	1.6852322113E+02	2.4770022754E+02	1.2517823167E+02	0.000E+00	0.0
	-5	1	9	9	0	501	4.3075553309E+01	-1.1802229091E+02	1.0084262381E+02	1.6115666794E+02	4.1800000000E+00	0.000E+00	0.0
	5	1	9	9	501	0	4.8348933252E+01	2.3537899411E+01	6.7680597315E+01	8.6543559600E+01	4.1800000000E+00	0.000E+00	0.0
</event>
<event>
    11  -1  1.0000000E+00  1.0000000E+00  -1.0000000E+00  -1.0000000E+00
	2212	-1	0	0	0	0	0.0000000000E+00	0.0000000000E+00	6.5000000000E+03	6.5000000000E+03	9.3827000000E-01	0.000E+00	0.0
	2212	-1	0	0	0	0	0.0000000000E+00	0.0000000000E+00	-6.5000000000E+03	6.5000000000E+03	9.3827000000E-01	0.000E+00	0.0
	2212	1	0	0	0	0	0.0000000000E+00	0.0000000000E+00	6.2577608232E+03	6.2577608232E+03	9.3827000000E-01	0.000E+00	0.0
	2212	1	0	0	0	0	0.0000000000E+00	0.0000000000E+00	-5.3538664448E+03	5.3538664448E+03	9.3827000000E-01	0.000E+00	0.0
	51	2	1	2	0	0	-9.6825182329E+01	-5.8282663905E+01	-1.0305865539E+03	1.4783214893E+03	1.0538281623E+03	0.000E+00	0.0
	1000022	2	5	5	0	0	9.6825182329E+01	5.8282663905E+01	-6.2176554904E+02	1.0596748279E+03	8.5061528208E+02	0.000E+00	0.0
	14	1	6	6	0	0	-2.0385456260E+02	1.0420805056E+02	-1.9412977717E+02	4.4241086207E+02	3.2500000000E+02	0.000E+00	0.0
	-14	1	6	6	0	0	3.0067974493E+02	-4.5925386657E+01	-4.2763577187E+02	6.1726396585E+02	3.2500000000E+02	0.000E+00	0.0
	25	2	5	5	0	0	-9.6825182329E+01	-5.8282663905E+01	-2.8212882930E+02	3.2869790407E+02	1.2519445266E+02	0.000E+00	0.0
	-5	1	9	9	0	501	1.5991068025E+01	2.3871228533E+01	-4.8011266835E+01	5.6107966915E+01	4.1800000000E+00	0.000E+00	0.0
	5	1	9	9	501	0	-1.1281625035E+02	-8.2153892438E+01	-2.3411756246E+02	2.7258993716E+02	4.1800000000E+00	0.000E+00	0.0
</event>
<event>
    11  -1  1.0000000E+00  1.0000000E+00  -1.0000000E+00  -1.0000000E+00
	2212	-1	0	0	0	0	0.0000000000E+00	0.0000000000E+00	6.5000000000E+03	6.5000000000E+03	9.3827000000E-01	0.000E+00	0.0
	2212	-1	0	0	0	0	0.0000000000E+00	0.0000000000E+00	-6.5000000000E+03	6.5000000000E+03	9.3827000000E-01	0.000E+00	0.0
	2212	1	0	0	0	0	0.0000000000E+00	0.0000000000E+00	5.8469690513E+03	5.8469690513E+03	9.3827000000E-01	0.000E+00	0.0
	2212	1	0	0	0	0	0.0000000000E+00	0.0000000000E+00	-6.0771168571E+03	6.0771168571E+03	9.3827000000E-01	0.000E+00	0.0
	51	2	1	2	0	0	1.0852684777E+01	-6.7271482485E+01	3.3153598030E+02	1.1041659564E+03	1.0510105232E+03	0.000E+00	0.0
	1000022	2	5	5	0	0	-1.0852684777E+01	6.7271482485E+01	9.2405989914E+01	8.7771320269E+02	8.7017145786E+02	0.000E+00	0.0
	14	1	6	6	0	0	-4.9856843696E+01	3.1537364378E+02	-4.8408604154E+00	4.5562558530E+02	3.2500000000E+02	0.000E+00	0.0
	-14	1	6	6	0	0	3.9004158919E+01	-2.4810216129E+02	9.7246850329E+01	4.2208761738E+02	3.2500000000E+02	0.000E+00	0.0
	25	2	5	5	0	0	1.0852684777E+01	-6.7271482485E+01	1.3774181585E+02	1.9820088887E+02	1.2517008985E+02	0.000E+00	0.0
	-5	1	9	9	0	501	-1.2938851475E+01	-9.9113843135E+01	8.0614061432E+01	1.2847983141E+02	4.1800000000E+00	0.000E+00	0.0
	5	1	9	9	501	0	2.3791536252E+01	3.1842360650E+01	5.7127754418E+01	6.9721057463E+01	4.1800000000E+00	0.000E+00	0.0
</event>
<event>
    11  -1  1.0000000E+00  1.0000000E+00  -1.0000000E+00  -1.0000000E+00
	2212	-1	0	0	0	0	0.0000000000E+00	0.0000000000E+00	6.5000000000E+03	6.5000000000E+03	9.3827000000E-01	0.000E+00	0.0
	2212	-1	0	0	0	0	0.0000000000E+00	0.0000000000E+00	-6.5000000000E+03	6.5000000000E+03	9.3827000000E-01	0.000E+00	0.0
	2212	1	0	0	0	0	0.0000000000E+00	0.0000000000E+00	5.0562032312E+03	5.0562032312E+03	9.3827000000E-01	0.000E+00	0.0
	2212	1	0	0	0	0	0.0000000000E+00	0.0000000000E+00	-6.3015232615E+03	6.3015232615E+03	9.3827000000E-01	0.000E+00	0.0
	51	2	1	2	0	0	5.1144494712E-01	-6.5395052765E+01	1.4517515666E+03	1.8050206871E+03	1.0706261229E+03	0.000E+00	0.0
	1000022	2	5	5	0	0	-5.1144494712E-01	6.5395052765E+01	8.2877714990E+02	1.2024406906E+03	8.6874350395E+02	0.000E+00	0.0
	14	1	6	6	0	0	-2.9915276964E+01	-1.7648177229E+02	1.2807472631E+02	3.9251608281E+02	3.2500000000E+02	0.000E+00	0.0
	-14	1	6	6	0	0	2.9403832017E+01	2.4187682505E+02	7.0070242359E+02	8.0992460776E+02	3.2500000000E+02	0.000E+00	0.0
	25	2	5	5	0	0	5.1144494712E-01	-6.5395052765E+01	4.1654288035E+02	4.3983281673E+02	1.2517252493E+02	0.000E+00	0.0
	-5	1	9	9	0	501	1.3598636721E+01	2.2856208192E+00	3.2420890976E+02	3.2452894563E+02	4.1800000000E+00	0.000E+00	0.0
	5	1	9	9	501	0	-1.3087191774E+01	-6.7680673585E+01	9.2333970593E+01	1.1530387110E+02	4.1800000000E+00	0.000E+00	0.0
</event>
<event>
    11  -1  1.0000000E+00  1.0000000E+00  -1.0000000E+00  -1.0000000E+00
	2212	-1	0	0	0	0	0.0000000000E+00	0.0000000000E+00	6.5000000000E+03	6.5000000000E+03	9.3827000000E-01	0.000E+00	0.0
	2212	-1	0	0	0	0	0.0000000000E+00	0.0000000000E+00	-6.5000000000E+03	6.5000000000E+03	9.3827000000E-01	0.000E+00	0.0
	2212	1	0	0	0	0	0.0000000000E+00	0.0000000000E+00	6.1744090560E+03	6.1744090560E+03	9.3827000000E-01	0.000E+00	0.0
	2212	1	0	0	0	0	0.0000000000E+00	0.0000000000E+00	-5.7016525629E+03	5.7016525629E+03	9.3827000000E-01	0.000E+00	0.0
	51	2	1	2	0	0	-1.6904771840E+01	8.1697630229E+01	-4.1715434654E+02	1.1048605367E+03	1.0196758223E+03	0.000E+00	0.0
	1000022	2	5	5	0	0	1.6904771840E+01	-8.1697630229E+01	-4.5670607560E+02	9.7266834419E+02	8.5471807879E+02	0.000E+00	0.0
	14	1	6	6	0	0	1.5127471982E+02	-3.9485037618E+00	3.8247103211E+01	3.6053775453E+02	3.2500000000E+02	0.000E+00	0.0
	-14	1	6	6	0	0	-1.3436994798E+02	-7.7749126467E+01	-4.9495317881E+02	6.1213058966E+02	3.2500000000E+02	0.000E+00	0.0
	25	2	5	5	0	0	-1.6904771840E+01	8.1697630229E+01	-1.6050417539E+01	1.5127003685E+02	1.2515883528E+02	0.000E+00	0.0
	-5	1	9	9	0	501	5.2984607625E+01	4.4117704320E+01	-1.9370000362E+01	7.1738481958E+01	4.1800000000E+00	0.000E+00	0.0
	5	1	9	9	501	0	-6.9889379465E+01	3.7579925909E+01	3.3195828227E+00	7.9531554892E+01	4.1800000000E+00	0.000E+00	0.0
</event>
<event>
    11  -1  1.0000000E+00  1.0000000E+00  -1.0000000E+00  -1.0000000E+00
	2212	-1	0	0	0	0	0.0000000000E+00	0.0000000000E+00	6.5000000000E+03	6.5000000000E+03	9.3827000000E-01	0.000E+00	0.0
	2212	-1	0	0	0	0	0.0000000000E+00	0.0000000000E+00	-6.5000000000E+03	6.5000000000E+03	9.3827000000E-01	0.000E+00	0.0
	2212	1	0	0	0	0	0.0000000000E+00	0.0000000000E+00	6.2609173327E+03	6.2609173327E+03	9.3827000000E-01	0.000E+00	0.0
	2212	1	0	0	0	0	0.0000000000E+00	0.0000000000E+00	-5.3520533875E+03	5.3520533875E+03	9.3827000000E-01	0.000E+00	0.0
	51	2	1	2	0	0	-1.6730144802E+01	1.0534232436E+01	-1.0904702385E+03	1.5123930577E+03	1.0477674133E+03	0.000E+00	0.0
	1000022	2	5	5	0	0	1.6730144802E+01	-1.0534232436E+01	-5.7604348943E+02	1.0308955699E+03	8.5470972066E+02	0.000E+00	0.0
	14	1	6	6	0	0	-1.1795984676E+01	2.6715267032E+02	-3.4459433558E+02	5.4394848160E+02	3.2500000000E+02	0.000E+00	0.0
	-14	1	6	6	0	0	2.8526129478E+01	-2.7768690276E+02	-2.3144915384E+02	4.8694708834E+02	3.2500000000E+02	0.000E+00	0.0
	25	2	5	5	0	0	-1.6730144802E+01	1.0534232436E+01	-3.3282045574E+02	3.5613370990E+02	1.2518344847E+02	0.000E+00	0.0
	-5	1	9	9	0	501	3.7153554693E+01	4.5087183302E+01	-2.0374918409E+02	2.1200104514E+02	4.1800000000E+00	0.000E+00	0.0
	5	1	9	9	501	0	-5.3883699495E+01	-3.4552950866E+01	-1.2907127165E+02	1.4413266476E+02	4.1800000000E+00	0.000E+00	0.0
</event>
<event>
    11  -1  1.0000000E+00  1.0000000E+00  -1.0000000E+00  -1.0000000E+00
	2212	-1	0	0	0	0	0.0000000000E+00	0.0000000000E+00	6.5000000000E+03	6.5000000000E+03	9.3827000000E-01	0.000E+00	0.0
	2212	-1	0	0	0	0	0.0000000000E+00	0.0000000000E+00	-6.5000000000E+03	6.5000000000E+03	9.3827000000E-01	0.000E+00	0.0
	2212	1	0	0	0	0	0.0000000000E+00	0.0000000000E+00	5.9171022401E+03	5.9171022401E+03	9.3827000000E-01	0.000E+00	0.0
	2212	1	0	0	0	0	0.0000000000E+00	0.0000000000E+00	-6.0406964332E+03	6.0406964332E+03	9.3827000000E-01	0.000E+00	0.0
	51	2	1	2	0	0	1.0585805612E+02	-3.3951493656E+01	-3.3143200198E+01	1.0413285670E+03	1.0348468876E+03	0.000E+00	0.0
	1000022	2	5	5	0	0	-1.0585805612E+02	3.3951493656E+01	2.5498761444E+02	8.2936241923E+02	7.8132240909E+02	0.000E+00	0.0
	14	1	6	6	0	0	-6.7387946318E+01	4.3748989721E+00	3.5486523797E+02	4.8591626045E+02	3.2500000000E+02	0.000E+00	0.0
	-14	1	6	6	0	0	-3.8470109806E+01	2.9576594683E+01	-9.9877623531E+01	3.4344615878E+02	3.2500000000E+02	0.000E+00	0.0
	25	2	5	5	0	0	1.0585805612E+02	-3.3951493656E+01	-1.3139342142E+02	2.1283890745E+02	1.2520997311E+02	0.000E+00	0.0
	-5	1	9	9	0	501	-1.9357221320E+01	-1.6716408799E+00	-6.3892158032E+01	6.6911707932E+01	4.1800000000E+00	0.000E+00	0.0
	5	1	9	9	501	0	1.2521527744E+02	-3.2279852776E+01	-6.7501263384E+01	1.4592719952E+02	4.1800000000E+00	0.000E+00	0.0
</event>
<event>
    11  -1  1.0000000E+00  1.0000000E+00  -1.0000000E+00  -1.0000000E+00
	2212	-1	0	0	0	0	0.0000000000E+00	0.0000000000E+00	6.5000000000E+03	6.5000000000E+03	9.3827000000E-01	0.000E+00	0.0
	2212	-1	0	0	0	0	0.0000000000E+00	0.0000000000E+00	-6.5000000000E+03	6.5000000000E+03	9.3827000000E-01	0.000E+00	0.0
	2212	1	0	0	0	0	0.0000000000E+00	0.0000000000E+00	6.3073684494E+03	6.3073684494E+03	9.3827000000E-01	0.000E+00	0.0
	2212	1	0	0	0	0	0.0000000000E+00	0.0000000000E+00	-5.0572512597E+03	5.0572512597E+03	9.3827000000E-01	0.000E+00	0.0
	51	2	1	2	0	0	-3.4885379673E+01	1.0201165281E+02	-1.4004147875E+03	1.7562632639E+03	1.0543603312E+03	0.000E+00	0.0
	1000022	2	5	5	0	0	3.4885379673E+01	-1.0201165281E+02	-8.8791742320E+02	1.2372908023E+03	8.5490807230E+02	0.000E+00	0.0
	14	1	6	6	0	0	-1.2185072870E+01	-2.9571795460E+02	-6.6035222442E+02	7.9327652491E+02	3.2500000000E+02	0.000E+00	0.0
	-14	1	6	6	0	0	4.7070452542E+01	1.9370630179E+02	-2.2756519878E+02	4.4401427742E+02	3.2500000000E+02	0.000E+00	0.0
	25	2	5	5	0	0	-3.4885379673E+01	1.0201165281E+02	-3.6219976652E+02	3.9808948861E+02	1.2515271893E+02	0.000E+00	0.0
	-5	1	9	9	0	501	1.1668244409E+01	1.0720345522E+02	-1.7958206087E+02	2.0951352636E+02	4.1800000000E+00	0.000E+00	0.0
	5	1	9	9	501	0	-4.6553624081E+01	-5.1918024065E+00	-1.8261770564E+02	1.8857596226E+02	4.1800000000E+00	0.000E+00	0.0
</event>
<event>
    11  -1  1.0000000E+00  1.0000000E+00  -1.0000000E+00  -1.0000000E+00
	2212	-1	0	0	0	0	0.0000000000E+00	0.0000000000E+00	6.5000000000E+03	6.5000000000E+03	9.3827000000E-01	0.000E+00	0.0
	2212	-1	0	0	0	0	0.0000000000E+00	0.0000000000E+00	-6.5000000000E+03	6.5000000000E+03	9.3827000000E-01	0.000E+00	0.0
	2212	1	0	0	0	0	0.0000000000E+00	0.0000000000E+00	5.2330762657E+03	5.2330762657E+03	9.3827000000E-01	0.000E+00	0.0
	2212	1	0	0	0	0	0.0000000000E+00	0.0000000000E+00	-6.2848371145E+03	6.2848371145E+03	9.3827000000E-01	0.000E+00	0.0
	51	2	1	2	0	0	6.0576498816E+00	1.2757272070E+02	1.1467781504E+03	1.5562106174E+03	1.0442125575E+03	0.000E+00	0.0
	1000022	2	5	5	0	0	-6.0576498816E+00	-1.2757272070E+02	7.7625216813E+02	1.1536235693E+03	8.4378220948E+02	0.000E+00	0.0
	14	1	6	6	0	0	-8.2712181666E+01	-2.8852479002E+02	5.9377297883E+02	7.4045878335E+02	3.2500000000E+02	0.000E+00	0.0
	-14	1	6	6	0	0	7.6654531784E+01	1.6095206932E+02	1.8247918930E+02	4.1316478600E+02	3.2500000000E+02	0.000E+00	0.0
	25	2	5	5	0	0	6.0576498816E+00	1.2757272070E+02	2.7550868072E+02	3.2846305041E+02	1.2518565470E+02	0.000E+00	0.0
	-5	1	9	9	0	501	-4.8044451408E+01	2.4720881258E+01	1.3868736963E+02	1.4889946332E+02	4.1800000000E+00	0.000E+00	0.0
	5	1	9	9	501	0	5.4102101290E+01	1.0285183944E+02	1.3682131109E+02	1.7956358709E+02	4.1800000000E+00	0.000E+00	0.0
</event>
<event>
    11  -1  1.0000000E+00  1.0000000E+00  -1.0000000E+00  -1.0000000E+00
	2212	-1	0	0	0	0	0.0000000000E+00	0.0000000000E+00	6.5000000000E+03	6.5000000000E+03	9.3827000000E-01	0.000E+00	0.0
	2212	-1	0	0	0	0	0.0000000000E+00	0.0000000000E+00	-6.5000000000E+03	6.5000000000E+03	9.3827000000E-01	0.000E+00	0.0
	2212	1	0	0	0	0	0.0000000000E+00	0.0000000000E+00	5.1697698394E+03	5.1697698394E+03	9.3827000000E-01	0.000E+00	0.0
	2212	1	0	0	0	0	0.0000000000E+00	0.0000000000E+00	-6.2971290036E+03	6.2971290036E+03	9.3827000000E-01	0.000E+00	0.0
	51	2	1	2	0	0	1.0168204556E+02	-6.5917912240E+01	1.0739308435E+03	1.4991572095E+03	1.0389708719E+03	0.000E+00	0.0
	1000022	2	5	5	0	0	-1.0168204556E+02	6.5917912240E+01	9.9488169160E+02	1.3142309210E+03	8.5013465040E+02	0.000E+00	0.0
	14	1	6	6	0	0	1.0947296502E+02	2.5500139787E+02	5.0680714155E+02	6.6293930470E+02	3.2500000000E+02	0.000E+00	0.0
	-14	1	6	6	0	0	-2.1115501057E+02	-1.8908348563E+02	4.8807455005E+02	6.5129161628E+02	3.2500000000E+02	0.000E+00	0.0
	25	2	5	5	0	0	1.0168204556E+02	-6.5917912240E+01	1.3247747258E+02	2.1887023609E+02	1.2517783335E+02	0.000E+00	0.0
	-5	1	9	9	0	501	-2.1142422448E+01	-1.1562352772E+01	6.3024662316E+01	6.7603775698E+01	4.1800000000E+00	0.000E+00	0.0
	5	1	9	9	501	0	1.2282446801E+02	-5.4355559468E+01	6.9452810261E+01	1.5126646039E+02	4.1800000000E+00	0.000E+00	0.0
</event>
<event>
    11  -1  1.0000000E+00  1.0000000E+00  -1.0000000E+00  -1.0000000E+00
	2212	-1	0	0	0	0	0.0000000000E+00	0.0000000000E+00	6.5000000000E+03	6.5000000000E+03	9.3827000000E-01	0.000E+00	0.0
	2212	-1	0	0	0	0	0.0000000000E+00	0.0000000000E+00	-6.5000000000E+03	6.5000000000E+03	9.3827000000E-01	0.000E+00	0.0
	2212	1	0	0	0	0	0.0000000000E+00	0.0000000000E+00	5.0149376462E+03	5.0149376462E+03	9.3827000000E-01	0.000E+00	0.0
	2212	1	0	0	0	0	0.0000000000E+00	0.0000000000E+00	-6.3010111351E+03	6.3010111351E+03	9.3827000000E-01	0.000E+00	0.0
	51	2	1	2	0	0	5.0368233959E+01	1.7262797483E+02	1.2665720571E+03	1.6788643902E+03	1.0872182339E+03	0.000E+00	0.0
	1000022	2	5	5	0	0	-5.0368233959E+01	-1.7262797483E+02	1.0626025406E+03	1.3710774317E+03	8.4757995941E+02	0.000E+00	0.0
	14	1	6	6	0	0	-7.9116717311E+01	2.2885663860E+01	8.9441255302E+02	9.5518690505E+02	3.2500000000E+02	0.000E+00	0.0
	-14	1	6	6	0	0	2.8748483352E+01	-1.9551363869E+02	1.6818998762E+02	4.1589052664E+02	3.2500000000E+02	0.000E+00	0.0
	25	2	5	5	0	0	5.0368233959E+01	1.7262797483E+02	2.2347094824E+02	3.1297378694E+02	1.2520363382E+02	0.000E+00	0.0
	-5	1	9	9	0	501	7.3719169637E+01	1.7902317415E+02	1.8860128891E+02	2.7031783410E+02	4.1800000000E+00	0.000E+00	0.0
	5	1	9	9	501	0	-2.3350935678E+01	-6.3951993184E+00	3.4869659323E+01	4.2655952840E+01	4.1800000000E+00	0.000E+00	0.0
</event>
<event>
    11  -1  1.0000000E+00  1.0000000E+00  -1.0000000E+00  -1.0000000E+00
	2212	-1	0	0	0	0	0.0000000000E+00	0.0000000000E+00	6.5000000000E+03	6.5000000000E+03	9.3827000000E-01	0.000E+00	0.0
	2212	-1	0	0	0	0	0.0000000000E+00	0.0000000000E+00	-6.5000000000E+03	6.5000000000E+03	9.3827000000E-01	0.000E+00	0.0
	2212	1	0	0	0	0	0.0000000000E+00	0.0000000000E+00	5.9660652436E+03	5.9660652436E+03	9.3827000000E-01	0.000E+00	0.0
	2212	1	0	0	0	0	0.0000000000E+00	0.0000000000E+00	-5.9840269022E+03	5.9840269022E+03	9.3827000000E-01	0.000E+00	0.0
	51	2	1	2	0	0	-3.5360371430E+01	1.1342558852E+02	-6.1780625915E+01	1.0582610486E+03	1.0497542004E+03	0.000E+00	0.0
	1000022	2	5	5	0	0	3.5360371430E+01	-1.1342558852E+02	9.4616345457E+01	8.6107617600E+02	8.4757548811E+02	0.000E+00	0.0
	14	1	6	6	0	0	1.4010084303E+02	-3.0151922737E+02	7.3041917293E+01	4.7064021542E+02	3.2500000000E+02	0.000E+00	0.0
	-14	1	6	6	0	0	-1.0474047160E+02	1.8809363884E+02	2.1574428164E+01	3.9043596058E+02	3.2500000000E+02	0.000E+00	0.0
	25	2	5	5	0	0	-3.5360371430E+01	1.1342558852E+02	-7.6654686919E+01	1.8883167821E+02	1.2516286059E+02	0.000E+00	0.0
	-5	1	9	9	0	501	2.3341957953E+01	8.0415598010E+01	-8.6705919389E+01	1.2061054789E+02	4.1800000000E+00	0.000E+00	0.0
	5	1	9	9	501	0	-5.8702329383E+01	3.3009990512E+01	1.0051232469E+01	6.8221130324E+01	4.1800000000E+00	0.000E+00	0.0
</event>
<event>
    11  -1  1.0000000E+00  1.0000000E+00  -1.0000000E+00  -1.0000000E+00
	2212	-1	0	0	0	0	0.0000000000E+00	0.0000000000E+00	6.5000000000E+03	6.5000000000E+03	9.3827000000E-01	0.000E+00	0.0
	2212	-1	0	0	0	0	0.0000000000E+00	0.0000000000E+00	-6.5000000000E+03	6.5000000000E+03	9.3827000000E-01	0.000E+00	0.0
	2212	1	0	0	0	0	0.0000000000E+00	0.0000000000E+00	5.3124828478E+03	5.3124828478E+03	9.3827000000E-01	0.000E+00	0.0
	2212	1	0	0	0	0	0.0000000000E+00	0.0000000000E+00	-6.2686636240E+03	6.2686636240E+03	9.3827000000E-01	0.000E+00	0.0
	51	2	1	2	0	0	1.8017103825E+02	-5.8400966987E+01	1.0173162734E+03	1.4729794071E+03	1.0482669783E+03	0.000E+00	0.0
	1000022	2	5	5	0	0	-1.8017103825E+02	5.8400966987E+01	7.0171237482E+02	1.0778456286E+03	7.9591373027E+02	0.000E+00	0.0
	14	1	6	6	0	0	4.1084329077E+01	-1.4599628011E+02	4.2204671504E+02	5.5385130277E+02	3.2500000000E+02	0.000E+00	0.0
	-14	1	6	6	0	0	-2.2125536733E+02	2.0439724710E+02	2.7966565978E+02	5.2399432578E+02	3.2500000000E+02	0.000E+00	0.0
	25	2	5	5	0	0	1.8017103825E+02	-5.8400966987E+01	2.5446840141E+02	3.4100789971E+02	1.2513969944E+02	0.000E+00	0.0
	-5	1	9	9	0	501	7.2926999684E+01	-8.5493135752E+01	1.5953246642E+02	1.9518069522E+02	4.1800000000E+00	0.000E+00	0.0
	5	1	9	9	501	0	1.0724403857E+02	2.7092168766E+01	9.4935934995E+01	1.4582720449E+02	4.1800000000E+00	0.000E+00	0.0
</event>
<event>
    11  -1  1.0000000E+00  1.0000000E+00  -1.0000000E+00  -1.0000000E+00
	2212	-1	0	0	0	0	0.0000000000E+00	0.0000000000E+00	6.5000000000E+03	6.5000000000E+03	9.3827000000E-01	0.000E+00	0.0
	2212	-1	0	0	0	0	0.0000000000E+00	0.0000000000E+00	-6.5000000000E+03	6.5000000000E+03	9.3827000000E-01	0.000E+00	0.0
	2212	1	0	0	0	0	0.0000000000E+00	0.0000000000E+00	5.2143399948E+03	5.2143399948E+03	9.3827000000E-01	0.000E+00	0.0
	2212	1	0	0	0	0	0.0000000000E+00	0.0000000000E+00	-6.2918131880E+03	6.2918131880E+03	9.3827000000E-01	0.000E+00	0.0
	51	2	1	2	0	0	2.8135467026E+01	-1.1197032438E+02	1.0277099434E+03	1.4629239615E+03	1.0347124389E+03	0.000E+00	0.0
	1000022	2	5	5	0	0	-2.8135467026E+01	1.1197032438E+02	9.5263612803E+02	1.2826976415E+03	8.5115726451E+02	0.000E+00	0.0
	14	1	6	6	0	0	-2.5250088766E+02	1.0518369542E+02	6.8346989880E+02	8.0472132482E+02	3.2500000000E+02	0.000E+00	0.0
	-14	1	6	6	0	0	2.2436542064E+02	6.7866289623E+00	2.6916622923E+02	4.7797631664E+02	3.2500000000E+02	0.000E+00	0.0
	25	2	5	5	0	0	2.8135467026E+01	-1.1197032438E+02	1.2483706515E+02	2.1114917571E+02	1.2518276048E+02	0.000E+00	0.0
	-5	1	9	9	0	501	1.1333038104E+01	-1.5710719772E+01	-2.5193946457E+01	3.2054201074E+01	4.1800000000E+00	0.000E+00	0.0
	5	1	9	9	501	0	1.6802428921E+01	-9.6259604613E+01	1.5003101160E+02	1.7909497464E+02	4.1800000000E+00	0.000E+00	0.0
</event>
<event>
    11  -1  1.0000000E+00  1.0000000E+00  -1.0000000E+00  -1.0000000E+00
	2212	-1	0	0	0	0	0.0000000000E+00	0.0000000000E+00	6.5000000000E+03	6.5000000000E+03	9.3827000000E-01	0.000E+00	0.0
	2212	-1	0	0	0	0	0.0000000000E+00	0.0000000000E+00	-6.5000000000E+03	6.5000000000E+03	9.3827000000E-01	0.000E+00	0.0
	2212	1	0	0	0	0	0.0000000000E+00	0.0000000000E+00	5.4279998186E+03	5.4279998186E+03	9.3827000000E-01	0.000E+00	0.0
	2212	1	0	0	0	0	0.0000000000E+00	0.0000000000E+00	-6.2417456270E+03	6.2417456270E+03	9.3827000000E-01	0.000E+00	0.0
	51	2	1	2	0	0	-4.1070278633E+01	1.0378749332E+02	6.8752314302E+02	1.2619594378E+03	1.0523283418E+03	0.000E+00	0.0
	1000022	2	5	5	0	0	4.1070278633E+01	-1.0378749332E+02	7.9494984085E+02	1.1614833848E+03	8.3942825307E+02	0.000E+00	0.0
	14	1	6	6	0	0	1.4150632462E+02	1.3544795396E+02	1.8221125687E+02	4.2094670716E+02	3.2500000000E+02	0.000E+00	0.0
	-14	1	6	6	0	0	-1.0043604598E+02	-2.3923544728E+02	6.1273858398E+02	7.4053667760E+02	3.2500000000E+02	0.000E+00	0.0
	25	2	5	5	0	0	-4.1070278633E+01	1.0378749332E+02	1.8795967470E+01	1.6877116965E+02	1.2518709101E+02	0.000E+00	0.0
	-5	1	9	9	0	501	-2.9000683527E+01	7.9433970822E+01	-4.7441941659E+01	9.7051561522E+01	4.1800000000E+00	0.000E+00	0.0
	5	1	9	9	501	0	-1.2069595107E+01	2.4353522496E+01	6.6237909130E+01	7.1719608127E+01	4.1800000000E+00	0.000E+00	0.0
</event>
<event>
    11  -1  1.0000000E+00  1.0000000E+00  -1.0000000E+00  -1.0000000E+00
	2212	-1	0	0	0	0	0.0000000000E+00	0.0000000000E+00	6.5000000000E+03	6.5000000000E+03	9.3827000000E-01	0.000E+00	0.0
	2212	-1	0	0	0	0	0.0000000000E+00	0.0000000000E+00	-6.5000000000E+03	6.5000000000E+03	9.3827000000E-01	0.000E+00	0.0
	2212	1	0	0	0	0	0.0000000000E+00	0.0000000000E+00	6.1700275978E+03	6.1700275978E+03	9.3827000000E-01	0.000E+00	0.0
	2212	1	0	0	0	0	0.0000000000E+00	0.0000000000E+00	-5.6975273688E+03	5.6975273688E+03	9.3827000000E-01	0.000E+00	0.0
	51	2	1	2	0	0	2.9765942488E+01	6.6373574591E+01	-3.2309770798E+02	1.0811377706E+03	1.0291624203E+03	0.000E+00	0.0
	1000022	2	5	5	0	0	-2.9765942488E+01	-6.6373574591E+01	-5.3474245401E+02	9.7485452584E+02	8.1184998102E+02	0.000E+00	0.0
	14	1	6	6	0	0	1.3769769162E+02	-4.7727780470E+01	-4.9039566522E+02	6.0609529265E+02	3.2500000000E+02	0.000E+00	0.0
	-14	1	6	6	0	0	-1.6746363410E+02	-1.8645794121E+01	-4.4346788788E+01	3.6875923319E+02	3.2500000000E+02	0.000E+00	0.0
	25	2	5	5	0	0	2.9765942488E+01	6.6373574591E+01	6.2242224985E+01	1.5759050759E+02	1.2517671819E+02	0.000E+00	0.0
	-5	1	9	9	0	501	3.2057504680E+01	7.4381530991E+01	9.4198789859E+01	1.2430277619E+02	4.1800000000E+00	0.000E+00	0.0
	5	1	9	9	501	0	-2.2915621929E+00	-8.0079563996E+00	-3.1956564874E+01	3.3287731397E+01	4.1800000000E+00	0.000E+00	0.0
</event>
<event>
    11  -1  1.0000000E+00  1.0000000E+00  -1.0000000E+00  -1.0000000E+00
	2212	-1	0	0	0	0	0.0000000000E+00	0.0000000000E+00	6.5000000000E+03	6.5000000000E+03	9.3827000000E-01	0.000E+00	0.0
	2212	-1	0	0	0	0	0.0000000000E+00	0.0000000000E+00	-6.5000000000E+03	6.5000000000E+03	9.3827000000E-01	0.000E+00	0.0
	2212	1	0	0	0	0	0.0000000000E+00	0.0000000000E+00	6.1021007774E+03	6.1021007774E+03	9.3827000000E-01	0.000E+00	0.0
	2212	1	0	0	0	0	0.0000000000E+00	0.0000000000E+00	-5.7408194202E+03	5.7408194202E+03	9.3827000000E-01	0.000E+00	0.0
	51	2	1	2	0	0	-6.5544053961E+01	7.7762964316E+01	-1.7079694151E+02	1.1170604938E+03	1.0992312996E+03	0.000E+00	0.0
	1000022	2	5	5	0	0	6.5544053961E+01	-7.7762964316E+01	-4.7724662708E+02	9.5843581744E+02	8.2491925148E+02	0.000E+00	0.0
	14	1	6	6	0	0	2.6061481108E+02	4.3732764207E+01	-1.5618949308E+02	4.4704898184E+02	3.2500000000E+02	0.000E+00	0.0
	-14	1	6	6	0	0	-1.9507075712E+02	-1.2149572852E+02	-3.2105713400E+02	5.1138683560E+02	3.2500000000E+02	0.000E+00	0.0
	25	2	5	5	0	0	-6.5544053961E+01	7.7762964316E+01	1.1596526984E+02	1.9864398495E+02	1.2517342897E+02	0.000E+00	0.0
	-5	1	9	9	0	501	-1.0620977937E+01	-2.3369894883E+01	6.9953787125E+01	7.4632177325E+01	4.1800000000E+00	0.000E+00	0.0
	5	1	9	9	501	0	-5.4923076023E+01	1.0113285920E+02	4.6011482713E+01	1.2401180763E+02	4.1800000000E+00	0.000E+00	0.0
</event>
<event>
    11  -1  1.0000000E+00  1.0000000E+00  -1.0000000E+00  -1.0000000E+00
	2212	-1	0	0	0	0	0.0000000000E+00	0.0000000000E+00	6.5000000000E+03	6.5000000000E+03	9.3827000000E-01	0.000E+00	0.0
	2212	-1	0	0	0	0	0.0000000000E+00	0.0000000000E+00	-6.5000000000E+03	6.5000000000E+03	9.3827000000E-01	0.000E+00	0.0
	2212	1	0	0	0	0	0.0000000000E+00	0.0000000000E+00	5.9258950401E+03	5.9258950401E+03	9.3827000000E-01	0.000E+00	0.0
	2212	1	0	0	0	0	0.0000000000E+00	0.0000000000E+00	-6.0233908267E+03	6.0233908267E+03	9.3827000000E-01	0.000E+00	0.0
	51	2	1	2	0	0	-1.0744270941E+02	-2.2368183455E+01	1.6912242033E+02	1.0654301600E+03	1.0461810366E+03	0.000E+00	0.0
	1000022	2	5	5	0	0	1.0744270941E+02	2.2368183455E+01	9.7744352389E+00	8.6254499739E+02	8.5547884925E+02	0.000E+00	0.0
	14	1	6	6	0	0	2.1841814031E+02	-1.7911660683E+02	-1.1427285486E+02	4.4550255692E+02	3.2500000000E+02	0.000E+00	0.0
	-14	1	6	6	0	0	-1.1097543090E+02	2.0148479028E+02	1.2404729010E+02	4.1704244048E+02	3.2500000000E+02	0.000E+00	0.0
	25	2	5	5	0	0	-1.0744270941E+02	-2.2368183455E+01	8.7721351374E+01	1.8816913584E+02	1.2517314712E+02	0.000E+00	0.0
	-5	1	9	9	0	501	7.1486630177E+00	-4.6900518108E+01	1.3932401372E+01	4.9622033310E+01	4.1800000000E+00	0.000E+00	0.0
	5	1	9	9	501	0	-1.1459137243E+02	2.4532334654E+01	7.3788950002E+01	1.3854710254E+02	4.1800000000E+00	0.000E+00	0.0
</event>
<event>
    11  -1  1.0000000E+00  1.0000000E+00  -1.0000000E+00  -1.0000000E+00
	2212	-1	0	0	0	0	0.0000000000E+00	0.0000000000E+00	6.5000000000E+03	6.5000000000E+03	9.3827000000E-01	0.000E+00	0.0
	2212	-1	0	0	0	0	0.0000000000E+00	0.0000000000E+00	-6.5000000000E+03	6.5000000000E+03	9.3827000000E-01	0.000E+00	0.0
	2212	1	0	0	0	0	0.0000000000E+00	0.0000000000E+00	5.9739456628E+03	5.9739456628E+03	9.3827000000E-01	0.000E+00	0.0
	2212	1	0	0	0	0	0.0000000000E+00	0.0000000000E+00	-6.0696443407E+03	6.0696443407E+03	9.3827000000E-01	0.000E+00	0.0
	51	2	1	2	0	0	1.0827766844E+01	6.7453612095E+01	2.9793137339E+02	9.9949596196E+02	9.5161013257E+02	0.000E+00	0.0
	1000022	2	5	5	0	0	-1.0827766844E+01	-6.7453612095E+01	-1.2883889437E+02	6.9040969560E+02	6.7483246570E+02	0.000E+00	0.0
	14	1	6	6	0	0	-8.4140213917E+01	-2.2462833143E+01	-2.0076768009E+01	3.3706413497E+02	3.2500000000E+02	0.000E+00	0.0
	-14	1	6	6	0	0	7.3312447073E+01	-4.4990778952E+01	-1.0876212636E+02	3.5334556063E+02	3.2500000000E+02	0.000E+00	0.0
	25	2	5	5	0	0	1.0827766844E+01	6.7453612095E+01	2.2453757230E+02	2.6600030088E+02	1.2518709347E+02	0.000E+00	0.0
	-5	1	9	9	0	501	2.3704477465E+01	-3.1304456183E+01	3.9687706802E+01	5.5986227771E+01	4.1800000000E+00	0.000E+00	0.0
	5	1	9	9	501	0	-1.2876710620E+01	9.8758068278E+01	1.8484986550E+02	2.1001407311E+02	4.1800000000E+00	0.000E+00	0.0
</event>
<event>
    11  -1  1.0000000E+00  1.0000000E+00  -1.0000000E+00  -1.0000000E+00
	2212	-1	0	0	0	0	0.0000000000E+00	0.0000000000E+00	6.5000000000E+03	6.5000000000E+03	9.3827000000E-01	0.000E+00	0.0
	2212	-1	0	0	0	0	0.0000000000E+00	0.0000000000E+00	-6.5000000000E+03	6.5000000000E+03	9.3827000000E-01	0.000E+00	0.0
	2212	1	0	0	0	0	0.0000000000E+00	0.0000000000E+00	6.1572680355E+03	6.1572680355E+03	9.3827000000E-01	0.000E+00	0.0
	2212	1	0	0	0	0	0.0000000000E+00	0.0000000000E+00	-5.6972326046E+03	5.6972326046E+03	9.3827000000E-01	0.000E+00	0.0
	51	2	1	2	0	0	1.0922330992E+02	-8.4763976615E+00	-3.6993421883E+02	1.1177607494E+03	1.0490644336E+03	0.000E+00	0.0
	1000022	2	5	5	0	0	-1.0922330992E+02	8.4763976615E+00	-4.7201938101E+02	9.7872409671E+02	8.5035109260E+02	0.000E+00	0.0
	14	1	6	6	0	0	-1.2869867948E+02	2.2058659386E+02	-6.9307691791E+01	4.1910661130E+02	3.2500000000E+02	0.000E+00	0.0
	-14	1	6	6	0	0	1.9475369562E+01	-2.1211019620E+02	-4.0271168921E+02	5.5961748541E+02	3.2500000000E+02	0.000E+00	0.0
	25	2	5	5	0	0	1.0922330992E+02	-8.4763976615E+00	1.1983950040E+01	1.6677526319E+02	1.2517504785E+02	0.000E+00	0.0
	-5	1	9	9	0	501	3.4792819007E+01	5.7069048836E+01	1.8597978367E+00	6.6995132938E+01	4.1800000000E+00	0.000E+00	0.0
	5	1	9	9	501	0	7.4430490916E+01	-6.5545446497E+01	1.0124152203E+01	9.9780130248E+01	4.1800000000E+00	0.000E+00	0.0
</event>
<event>
    11  -1  1.0000000E+00  1.0000000E+00  -1.0000000E+00  -1.0000000E+00
	2212	-1	0	0	0	0	0.0000000000E+00	0.0000000000E+00	6.5000000000E+03	6.5000000000E+03	9.3827000000E-01	0.000E+00	0.0
	2212	-1	0	0	0	0	0.0000000000E+00	0.0000000000E+00	-6.5000000000E+03	6.5000000000E+03	9.3827000000E-01	0.000E+00	0.0
	2212	1	0	0	0	0	0.0000000000E+00	0.0000000000E+00	5.1083285458E+03	5.1083285458E+03	9.3827000000E-01	0.000E+00	0.0
	2212	1	0	0	0	0	0.0000000000E+00	0.0000000000E+00	-6.3008453192E+03	6.3008453192E+03	9.3827000000E-01	0.000E+00	0.0
	51	2	1	2	0	0	1.0797893621E+02	-6.5415209104E+01	1.2589484256E+03	1.6460623547E+03	1.0529157311E+03	0.000E+00	0.0
	1000022	2	5	5	0	0	-1.0797893621E+02	6.5415209104E+01	9.2952771071E+02	1.2733808859E+03	8.6112630620E+02	0.000E+00	0.0
	14	1	6	6	0	0	-4.6406388299E+01	1.1085599041E+02	7.3051609051E+01	3.5412447115E+02	3.2500000000E+02	0.000E+00	0.0
	-14	1	6	6	0	0	-6.1572547915E+01	-4.5440781302E+01	8.5647610165E+02	9.1925641470E+02	3.2500000000E+02	0.000E+00	0.0
	25	2	5	5	0	0	1.0797893621E+02	-6.5415209104E+01	2.6298906277E+02	3.1744524916E+02	1.2517842798E+02	0.000E+00	0.0
	-5	1	9	9	0	501	1.1183963331E+02	-3.8330468450E-01	1.7832470257E+02	2.1053603598E+02	4.1800000000E+00	0.000E+00	0.0
	5	1	9	9	501	0	-3.8606970949E+00	-6.5031904420E+01	8.4664360199E+01	1.0690921318E+02	4.1800000000E+00	0.000E+00	0.0
</event>
<event>
    11  -1  1.0000000E+00  1.0000000E+00  -1.0000000E+00  -1.0000000E+00
	2212	-1	0	0	0	0	0.0000000000E+00	0.0000000000E+00	6.5000000000E+03	6.5000000000E+03	9.3827000000E-01	0.000E+00	0.0
	2212	-1	0	0	0	0	0.0000000000E+00	0.0000000000E+00	-6.5000000000E+03	6.5000000000E+03	9.3827000000E-01	0.000E+00	0.0
	2212	1	0	0	0	0	0.0000000000E+00	0.0000000000E+00	6.2817503937E+03	6.2817503937E+03	9.3827000000E-01	0.000E+00	0.0
	2212	1	0	0	0	0	0.0000000000E+00	0.0000000000E+00	-5.2382712543E+03	5.2382712543E+03	9.3827000000E-01	0.000E+00	0.0
	51	2	1	2	0	0	-1.6542412393E+01	-4.0577891723E+00	-8.5453102221E+02	1.3535141642E+03	1.0495176072E+03	0.000E+00	0.0
	1000022	2	5	5	0	0	1.6542412393E+01	4.0577891723E+00	-1.0538875813E+03	1.3532176839E+03	8.4866303620E+02	0.000E+00	0.0
	14	1	6	6	0	0	2.7977408808E+02	2.6043348625E+01	-5.5449975804E+02	7.0146046077E+02	3.2500000000E+02	0.000E+00	0.0
	-14	1	6	6	0	0	-2.6323167568E+02	-2.1985559452E+01	-4.9938782322E+02	6.5175722312E+02	3.2500000000E+02	0.000E+00	0.0
	25	2	5	5	0	0	-1.6542412393E+01	-4.0577891723E+00	1.0408441801E+01	1.2676066808E+02	1.2517912865E+02	0.000E+00	0.0
	-5	1	9	9	0	501	-4.1633360267E+01	-2.9648842765E+01	5.1086498286E+01	7.2385725607E+01	4.1800000000E+00	0.000E+00	0.0
	5	1	9	9	501	0	2.5090947874E+01	2.5591053592E+01	-4.0678056486E+01	5.4374942470E+01	4.1800000000E+00	0.000E+00	0.0
</event>
<event>
    11  -1  1.0000000E+00  1.0000000E+00  -1.0000000E+00  -1.0000000E+00
	2212	-1	0	0	0	0	0.0000000000E+00	0.0000000000E+00	6.5000000000E+03	6.5000000000E+03	9.3827000000E-01	0.000E+00	0.0
	2212	-1	0	0	0	0	0.0000000000E+00	0.0000000000E+00	-6.5000000000E+03	6.5000000000E+03	9.3827000000E-01	0.000E+00	0.0
	2212	1	0	0	0	0	0.0000000000E+00	0.0000000000E+00	5.1161281326E+03	5.1161281326E+03	9.3827000000E-01	0.000E+00	0.0
	2212	1	0	0	0	0	0.0000000000E+00	0.0000000000E+00	-6.3008369600E+03	6.3008369600E+03	9.3827000000E-01	0.000E+00	0.0
	51	2	1	2	0	0	-5.0577657724E+01	-3.3076786654E+01	1.3678991987E+03	1.7254752689E+03	1.0499831011E+03	0.000E+00	0.0
	1000022	2	5	5	0	0	5.0577657724E+01	3.3076786654E+01	8.0671022547E+02	1.1802873531E+03	8.5944439881E+02	0.000E+00	0.0
	14	1	6	6	0	0	-1.4512611228E+02	-1.4153520892E+01	8.9087173110E+01	3.6718310831E+02	3.2500000000E+02	0.000E+00	0.0
	-14	1	6	6	0	0	1.9570377000E+02	4.7230307547E+01	7.1762305236E+02	8.1310424474E+02	3.2500000000E+02	0.000E+00	0.0
	25	2	5	5	0	0	-5.0577657724E+01	-3.3076786654E+01	3.7799860194E+02	4.0274755442E+02	1.2518177282E+02	0.000E+00	0.0
	-5	1	9	9	0	501	-5.4060368533E+01	3.7627414816E+01	1.4761737979E+02	1.6169944035E+02	4.1800000000E+00	0.000E+00	0.0
	5	1	9	9	501	0	3.4827108093E+00	-7.0704201470E+01	2.3038122215E+02	2.4104811407E+02	4.1800000000E+00	0.000E+00	0.0
</event>
<event>
    11  -1  1.0000000E+00  1.0000000E+00  -1.0000000E+00  -1.0000000E+00
	2212	-1	0	0	0	0	0.0000000000E+00	0.0000000000E+00	6.5000000000E+03	6.5000000000E+03	9.3827000000E-01	0.000E+00	0.0
	2212	-1	0	0	0	0	0.0000000000E+00	0.0000000000E+00	-6.5000000000E+03	6.5000000000E+03	9.3827000000E-01	0.000E+00	0.0
	2212	1	0	0	0	0	0.0000000000E+00	0.0000000000E+00	5.8109070511E+03	5.8109070511E+03	9.3827000000E-01	0.000E+00	0.0
	2212	1	0	0	0	0	0.0000000000E+00	0.0000000000E+00	-6.0917854681E+03	6.0917854681E+03	9.3827000000E-01	0.000E+00	0.0
	51	2	1	2	0	0	5.5982248238E+01	-1.2226167684E+02	3.5528659387E+02	1.1267215787E+03	1.0607502167E+03	0.000E+00	0.0
	1000022	2	5	5	0	0	-5.5982248238E+01	1.2226167684E+02	1.5732533417E+02	8.7589901949E+02	8.5109688157E+02	0.000E+00	0.0
	14	1	6	6	0	0	1.2754582783E+02	-8.8880897649E+01	-1.0242160992E+02	3.7454364011E+02	3.2500000000E+02	0.000E+00	0.0
	-14	1	6	6	0	0	-1.8352807607E+02	2.1114257449E+02	2.5974694409E+02	5.0135537938E+02	3.2500000000E+02	0.000E+00	0.0
	25	2	5	5	0	0	5.5982248238E+01	-1.2226167684E+02	1.2355308279E+02	2.2140846130E+02	1.2519749488E+02	0.000E+00	0.0
	-5	1	9	9	0	501	-7.6412486580E+00	7.7945399783E+00	-1.6305366140E+01	2.0061926615E+01	4.1800000000E+00	0.000E+00	0.0
	5	1	9	9	501	0	6.3623496896E+01	-1.3005621682E+02	1.3985844893E+02	2.0134653468E+02	4.1800000000E+00	0.000E+00	0.0
</event>
<event>
    11  -1  1.0000000E+00  1.0000000E+00  -1.0000000E+00  -1.0000000E+00
	2212	-1	0	0	0	0	0.0000000000E+00	0.0000000000E+00	6.5000000000E+03	6.5000000000E+03	9.3827000000E-01	0.000E+00	0.0
	2212	-1	0	0	0	0	0.0000000000E+00	0.0000000000E+00	-6.5000000000E+03	6.5000000000E+03	9.3827000000E-01	0.000E+00	0.0
	2212	1	0	0	0	0	0.0000000000E+00	0.0000000000E+00	6.0101798939E+03	6.0101798939E+03	9.3827000000E-01	0.000E+00	0.0
	2212	1	0	0	0	0	0.0000000000E+00	0.0000000000E+00	-5.9325207054E+03	5.9325207054E+03	9.3827000000E-01	0.000E+00	0.0
	51	2	1	2	0	0	4.7156750945E+01	-4.5870117498E+01	4.8923402459E+01	1.0576258314E+03	1.0544434897E+03	0.000E+00	0.0
	1000022	2	5	5	0	0	-4.7156750945E+01	4.5870117498E+01	-1.9095599968E+02	8.7609228673E+02	8.5249379717E+02	0.000E+00	0.0
	14	1	6	6	0	0	-1.2030984161E+02	2.1075064561E+02	-2.8125658477E+02	4.9357933414E+02	3.2500000000E+02	0.000E+00	0.0
	-14	1	6	6	0	0	7.3153090661E+01	-1.6488052812E+02	9.0300585097E+01	3.8251295258E+02	3.2500000000E+02	0.000E+00	0.0
	25	2	5	5	0	0	4.7156750945E+01	-4.5870117498E+01	1.1329681114E+02	1.8120711393E+02	1.2518795424E+02	0.000E+00	0.0
	-5	1	9	9	0	501	2.3901855868E+01	-7.7078049448E+01	2.4940557749E+01	8.4568482554E+01	4.1800000000E+00	0.000E+00	0.0
	5	1	9	9	501	0	2.3254895077E+01	3.1207931950E+01	8.8356253391E+01	9.6638631379E+01	4.1800000000E+00	0.000E+00	0.0
</event>
<event>
    11  -1  1.0000000E+00  1.0000000E+00  -1.0000000E+00  -1.0000000E+00
	2212	-1	0	0	0	0	0.0000000000E+00	0.0000000000E+00	6.5000000000E+03	6.5000000000E+03	9.3827000000E-01	0.000E+00	0.0
	2212	-1	0	0	0	0	0.0000000000E+00	0.0000000000E+00	-6.5000000000E+03	6.5000000000E+03	9.3827000000E-01	0.000E+00	0.0
	2212	1	0	0	0	0	0.0000000000E+00	0.0000000000E+00	6.0685199760E+03	6.0685199760E+03	9.3827000000E-01	0.000E+00	0.0
	2212	1	0	0	0	0	0.0000000000E+00	0.0000000000E+00	-5.8595707864E+03	5.8595707864E+03	9.3827000000E-01	0.000E+00	0.0
	51	2	1	2	0	0	8.7926479388E+01	-1.1324467289E+02	-2.1787579369E+02	1.0832150909E+03	1.0513465888E+03	0.000E+00	0.0
	1000022	2	5	5	0	0	-8.7926479388E+01	1.1324467289E+02	-1.6410867045E+02	8.7636501788E+02	8.4883954145E+02	0.000E+00	0.0
	14	1	6	6	0	0	3.7461846031E+01	2.9418314632E+02	2.4941785778E+01	4.4067471696E+02	3.2500000000E+02	0.000E+00	0.0
	-14	1	6	6	0	0	-1.2538832542E+02	-1.8093847343E+02	-1.8905045622E+02	4.3569030092E+02	3.2500000000E+02	0.000E+00	0.0
	25	2	5	5	0	0	8.7926479388E+01	-1.1324467289E+02	-4.4840519188E+01	1.9554421975E+02	1.2518565413E+02	0.000E+00	0.0
	-5	1	9	9	0	501	4.4097656721E+01	-4.0915665341E+00	-6.2307151206E+01	7.6557153398E+01	4.1800000000E+00	0.000E+00	0.0
	5	1	9	9	501	0	4.3828822667E+01	-1.0915310636E+02	1.7466632018E+01	1.1898706635E+02	4.1800000000E+00	0.000E+00	0.0
</event>
<event>
    11  -1  1.0000000E+00  1.0000000E+00  -1.0000000E+00  -1.0000000E+00
	2212	-1	0	0	0	0	0.0000000000E+00	0.0000000000E+00	6.5000000000E+03	6.5000000000E+03	9.3827000000E-01	0.000E+00	0.0
	2212	-1	0	0	0	0	0.0000000000E+00	0.0000000000E+00	-6.5000000000E+03	6.5000000000E+03	9.3827000000E-01	0.000E+00	0.0
	2212	1	0	0	0	0	0.0000000000E+00	0.0000000000E+00	5.8157470129E+03	5.8157470129E+03	9.3827000000E-01	0.000E+00	0.0
	2212	1	0	0	0	0	0.0000000000E+00	0.0000000000E+00	-6.0779717789E+03	6.0779717789E+03	9.3827000000E-01	0.000E+00	0.0
	51	2	1	2	0	0	2.6473687919E+01	1.7398414371E+02	3.2901467127E+02	1.1376810959E+03	1.0747540573E+03	0.000E+00	0.0
	1000022	2	5	5	0	0	-2.6473687919E+01	-1.7398414371E+02	1.4458501135E+02	8.6035454793E+02	8.2965883604E+02	0.000E+00	0.0
	14	1	6	6	0	0	1.3597070298E+02	-3.9984303009E+00	-1.2857308416E+02	3.7504674040E+02	3.2500000000E+02	0.000E+00	0.0
	-14	1	6	6	0	0	-1.6244439090E+02	-1.6998571341E+02	2.7315809552E+02	4.8530780753E+02	3.2500000000E+02	0.000E+00	0.0
	25	2	5	5	0	0	2.6473687919E+01	1.7398414371E+02	1.1763975461E+02	2.4592666025E+02	1.2517776137E+02	0.000E+00	0.0
	-5	1	9	9	0	501	-2.5998220377E+01	7.9781117822E+01	-2.9973666114E+00	8.4067775219E+01	4.1800000000E+00	0.000E+00	0.0
	5	1	9	9	501	0	5.2471908296E+01	9.4203025891E+01	1.2063712122E+02	1.6185888503E+02	4.1800000000E+00	0.000E+00	0.0
</event>
<event>
    11  -1  1.0000000E+00  1.0000000E+00  -1.0000000E+00  -1.0000000E+00
	2212	-1	0	0	0	0	0.0000000000E+00	0.0000000000E+00	6.5000000000E+03	6.5000000000E+03	9.3827000000E-01	0.000E+00	0.0
	2212	-1	0	0	0	0	0.0000000000E+00	0.0000000000E+00	-6.5000000000E+03	6.5000000000E+03	9.3827000000E-01	0.000E+00	0.0
	2212	1	0	0	0	0	0.0000000000E+00	0.0000000000E+00	5.2298284626E+03	5.2298284626E+03	9.3827000000E-01	0.000E+00	0.0
	2212	1	0	0	0	0	0.0000000000E+00	0.0000000000E+00	-6.2792395357E+03	6.2792395357E+03	9.3827000000E-01	0.000E+00	0.0
	51	2	1	2	0	0	-4.8090841824E+01	-1.0355063940E+02	1.0813915914E+03	1.5179123398E+03	1.0590630923E+03	0.000E+00	0.0
	1000022	2	5	5	0	0	4.8090841824E+01	1.0355063940E+02	8.5481218814E+02	1.2329145294E+03	8.8110095673E+02	0.000E+00	0.0
	14	1	6	6	0	0	7.5557827769E+01	-1.6303698569E+02	1.2791983027E+02	3.9278305337E+02	3.2500000000E+02	0.000E+00	0.0
	-14	1	6	6	0	0	-2.7466985944E+01	2.6658762510E+02	7.2689235786E+02	8.4013147607E+02	3.2500000000E+02	0.000E+00	0.0
	25	2	5	5	0	0	-4.8090841824E+01	-1.0355063940E+02	1.9459888496E+02	2.5801747232E+02	1.2517518127E+02	0.000E+00	0.0
	-5	1	9	9	0	501	-6.2285112191E+01	-1.1665085468E+02	1.1279198364E+02	1.7385730089E+02	4.1800000000E+00	0.000E+00	0.0
	5	1	9	9	501	0	1.4194270367E+01	1.3100215278E+01	8.1806901317E+01	8.4160171428E+01	4.1800000000E+00	0.000E+00	0.0
</event>
<event>
    11  -1  1.0000000E+00  1.0000000E+00  -1.0000000E+00  -1.0000000E+00
	2212	-1	0	0	0	0	0.0000000000E+00	0.0000000000E+00	6.5000000000E+03	6.5000000000E+03	9.3827000000E-01	0.000E+00	0.0
	2212	-1	0	0	0	0	0.0000000000E+00	0.0000000000E+00	-6.5000000000E+03	6.5000000000E+03	9.3827000000E-01	0.000E+00	0.0
	2212	1	0	0	0	0	0.0000000000E+00	0.0000000000E+00	5.8969333990E+03	5.8969333990E+03	9.3827000000E-01	0.000E+00	0.0
	2212	1	0	0	0	0	0.0000000000E+00	0.0000000000E+00	-6.0620602680E+03	6.0620602680E+03	9.3827000000E-01	0.000E+00	0.0
	51	2	1	2	0	0	-3.5752663918E+01	-1.1058244539E+01	2.3712679229E+02	1.0554889653E+03	1.0278264943E+03	0.000E+00	0.0
	1000022	2	5	5	0	0	3.5752663918E+01	1.1058244539E+01	6.9767550988E+01	8.7925949126E+02	8.7568784624E+02	0.000E+00	0.0
	14	1	6	6	0	0	1.4896308311E+02	-1.8280510581E+02	-1.4831765651E+02	4.2805470921E+02	3.2500000000E+02	0.000E+00	0.0
	-14	1	6	6	0	0	-1.1321041919E+02	1.9386335035E+02	2.1808520750E+02	4.5120478206E+02	3.2500000000E+02	0.000E+00	0.0
	25	2	5	5	0	0	-3.5752663918E+01	-1.1058244539E+01	9.5359318001E+01	1.6174684172E+02	1.2517229536E+02	0.000E+00	0.0
	-5	1	9	9	0	501	-6.1765401139E+01	3.6483307728E+01	3.3143879314E+01	7.9132709145E+01	4.1800000000E+00	0.000E+00	0.0
	5	1	9	9	501	0	2.6012737221E+01	-4.7541552266E+01	6.2215438687E+01	8.2614132572E+01	4.1800000000E+00	0.000E+00	0.0
</event>
<event>
    11  -1  1.0000000E+00  1.0000000E+00  -1.0000000E+00  -1.0000000E+00
	2212	-1	0	0	0	0	0.0000000000E+00	0.0000000000E+00	6.5000000000E+03	6.5000000000E+03	9.3827000000E-01	0.000E+00	0.0
	2212	-1	0	0	0	0	0.0000000000E+00	0.0000000000E+00	-6.5000000000E+03	6.5000000000E+03	9.3827000000E-01	0.000E+00	0.0
	2212	1	0	0	0	0	0.0000000000E+00	0.0000000000E+00	6.2692027843E+03	6.2692027843E+03	9.3827000000E-01	0.000E+00	0.0
	2212	1	0	0	0	0	0.0000000000E+00	0.0000000000E+00	-5.1802169381E+03	5.1802169381E+03	9.3827000000E-01	0.000E+00	0.0
	51	2	1	2	0	0	1.0232166833E+02	6.4997039834E+01	-8.9387524870E+02	1.4255231753E+03	1.1038156659E+03	0.000E+00	0.0
	1000022	2	5	5	0	0	-1.0232166833E+02	-6.4997039834E+01	-1.0733937505E+03	1.3756229752E+03	8.5174531833E+02	0.000E+00	0.0
	14	1	6	6	0	0	-6.4863380320E+01	1.2607276621E+02	-8.8316362693E+02	9.5168513302E+02	3.2500000000E+02	0.000E+00	0.0
	-14	1	6	6	0	0	-3.7458288012E+01	-1.9106980605E+02	-1.9023012359E+02	4.2393784220E+02	3.2500000000E+02	0.000E+00	0.0
	25	2	5	5	0	0	1.0232166833E+02	6.4997039834E+01	-1.5592095626E+01	1.7495730239E+02	1.2519027605E+02	0.000E+00	0.0
	-5	1	9	9	0	501	9.8034331023E+01	4.8172753953E+01	4.0129539216E+01	1.1644396335E+02	4.1800000000E+00	0.000E+00	0.0
	5	1	9	9	501	0	4.2873373090E+00	1.6824285882E+01	-5.5721634842E+01	5.8513339044E+01	4.1800000000E+00	0.000E+00	0.0
</event>
<event>
    11  -1  1.0000000E+00  1.0000000E+00  -1.0000000E+00  -1.0000000E+00
	2212	-1	0	0	0	0	0.0000000000E+00	0.0000000000E+00	6.5000000000E+03	6.5000000000E+03	9.3827000000E-01	0.000E+00	0.0
	2212	-1	0	0	0	0	0.0000000000E+00	0.0000000000E+00	-6.5000000000E+03	6.5000000000E+03	9.3827000000E-01	0.000E+00	0.0
	2212	1	0	0	0	0	0.0000000000E+00	0.0000000000E+00	6.3032411117E+03	6.3032411117E+03	9.3827000000E-01	0.000E+00	0.0
	2212	1	0	0	0	0	0.0000000000E+00	0.0000000000E+00	-5.1246143819E+03	5.1246143819E+03	9.3827000000E-01	0.000E+00	0.0
	51	2	1	2	0	0	4.2077230409E+00	8.2613981052E+01	-1.3315289531E+03	1.6918302244E+03	1.0404217321E+03	0.000E+00	0.0
	1000022	2	5	5	0	0	-4.2077230409E+00	-8.2613981052E+01	-8.3291936069E+02	1.1952802064E+03	8.5328619792E+02	0.000E+00	0.0
	14	1	6	6	0	0	-6.4593889946E+01	2.2006599102E+02	-4.8885849635E+02	6.3024522249E+02	3.2500000000E+02	0.000E+00	0.0
	-14	1	6	6	0	0	6.0386166905E+01	-3.0267997208E+02	-3.4406086434E+02	5.6503498389E+02	3.2500000000E+02	0.000E+00	0.0
	25	2	5	5	0	0	4.2077230409E+00	8.2613981052E+01	-3.4570736919E+02	3.7686430002E+02	1.2518123150E+02	0.000E+00	0.0
	-5	1	9	9	0	501	5.3833425044E+01	1.1204941594E+00	-1.0999778691E+02	1.2254092657E+02	4.1800000000E+00	0.000E+00	0.0
	5	1	9	9	501	0	-4.9625702003E+01	8.1493486892E+01	-2.3570958227E+02	2.5432337345E+02	4.1800000000E+00	0.000E+00	0.0
</event>
<event>
    11  -1  1.0000000E+00  1.0000000E+00  -1.0000000E+00  -1.0000000E+00
	2212	-1	0	0	0	0	0.0000000000E+00	0.0000000000E+00	6.5000000000E+03	6.5000000000E+03	9.3827000000E-01	0.000E+00	0.0
	2212	-1	0	0	0	0	0.0000000000E+00	0.0000000000E+00	-6.5000000000E+03	6.5000000000E+03	9.3827000000E-01	0.000E+00	0.0
	2212	1	0	0	0	0	0.0000000000E+00	0.0000000000E+00	6.2930180487E+03	6.2930180487E+03	9.3827000000E-01	0.000E+00	0.0
	2212	1	0	0	0	0	0.0000000000E+00	0.0000000000E+00	-5.1792855729E+03	5.1792855729E+03	9.3827000000E-01	0.000E+00	0.0
	51	2	1	2	0	0	-1.3543758288E+02	3.7605590973E+00	-1.1244752749E+03	1.5415117001E+03	1.0456845590E+03	0.000E+00	0.0
	1000022	2	5	5	0	0	1.3543758288E+02	-3.7605590973E+00	-9.1583054601E+02	1.2571566348E+03	8.5049381813E+02	0.000E+00	0.0
	14	1	6	6	0	0	1.3388847893E+02	1.3396609562E+02	-1.3396572643E+02	3.9930546631E+02	3.2500000000E+02	0.000E+00	0.0
	-14	1	6	6	0	0	1.5491039546E+00	-1.3772665471E+02	-7.8186481958E+02	8.5785116847E+02	3.2500000000E+02	0.000E+00	0.0
	25	2	5	5	0	0	-1.3543758288E+02	3.7605590973E+00	-1.9790192977E+02	2.7053974365E+02	1.2517626941E+02	0.000E+00	0.0
	-5	1	9	9	0	501	3.9207267560E+00	8.0406912813E+00	-9.9136633571E+01	9.9627151572E+01	4.1800000000E+00	0.000E+00	0.0
	5	1	9	9	501	0	-1.3935830964E+02	-4.2801321840E+00	-9.8765296203E+01	1.7091259208E+02	4.1800000000E+00	0.000E+00	0.0
</event>
<event>
    11  -1  1.0000000E+00  1.0000000E+00  -1.0000000E+00  -1.0000000E+00
	2212	-1	0	0	0	0	0.0000000000E+00	0.0000000000E+00	6.5000000000E+03	6.5000000000E+03	9.3827000000E-01	0.000E+00	0.0
	2212	-1	0	0	0	0	0.0000000000E+00	0.0000000000E+00	-6.5000000000E+03	6.5000000000E+03	9.3827000000E-01	0.000E+00	0.0
	2212	1	0	0	0	0	0.0000000000E+00	0.0000000000E+00	6.2954108227E+03	6.2954108227E+03	9.3827000000E-01	0.000E+00	0.0
	2212	1	0	0	0	0	0.0000000000E+00	0.0000000000E+00	-5.1416850996E+03	5.1416850996E+03	9.3827000000E-01	0.000E+00	0.0
	51	2	1	2	0	0	-4.2268094618E+01	-8.9195226629E+01	-1.5448144737E+03	1.8729068985E+03	1.0543178421E+03	0.000E+00	0.0
	1000022	2	5	5	0	0	4.2268094618E+01	8.9195226629E+01	-4.8143889975E+02	8.7197396577E+02	7.2028661137E+02	0.000E+00	0.0
	14	1	6	6	0	0	5.6346248172E+01	5.2795773807E+01	-6.1715936801E+01	3.3970008871E+02	3.2500000000E+02	0.000E+00	0.0
	-14	1	6	6	0	0	-1.4078153554E+01	3.6399452822E+01	-4.1972296295E+02	5.3227387706E+02	3.2500000000E+02	0.000E+00	0.0
	25	2	5	5	0	0	-4.2268094618E+01	-8.9195226629E+01	-6.7228682329E+02	6.9093011194E+02	1.2518972221E+02	0.000E+00	0.0
	-5	1	9	9	0	501	2.2515929117E+01	-2.1413589597E+01	-3.5915823834E+01	4.7675231358E+01	4.1800000000E+00	0.000E+00	0.0
	5	1	9	9	501	0	-6.4784023735E+01	-6.7781637033E+01	-6.3637099945E+02	6.4325488059E+02	4.1800000000E+00	0.000E+00	0.0
</event>
<event>
    11  -1  1.0000000E+00  1.0000000E+00  -1.0000000E+00  -1.0000000E+00
	2212	-1	0	0	0	0	0.0000000000E+00	0.0000000000E+00	6.5000000000E+03	6.5000000000E+03	9.3827000000E-01	0.000E+00	0.0
	2212	-1	0	0	0	0	0.0000000000E+00	0.0000000000E+00	-6.5000000000E+03	6.5000000000E+03	9.3827000000E-01	0.000E+00	0.0
	2212	1	0	0	0	0	0.0000000000E+00	0.0000000000E+00	4.9410961492E+03	4.9410961492E+03	9.3827000000E-01	0.000E+00	0.0
	2212	1	0	0	0	0	0.0000000000E+00	0.0000000000E+00	-6.3222954381E+03	6.3222954381E+03	9.3827000000E-01	0.000E+00	0.0
	51	2	1	2	0	0	7.2959083318E+01	-1.2679435559E+02	1.3311741317E+03	1.7033853671E+03	1.0526620082E+03	0.000E+00	0.0
	1000022	2	5	5	0	0	-7.2959083318E+01	1.2679435559E+02	1.1876890309E+03	1.4636297000E+03	8.4273769840E+02	0.000E+00	0.0
	14	1	6	6	0	0	2.7332049704E+00	-1.8912728740E+01	1.0046645686E+03	1.0560970869E+03	3.2500000000E+02	0.000E+00	0.0
	-14	1	6	6	0	0	-7.5692288288E+01	1.4570708433E+02	1.8302446232E+02	4.0753261310E+02	3.2500000000E+02	0.000E+00	0.0
	25	2	5	5	0	0	7.2959083318E+01	-1.2679435559E+02	1.9351025800E+02	2.7297871267E+02	1.2518514756E+02	0.000E+00	0.0
	-5	1	9	9	0	501	-2.3169369087E+00	2.3237384168E+01	3.3403508509E+01	4.0970855499E+01	4.1800000000E+00	0.000E+00	0.0
	5	1	9	9	501	0	7.5276020226E+01	-1.5003173976E+02	1.6010674950E+02	2.3200785717E+02	4.1800000000E+00	0.000E+00	0.0
</event>
<event>
    11  -1  1.0000000E+00  1.0000000E+00  -1.0000000E+00  -1.0000000E+00
	2212	-1	0	0	0	0	0.0000000000E+00	0.0000000000E+00	6.5000000000E+03	6.5000000000E+03	9.3827000000E-01	0.000E+00	0.0
	2212	-1	0	0	0	0	0.0000000000E+00	0.0000000000E+00	-6.5000000000E+03	6.5000000000E+03	9.3827000000E-01	0.000E+00	0.0
	2212	1	0	0	0	0	0.0000000000E+00	0.0000000000E+00	5.6234098396E+03	5.6234098396E+03	9.3827000000E-01	0.000E+00	0.0
	2212	1	0	0	0	0	0.0000000000E+00	0.0000000000E+00	-6.1852108468E+03	6.1852108468E+03	9.3827000000E-01	0.000E+00	0.0
	51	2	1	2	0	0	8.4087512630E+01	-4.3490608308E+01	7.0209809720E+02	1.2671496273E+03	1.0506018737E+03	0.000E+00	0.0
	1000022	2	5	5	0	0	-8.4087512630E+01	4.3490608308E+01	3.2219038419E+02	9.0500046162E+02	8.4039100964E+02	0.000E+00	0.0
	14	1	6	6	0	0	1.4264021538E+02	-1.1764332912E+02	7.5838879184E+00	3.7399023956E+02	3.2500000000E+02	0.000E+00	0.0
	-14	1	6	6	0	0	-2.2672772801E+02	1.6113393743E+02	3.1460649627E+02	5.3101022206E+02	3.2500000000E+02	0.000E+00	0.0
	25	2	5	5	0	0	8.4087512630E+01	-4.3490608308E+01	2.3961062306E+02	2.8637885194E+02	1.2504980353E+02	0.000E+00	0.0
	-5	1	9	9	0	501	6.1605225991E+01	1.8171190753E+01	3.8989020235E+01	7.5252987594E+01	4.1800000000E+00	0.000E+00	0.0
	5	1	9	9	501	0	2.2482286638E+01	-6.1661799061E+01	2.0062160283E+02	2.1112586435E+02	4.1800000000E+00	0.000E+00	0.0
</event>
<event>
    11  -1  1.0000000E+00  1.0000000E+00  -1.0000000E+00  -1.0000000E+00
	2212	-1	0	0	0	0	0.0000000000E+00	0.0000000000E+00	6.5000000000E+03	6.5000000000E+03	9.3827000000E-01	0.000E+00	0.0
	2212	-1	0	0	0	0	0.0000000000E+00	0.0000000000E+00	-6.5000000000E+03	6.5000000000E+03	9.3827000000E-01	0.000E+00	0.0
	2212	1	0	0	0	0	0.0000000000E+00	0.0000000000E+00	5.3125551885E+03	5.3125551885E+03	9.3827000000E-01	0.000E+00	0.0
	2212	1	0	0	0	0	0.0000000000E+00	0.0000000000E+00	-6.2636574604E+03	6.2636574604E+03	9.3827000000E-01	0.000E+00	0.0
	51	2	1	2	0	0	8.1868485473E+02	2.9101704562E+03	1.8442327765E+02	3.2087261974E+03	1.0595163470E+03	0.000E+00	0.0
	1000022	2	5	5	0	0	-8.1868485473E+02	-2.9101704562E+03	8.0890428409E+03	9.1765416724E+03	3.1043463093E+03	0.000E+00	0.0
	14	1	6	6	0	0	-1.5952688992E+02	1.9559431038E+02	3.8420548263E+03	3.8640285003E+03	3.2500000000E+02	0.000E+00	0.0
	-14	1	6	6	0	0	-6.5915796481E+02	-3.1057647666E+03	4.2469880146E+03	5.3125131721E+03	3.2500000000E+02	0.000E+00	0.0
	25	2	5	5	0	0	8.1868485473E+02	2.9101704562E+03	6.2608694688E+01	3.0263713997E+03	1.2516798740E+02	0.000E+00	0.0
	-5	1	9	9	0	501	2.5946150652E+02	1.1468928246E+03	2.1970854496E+01	1.1760882685E+03	4.1800000000E+00	0.000E+00	0.0
	5	1	9	9	501	0	5.5922334821E+02	1.7632776315E+03	4.0637840193E+01	1.8502831312E+03	4.1800000000E+00	0.000E+00	0.0
</event>
<event>
    11  -1  1.0000000E+00  1.0000000E+00  -1.0000000E+00  -1.0000000E+00
	2212	-1	0	0	0	0	0.0000000000E+00	0.0000000000E+00	6.5000000000E+03	6.5000000000E+03	9.3827000000E-01	0.000E+00	0.0
	2212	-1	0	0	0	0	0.0000000000E+00	0.0000000000E+00	-6.5000000000E+03	6.5000000000E+03	9.3827000000E-01	0.000E+00	0.0
	2212	1	0	0	0	0	0.0000000000E+00	0.0000000000E+00	5.1522235853E+03	5.1522235853E+03	9.3827000000E-01	0.000E+00	0.0
	2212	1	0	0	0	0	0.0000000000E+00	0.0000000000E+00	-6.3106316490E+03	6.3106316490E+03	9.3827000000E-01	0.000E+00	0.0
	51	2	1	2	0	0	8.8762914132E+01	-3.9581626336E+01	1.1310004905E+03	1.5197080174E+03	1.0103983317E+03	0.000E+00	0.0
	1000022	2	5	5	0	0	-8.8762914132E+01	3.9581626336E+01	1.0080417995E+03	1.3186852593E+03	8.4459279148E+02	0.000E+00	0.0
	14	1	6	6	0	0	-9.6149782438E+01	-1.4106593229E+02	8.2749573125E+02	9.0527264575E+02	3.2500000000E+02	0.000E+00	0.0
	-14	1	6	6	0	0	7.3868683063E+00	1.8064755862E+02	1.8054606826E+02	4.1341261353E+02	3.2500000000E+02	0.000E+00	0.0
	25	2	5	5	0	0	8.8762914132E+01	-3.9581626336E+01	1.5036626418E+02	2.1845950644E+02	1.2517580628E+02	0.000E+00	0.0
	-5	1	9	9	0	501	5.5348240396E+01	-2.8921834879E+01	-1.4325711319E+00	6.2605310540E+01	4.1800000000E+00	0.000E+00	0.0
	5	1	9	9	501	0	3.3414673736E+01	-1.0659791457E+01	1.5179883532E+02	1.5585419590E+02	4.1800000000E+00	0.000E+00	0.0
</event>
<event>
    11  -1  1.0000000E+00  1.0000000E+00  -1.0000000E+00  -1.0000000E+00
	2212	-1	0	0	0	0	0.0000000000E+00	0.0000000000E+00	6.5000000000E+03	6.5000000000E+03	9.3827000000E-01	0.000E+00	0.0
	2212	-1	0	0	0	0	0.0000000000E+00	0.0000000000E+00	-6.5000000000E+03	6.5000000000E+03	9.3827000000E-01	0.000E+00	0.0
	2212	1	0	0	0	0	0.0000000000E+00	0.0000000000E+00	6.3276178556E+03	6.3276178556E+03	9.3827000000E-01	0.000E+00	0.0
	2212	1	0	0	0	0	0.0000000000E+00	0.0000000000E+00	-4.9119365885E+03	4.9119365885E+03	9.3827000000E-01	0.000E+00	0.0
	51	2	1	2	0	0	4.8719083044E+01	-2.9910584231E+01	-1.2154406431E+03	1.6048611324E+03	1.0464296944E+03	0.000E+00	0.0
	1000022	2	5	5	0	0	-4.8719083044E+01	2.9910584231E+01	-1.3755860795E+03	1.6171646052E+03	8.4836083498E+02	0.000E+00	0.0
	14	1	6	6	0	0	2.0782963456E+02	1.4425731705E+02	-7.9009411647E+02	8.9099777969E+02	3.2500000000E+02	0.000E+00	0.0
	-14	1	6	6	0	0	-2.5654871760E+02	-1.1434673281E+02	-5.8549196298E+02	7.2616682554E+02	3.2500000000E+02	0.000E+00	0.0
	25	2	5	5	0	0	4.8719083044E+01	-2.9910584231E+01	-4.0095187707E+01	1.4328095070E+02	1.2511440627E+02	0.000E+00	0.0
	-5	1	9	9	0	501	-3.7977823397E+00	-6.4489765073E+01	-4.6837765200E+01	7.9903702035E+01	4.1800000000E+00	0.000E+00	0.0
	5	1	9	9	501	0	5.2516865384E+01	3.4579180842E+01	6.7425774936E+00	6.3377248668E+01	4.1800000000E+00	0.000E+00	0.0
</event>
<event>
    11  -1  1.0000000E+00  1.0000000E+00  -1.0000000E+00  -1.0000000E+00
	2212	-1	0	0	0	0	0.0000000000E+00	0.0000000000E+00	6.5000000000E+03	6.5000000000E+03	9.3827000000E-01	0.000E+00	0.0
	2212	-1	0	0	0	0	0.0000000000E+00	0.0000000000E+00	-6.5000000000E+03	6.5000000000E+03	9.3827000000E-01	0.000E+00	0.0
	2212	1	0	0	0	0	0.0000000000E+00	0.0000000000E+00	6.3327433073E+03	6.3327433073E+03	9.3827000000E-01	0.000E+00	0.0
	2212	1	0	0	0	0	0.0000000000E+00	0.0000000000E+00	-4.8412752912E+03	4.8412752912E+03	9.3827000000E-01	0.000E+00	0.0
	51	2	1	2	0	0	2.0566095508E+01	5.9473479142E+00	-1.3162658950E+03	1.6860443284E+03	1.0534378177E+03	0.000E+00	0.0
	1000022	2	5	5	0	0	-2.0566095508E+01	-5.9473479142E+00	-1.4406313050E+03	1.6891826017E+03	8.8173747199E+02	0.000E+00	0.0
	14	1	6	6	0	0	-6.6433203555E+01	1.6908467609E+02	-2.6741253765E+02	4.5840752995E+02	3.2500000000E+02	0.000E+00	0.0
	-14	1	6	6	0	0	4.5867108048E+01	-1.7503202401E+02	-1.1732187674E+03	1.2307750717E+03	3.2500000000E+02	0.000E+00	0.0
	25	2	5	5	0	0	2.0566095508E+01	5.9473479142E+00	-5.0836711021E+01	1.3679879983E+02	1.2518468443E+02	0.000E+00	0.0
	-5	1	9	9	0	501	-3.7528603208E+01	1.7917964420E+01	1.8284257884E+01	4.5620565473E+01	4.1800000000E+00	0.000E+00	0.0
	5	1	9	9	501	0	5.8094698715E+01	-1.1970616506E+01	-6.9120968905E+01	9.1178234358E+01	4.1800000000E+00	0.000E+00	0.0
</event>
<event>
    11  -1  1.0000000E+00  1.0000000E+00  -1.0000000E+00  -1.0000000E+00
	2212	-1	0	0	0	0	0.0000000000E+00	0.0000000000E+00	6.5000000000E+03	6.5000000000E+03	9.3827000000E-01	0.000E+00	0.0
	2212	-1	0	0	0	0	0.0000000000E+00	0.0000000000E+00	-6.5000000000E+03	6.5000000000E+03	9.3827000000E-01	0.000E+00	0.0
	2212	1	0	0	0	0	0.0000000000E+00	0.0000000000E+00	5.8597105583E+03	5.8597105583E+03	9.3827000000E-01	0.000E+00	0.0
	2212	1	0	0	0	0	0.0000000000E+00	0.0000000000E+00	-6.0643512884E+03	6.0643512884E+03	9.3827000000E-01	0.000E+00	0.0
	51	2	1	2	0	0	-4.0801327294E+01	9.1211557530E+01	3.0216040297E+02	1.1032000213E+03	1.0562978185E+03	0.000E+00	0.0
	1000022	2	5	5	0	0	4.0801327294E+01	-9.1211557530E+01	7.2853961891E+01	8.6851041530E+02	8.5966176208E+02	0.000E+00	0.0
	14	1	6	6	0	0	-8.4181787338E+01	2.1554085078E+02	6.6178532410E+01	4.0441195559E+02	3.2500000000E+02	0.000E+00	0.0
	-14	1	6	6	0	0	1.2498311463E+02	-3.0675240831E+02	6.6754294815E+00	4.6409845971E+02	3.2500000000E+02	0.000E+00	0.0
	25	2	5	5	0	0	-4.0801327294E+01	9.1211557530E+01	1.3178676816E+02	2.0742773800E+02	1.2519671599E+02	0.000E+00	0.0
	-5	1	9	9	0	501	-3.2821050463E+01	1.7902660014E+01	1.2806244146E+02	1.3347354757E+02	4.1800000000E+00	0.000E+00	0.0
	5	1	9	9	501	0	-7.9802768311E+00	7.3308897516E+01	3.7243267023E+00	7.3954190433E+01	4.1800000000E+00	0.000E+00	0.0
</event>
<event>
    11  -1  1.0000000E+00  1.0000000E+00  -1.0000000E+00  -1.0000000E+00
	2212	-1	0	0	0	0	0.0000000000E+00	0.0000000000E+00	6.5000000000E+03	6.5000000000E+03	9.3827000000E-01	0.000E+00	0.0
	2212	-1	0	0	0	0	0.0000000000E+00	0.0000000000E+00	-6.5000000000E+03	6.5000000000E+03	9.3827000000E-01	0.000E+00	0.0
	2212	1	0	0	0	0	0.0000000000E+00	0.0000000000E+00	6.3181633287E+03	6.3181633287E+03	9.3827000000E-01	0.000E+00	0.0
	2212	1	0	0	0	0	0.0000000000E+00	0.0000000000E+00	-4.9677304315E+03	4.9677304315E+03	9.3827000000E-01	0.000E+00	0.0
	51	2	1	2	0	0	2.9947318873E+01	2.3412620958E+01	-1.1435713668E+03	1.5568210092E+03	1.0556946486E+03	0.000E+00	0.0
	1000022	2	5	5	0	0	-2.9947318873E+01	-2.3412620958E+01	-1.3289240743E+03	1.5815206825E+03	8.5657660559E+02	0.000E+00	0.0
	14	1	6	6	0	0	2.1181344304E+02	-1.6697764798E+02	-7.4678903541E+02	8.5794249981E+02	3.2500000000E+02	0.000E+00	0.0
	-14	1	6	6	0	0	-2.4176076191E+02	1.4356502702E+02	-5.8213503892E+02	7.2357818273E+02	3.2500000000E+02	0.000E+00	0.0
	25	2	5	5	0	0	2.9947318873E+01	2.3412620958E+01	-2.1508822892E+01	1.3258555719E+02	1.2518509410E+02	0.000E+00	0.0
	-5	1	9	9	0	501	6.8312633152E+01	1.1393381436E+01	-4.7901190666E+01	8.4311455069E+01	4.1800000000E+00	0.000E+00	0.0
	5	1	9	9	501	0	-3.8365314279E+01	1.2019239522E+01	2.6392367774E+01	4.8274102117E+01	4.1800000000E+00	0.000E+00	0.0
</event>
<event>
    11  -1  1.0000000E+00  1.0000000E+00  -1.0000000E+00  -1.0000000E+00
	2212	-1	0	0	0	0	0.0000000000E+00	0.0000000000E+00	6.5000000000E+03	6.5000000000E+03	9.3827000000E-01	0.000E+00	0.0
	2212	-1	0	0	0	0	0.0000000000E+00	0.0000000000E+00	-6.5000000000E+03	6.5000000000E+03	9.3827000000E-01	0.000E+00	0.0
	2212	1	0	0	0	0	0.0000000000E+00	0.0000000000E+00	5.3319400425E+03	5.3319400425E+03	9.3827000000E-01	0.000E+00	0.0
	2212	1	0	0	0	0	0.0000000000E+00	0.0000000000E+00	-6.2634970539E+03	6.2634970539E+03	9.3827000000E-01	0.000E+00	0.0
	51	2	1	2	0	0	-1.0086533442E+02	-1.1471160889E+02	9.9766851115E+02	1.4572829210E+03	1.0511890814E+03	0.000E+00	0.0
	1000022	2	5	5	0	0	1.0086533442E+02	1.1471160889E+02	6.9709244760E+02	1.0980071409E+03	8.3447542324E+02	0.000E+00	0.0
	14	1	6	6	0	0	6.5755290605E+01	2.6776525131E+02	5.7754365087E+02	7.1777688505E+02	3.2500000000E+02	0.000E+00	0.0
	-14	1	6	6	0	0	3.5110043818E+01	-1.5305364242E+02	1.1954879672E+02	3.8023025581E+02	3.2500000000E+02	0.000E+00	0.0
	25	2	5	5	0	0	-1.0086533442E+02	-1.1471160889E+02	2.3446456373E+02	3.0655576272E+02	1.2518080966E+02	0.000E+00	0.0
	-5	1	9	9	0	501	-6.5743389100E+01	6.8788417795E+00	1.1362343334E+02	1.3151908105E+02	4.1800000000E+00	0.000E+00	0.0
	5	1	9	9	501	0	-3.5121945322E+01	-1.2159045067E+02	1.2084113039E+02	1.7503668167E+02	4.1800000000E+00	0.000E+00	0.0
</event>
<event>
    11  -1  1.0000000E+00  1.0000000E+00  -1.0000000E+00  -1.0000000E+00
	2212	-1	0	0	0	0	0.0000000000E+00	0.0000000000E+00	6.5000000000E+03	6.5000000000E+03	9.3827000000E-01	0.000E+00	0.0
	2212	-1	0	0	0	0	0.0000000000E+00	0.0000000000E+00	-6.5000000000E+03	6.5000000000E+03	9.3827000000E-01	0.000E+00	0.0
	2212	1	0	0	0	0	0.0000000000E+00	0.0000000000E+00	6.1197399300E+03	6.1197399300E+03	9.3827000000E-01	0.000E+00	0.0
	2212	1	0	0	0	0	0.0000000000E+00	0.0000000000E+00	-5.7715438600E+03	5.7715438600E+03	9.3827000000E-01	0.000E+00	0.0
	51	2	1	2	0	0	-1.4703468343E+02	3.9099904260E+00	-3.8133141952E+02	1.1291852234E+03	1.0526210767E+03	0.000E+00	0.0
	1000022	2	5	5	0	0	1.4703468343E+02	-3.9099904260E+00	-2.5400333068E+02	8.9382996001E+02	8.4426288516E+02	0.000E+00	0.0
	14	1	6	6	0	0	-1.9159192988E+01	2.4236303613E+02	-5.1378462081E+01	4.0911081913E+02	3.2500000000E+02	0.000E+00	0.0
	-14	1	6	6	0	0	1.6619387641E+02	-2.4627302656E+02	-2.0262486860E+02	4.8471914089E+02	3.2500000000E+02	0.000E+00	0.0
	25	2	5	5	0	0	-1.4703468343E+02	3.9099904260E+00	-9.4192739260E+01	2.1488624997E+02	1.2517724290E+02	0.000E+00	0.0
	-5	1	9	9	0	501	-1.6496437775E+02	-1.1821676800E+01	-6.7050011520E+01	1.7851099242E+02	4.1800000000E+00	0.000E+00	0.0
	5	1	9	9	501	0	1.7929694327E+01	1.5731667226E+01	-2.7142727740E+01	3.6375257546E+01	4.1800000000E+00	0.000E+00	0.0
</event>
<event>
    11  -1  1.0000000E+00  1.0000000E+00  -1.0000000E+00  -1.0000000E+00
	2212	-1	0	0	0	0	0.0000000000E+00	0.0000000000E+00	6.5000000000E+03	6.5000000000E+03	9.3827000000E-01	0.000E+00	0.0
	2212	-1	0	0	0	0	0.0000000000E+00	0.0000000000E+00	-6.5000000000E+03	6.5000000000E+03	9.3827000000E-01	0.000E+00	0.0
	2212	1	0	0	0	0	0.0000000000E+00	0.0000000000E+00	5.5360542611E+03	5.5360542611E+03	9.3827000000E-01	0.000E+00	0.0
	2212	1	0	0	0	0	0.0000000000E+00	0.0000000000E+00	-6.2134221714E+03	6.2134221714E+03	9.3827000000E-01	0.000E+00	0.0
	51	2	1	2	0	0	-1.2621541261E+02	2.1793791774E+01	7.5409040550E+02	1.3000152101E+03	1.0511811962E+03	0.000E+00	0.0
	1000022	2	5	5	0	0	1.2621541261E+02	-2.1793791774E+01	4.8514563362E+02	9.8780186709E+02	8.5087069704E+02	0.000E+00	0.0
	14	1	6	6	0	0	2.7151885667E+02	1.6946673177E+02	2.6750868408E+02	5.2879803211E+02	3.2500000000E+02	0.000E+00	0.0
	-14	1	6	6	0	0	-1.4530344406E+02	-1.9126052355E+02	2.1763694954E+02	4.5900383499E+02	3.2500000000E+02	0.000E+00	0.0
	25	2	5	5	0	0	-1.2621541261E+02	2.1793791774E+01	1.9222227666E+02	2.6272170047E+02	1.2517183596E+02	0.000E+00	0.0
	-5	1	9	9	0	501	-1.4482545756E+02	-6.2704982699E+00	1.5166353131E+02	2.0984049046E+02	4.1800000000E+00	0.000E+00	0.0
	5	1	9	9	501	0	1.8610044950E+01	2.8064290044E+01	4.0558745346E+01	5.2881210016E+01	4.1800000000E+00	0.000E+00	0.0
</event>
<event>
    11  -1  1.0000000E+00  1.0000000E+00  -1.0000000E+00  -1.0000000E+00
	2212	-1	0	0	0	0	0.0000000000E+00	0.0000000000E+00	6.5000000000E+03	6.5000000000E+03	9.3827000000E-01	0.000E+00	0.0
	2212	-1	0	0	0	0	0.0000000000E+00	0.0000000000E+00	-6.5000000000E+03	6.5000000000E+03	9.3827000000E-01	0.000E+00	0.0
	2212	1	0	0	0	0	0.0000000000E+00	0.0000000000E+00	5.4521489903E+03	5.4521489903E+03	9.3827000000E-01	0.000E+00	0.0
	2212	1	0	0	0	0	0.0000000000E+00	0.0000000000E+00	-6.2349296455E+03	6.2349296455E+03	9.3827000000E-01	0.000E+00	0.0
	51	2	1	2	0	0	1.0078980498E+02	-5.9239672734E+01	9.6493126913E+02	1.4337981840E+03	1.0540478901E+03	0.000E+00	0.0
	1000022	2	5	5	0	0	-1.0078980498E+02	5.9239672734E+01	4.4905008409E+02	9.3780657530E+02	8.1496458269E+02	0.000E+00	0.0
	14	1	6	6	0	0	-1.5526722289E+02	2.4662558145E+02	3.0383881728E+02	5.3186005191E+02	3.2500000000E+02	0.000E+00	0.0
	-14	1	6	6	0	0	5.4477417904E+01	-1.8738590871E+02	1.4521126681E+02	4.0594652339E+02	3.2500000000E+02	0.000E+00	0.0
	25	2	5	5	0	0	1.0078980498E+02	-5.9239672734E+01	3.3373057110E+02	3.7511478897E+02	1.2516823560E+02	0.000E+00	0.0
	-5	1	9	9	0	501	-2.5040523095E+01	-2.4943430314E+01	3.9046440716E+01	5.2832749742E+01	4.1800000000E+00	0.000E+00	0.0
	5	1	9	9	501	0	1.2583032808E+02	-3.4296242420E+01	2.9468413038E+02	3.2228203923E+02	4.1800000000E+00	0.000E+00	0.0
</event>
<event>
    11  -1  1.0000000E+00  1.0000000E+00  -1.0000000E+00  -1.0000000E+00
	2212	-1	0	0	0	0	0.0000000000E+00	0.0000000000E+00	6.5000000000E+03	6.5000000000E+03	9.3827000000E-01	0.000E+00	0.0
	2212	-1	0	0	0	0	0.0000000000E+00	0.0000000000E+00	-6.5000000000E+03	6.5000000000E+03	9.3827000000E-01	0.000E+00	0.0
	2212	1	0	0	0	0	0.0000000000E+00	0.0000000000E+00	6.0457115196E+03	6.0457115196E+03	9.3827000000E-01	0.000E+00	0.0
	2212	1	0	0	0	0	0.0000000000E+00	0.0000000000E+00	-5.9127684311E+03	5.9127684311E+03	9.3827000000E-01	0.000E+00	0.0
	51	2	1	2	0	0	1.9566083079E+01	-8.4392131072E+01	-6.3610246056E+01	1.0385765620E+03	1.0330005558E+03	0.000E+00	0.0
	1000022	2	5	5	0	0	-1.9566083079E+01	8.4392131072E+01	-1.8149428469E+02	8.8165325951E+02	8.5840982708E+02	0.000E+00	0.0
	14	1	6	6	0	0	9.0388723594E+01	-1.8917827299E+02	-2.1332011702E+02	4.4168881879E+02	3.2500000000E+02	0.000E+00	0.0
	-14	1	6	6	0	0	-1.0995480667E+02	2.7357040406E+02	3.1825832323E+01	4.3996444071E+02	3.2500000000E+02	0.000E+00	0.0
	25	2	5	5	0	0	1.9566083079E+01	-8.4392131072E+01	4.8551196271E+01	1.5986678981E+02	1.2528091806E+02	0.000E+00	0.0
	-5	1	9	9	0	501	6.8243627669E+01	-7.5282717700E+01	4.0762308020E+01	1.0956148254E+02	4.1800000000E+00	0.000E+00	0.0
	5	1	9	9	501	0	-4.8677544589E+01	-9.1094133720E+00	7.7888882513E+00	5.0305307269E+01	4.1800000000E+00	0.000E+00	0.0
</event>
<event>
    11  -1  1.0000000E+00  1.0000000E+00  -1.0000000E+00  -1.0000000E+00
	2212	-1	0	0	0	0	0.0000000000E+00	0.0000000000E+00	6.5000000000E+03	6.5000000000E+03	9.3827000000E-01	0.000E+00	0.0
	2212	-1	0	0	0	0	0.0000000000E+00	0.0000000000E+00	-6.5000000000E+03	6.5000000000E+03	9.3827000000E-01	0.000E+00	0.0
	2212	1	0	0	0	0	0.0000000000E+00	0.0000000000E+00	5.8677128172E+03	5.8677128172E+03	9.3827000000E-01	0.000E+00	0.0
	2212	1	0	0	0	0	0.0000000000E+00	0.0000000000E+00	-6.0650570265E+03	6.0650570265E+03	9.3827000000E-01	0.000E+00	0.0
	51	2	1	2	0	0	-5.8259581451E+01	-1.1771416694E+02	2.3718730890E+02	1.0833024015E+03	1.0488257575E+03	0.000E+00	0.0
	1000022	2	5	5	0	0	5.8259581451E+01	1.1771416694E+02	1.2430591791E+02	8.7163954655E+02	8.5267387315E+02	0.000E+00	0.0
	14	1	6	6	0	0	-4.8903179645E+01	-1.6015135897E+01	-1.9703314552E+02	3.8352974590E+02	3.2500000000E+02	0.000E+00	0.0
	-14	1	6	6	0	0	1.0716276110E+02	1.3372930284E+02	3.2133906343E+02	4.8810980065E+02	3.2500000000E+02	0.000E+00	0.0
	25	2	5	5	0	0	-5.8259581451E+01	-1.1771416694E+02	7.3038291386E+01	1.9559060975E+02	1.2518103165E+02	0.000E+00	0.0
	-5	1	9	9	0	501	-1.8804991914E+01	4.4099780897E-01	-2.8790537895E+01	3.4643753726E+01	4.1800000000E+00	0.000E+00	0.0
	5	1	9	9	501	0	-3.9454589537E+01	-1.1815516475E+02	1.0182882928E+02	1.6094685603E+02	4.1800000000E+00	0.000E+00	0.0
</event>
<event>
    11  -1  1.0000000E+00  1.0000000E+00  -1.0000000E+00  -1.0000000E+00
	2212	-1	0	0	0	0	0.0000000000E+00	0.0000000000E+00	6.5000000000E+03	6.5000000000E+03	9.3827000000E-01	0.000E+00	0.0
	2212	-1	0	0	0	0	0.0000000000E+00	0.0000000000E+00	-6.5000000000E+03	6.5000000000E+03	9.3827000000E-01	0.000E+00	0.0
	2212	1	0	0	0	0	0.0000000000E+00	0.0000000000E+00	6.2628161482E+03	6.2628161482E+03	9.3827000000E-01	0.000E+00	0.0
	2212	1	0	0	0	0	0.0000000000E+00	0.0000000000E+00	-5.3371567892E+03	5.3371567892E+03	9.3827000000E-01	0.000E+00	0.0
	51	2	1	2	0	0	-1.2560472096E+02	5.5567470289E+01	-9.5724203625E+02	1.4277279617E+03	1.0503478124E+03	0.000E+00	0.0
	1000022	2	5	5	0	0	1.2560472096E+02	-5.5567470289E+01	-7.3757817742E+02	1.1356277072E+03	8.5250479876E+02	0.000E+00	0.0
	14	1	6	6	0	0	-1.4888434127E+02	-1.0157733990E+02	-5.6058409648E+02	6.7258013075E+02	3.2500000000E+02	0.000E+00	0.0
	-14	1	6	6	0	0	2.7448906223E+02	4.6009869608E+01	-1.7699408094E+02	4.6304757647E+02	3.2500000000E+02	0.000E+00	0.0
	25	2	5	5	0	0	-1.2560472096E+02	5.5567470289E+01	-1.8808118154E+02	2.6439935534E+02	1.2517267503E+02	0.000E+00	0.0
	-5	1	9	9	0	501	-1.3952997755E+02	7.3021948403E+01	-1.3810478872E+02	2.0950232613E+02	4.1800000000E+00	0.000E+00	0.0
	5	1	9	9	501	0	1.3925256594E+01	-1.7454478113E+01	-4.9976392819E+01	5.4897029215E+01	4.1800000000E+00	0.000E+00	0.0
</event>
<event>
    11  -1  1.0000000E+00  1.0000000E+00  -1.0000000E+00  -1.0000000E+00
	2212	-1	0	0	0	0	0.0000000000E+00	0.0000000000E+00	6.5000000000E+03	6.5000000000E+03	9.3827000000E-01	0.000E+00	0.0
	2212	-1	0	0	0	0	0.0000000000E+00	0.0000000000E+00	-6.5000000000E+03	6.5000000000E+03	9.3827000000E-01	0.000E+00	0.0
	2212	1	0	0	0	0	0.0000000000E+00	0.0000000000E+00	6.1752013304E+03	6.1752013304E+03	9.3827000000E-01	0.000E+00	0.0
	2212	1	0	0	0	0	0.0000000000E+00	0.0000000000E+00	-5.6447144652E+03	5.6447144652E+03	9.3827000000E-01	0.000E+00	0.0
	51	2	1	2	0	0	1.2211770156E+02	-2.5298694691E+00	-6.2779788436E+02	1.2329767769E+03	1.0541263755E+03	0.000E+00	0.0
	1000022	2	5	5	0	0	-1.2211770156E+02	2.5298694691E+00	-3.4104860459E+02	9.2225177477E+02	8.4812443197E+02	0.000E+00	0.0
	14	1	6	6	0	0	2.1162679033E+02	3.6519345355E+01	-1.4403813560E+02	4.1532101497E+02	3.2500000000E+02	0.000E+00	0.0
	-14	1	6	6	0	0	-3.3374449189E+02	-3.3989475886E+01	-1.9701046899E+02	5.0693075980E+02	3.2500000000E+02	0.000E+00	0.0
	25	2	5	5	0	0	1.2211770156E+02	-2.5298694691E+00	-1.8943826061E+02	2.5783242970E+02	1.2518615719E+02	0.000E+00	0.0
	-5	1	9	9	0	501	1.3243731153E+02	9.4180478307E+00	-9.8328221219E+01	1.6527024112E+02	4.1800000000E+00	0.000E+00	0.0
	5	1	9	9	501	0	-1.0319609978E+01	-1.1947917300E+01	-9.1110039390E+01	9.2562188585E+01	4.1800000000E+00	0.000E+00	0.0
</event>
<event>
    11  -1  1.0000000E+00  1.0000000E+00  -1.0000000E+00  -1.0000000E+00
	2212	-1	0	0	0	0	0.0000000000E+00	0.0000000000E+00	6.5000000000E+03	6.5000000000E+03	9.3827000000E-01	0.000E+00	0.0
	2212	-1	0	0	0	0	0.0000000000E+00	0.0000000000E+00	-6.5000000000E+03	6.5000000000E+03	9.3827000000E-01	0.000E+00	0.0
	2212	1	0	0	0	0	0.0000000000E+00	0.0000000000E+00	5.8735759344E+03	5.8735759344E+03	9.3827000000E-01	0.000E+00	0.0
	2212	1	0	0	0	0	0.0000000000E+00	0.0000000000E+00	-6.0653278867E+03	6.0653278867E+03	9.3827000000E-01	0.000E+00	0.0
	51	2	1	2	0	0	9.4153806085E+01	1.9382909782E+01	2.4564820778E+02	1.0764478474E+03	1.0436265088E+03	0.000E+00	0.0
	1000022	2	5	5	0	0	-9.4153806085E+01	-1.9382909782E+01	1.0835625925E+02	8.8250371906E+02	8.7053494981E+02	0.000E+00	0.0
	14	1	6	6	0	0	-5.5568525477E+01	-7.4442896072E+01	3.3870664199E+02	4.7851519843E+02	3.2500000000E+02	0.000E+00	0.0
	-14	1	6	6	0	0	-3.8585280609E+01	5.5059986290E+01	-2.3035038274E+02	4.0398852063E+02	3.2500000000E+02	0.000E+00	0.0
	25	2	5	5	0	0	9.4153806085E+01	1.9382909782E+01	8.3395693032E+01	1.7859245990E+02	1.2529879778E+02	0.000E+00	0.0
	-5	1	9	9	0	501	6.5510246496E+01	7.2235609645E+01	4.9198955758E+01	1.0930501061E+02	4.1800000000E+00	0.000E+00	0.0
	5	1	9	9	501	0	2.8643559589E+01	-5.2852699864E+01	3.4196737274E+01	6.9287449290E+01	4.1800000000E+00	0.000E+00	0.0
</event>
<event>
    11  -1  1.0000000E+00  1.0000000E+00  -1.0000000E+00  -1.0000000E+00
	2212	-1	0	0	0	0	0.0000000000E+00	0.0000000000E+00	6.5000000000E+03	6.5000000000E+03	9.3827000000E-01	0.000E+00	0.0
	2212	-1	0	0	0	0	0.0000000000E+00	0.0000000000E+00	-6.5000000000E+03	6.5000000000E+03	9.3827000000E-01	0.000E+00	0.0
	2212	1	0	0	0	0	0.0000000000E+00	0.0000000000E+00	6.3260282076E+03	6.3260282076E+03	9.3827000000E-01	0.000E+00	0.0
	2212	1	0	0	0	0	0.0000000000E+00	0.0000000000E+00	-4.8826746508E+03	4.8826746508E+03	9.3827000000E-01	0.000E+00	0.0
	51	2	1	2	0	0	4.9910522818E+01	1.0226294184E+02	-1.6573516998E+03	1.9711010593E+03	1.0608845176E+03	0.000E+00	0.0
	1000022	2	5	5	0	0	-4.9910522818E+01	-1.0226294184E+02	-9.6667245448E+02	1.2854863132E+03	8.3968485611E+02	0.000E+00	0.0
	14	1	6	6	0	0	-1.9352443392E+02	9.8848477585E+01	-2.6054743301E+02	4.6982198000E+02	3.2500000000E+02	0.000E+00	0.0
	-14	1	6	6	0	0	1.4361391111E+02	-2.0111141942E+02	-7.0612502147E+02	8.1566433318E+02	3.2500000000E+02	0.000E+00	0.0
	25	2	5	5	0	0	4.9910522818E+01	1.0226294184E+02	-4.7668110232E+02	5.0581082845E+02	1.2518367030E+02	0.000E+00	0.0
	-5	1	9	9	0	501	-4.1025496231E+01	1.7530074976E+01	-1.2606709589E+02	1.3379379633E+02	4.1800000000E+00	0.000E+00	0.0
	5	1	9	9	501	0	9.0936019049E+01	8.4732866860E+01	-3.5061400643E+02	3.7201703212E+02	4.1800000000E+00	0.000E+00	0.0
</event>
<event>
    11  -1  1.0000000E+00  1.0000000E+00  -1.0000000E+00  -1.0000000E+00
	2212	-1	0	0	0	0	0.0000000000E+00	0.0000000000E+00	6.5000000000E+03	6.5000000000E+03	9.3827000000E-01	0.000E+00	0.0
	2212	-1	0	0	0	0	0.0000000000E+00	0.0000000000E+00	-6.5000000000E+03	6.5000000000E+03	9.3827000000E-01	0.000E+00	0.0
	2212	1	0	0	0	0	0.0000000000E+00	0.0000000000E+00	6.1437868015E+03	6.1437868015E+03	9.3827000000E-01	0.000E+00	0.0
	2212	1	0	0	0	0	0.0000000000E+00	0.0000000000E+00	-5.7694708374E+03	5.7694708374E+03	9.3827000000E-01	0.000E+00	0.0
	51	2	1	2	0	0	-7.2592771389E+01	-8.3614861405E+01	-3.9578207842E+02	1.0999095997E+03	1.0202433623E+03	0.000E+00	0.0
	1000022	2	5	5	0	0	7.2592771389E+01	8.3614861405E+01	-2.9343479750E+02	9.0107685812E+02	8.4473331197E+02	0.000E+00	0.0
	14	1	6	6	0	0	1.3262939007E+02	-9.9675620906E+01	7.5837274569E+01	3.7269568917E+02	3.2500000000E+02	0.000E+00	0.0
	-14	1	6	6	0	0	-6.0036618685E+01	1.8329048231E+02	-3.6927207207E+02	5.2838116895E+02	3.2500000000E+02	0.000E+00	0.0
	25	2	5	5	0	0	-7.2592771389E+01	-8.3614861405E+01	-8.0881166559E+01	1.8566550295E+02	1.2517491912E+02	0.000E+00	0.0
	-5	1	9	9	0	501	3.2586504373E+01	-1.8029331683E+00	-2.3976524646E+01	4.0712123125E+01	4.1800000000E+00	0.000E+00	0.0
	5	1	9	9	501	0	-1.0517927576E+02	-8.1811928237E+01	-5.6904641913E+01	1.4495337983E+02	4.1800000000E+00	0.000E+00	0.0
</event>
<event>
    11  -1  1.0000000E+00  1.0000000E+00  -1.0000000E+00  -1.0000000E+00
	2212	-1	0	0	0	0	0.0000000000E+00	0.0000000000E+00	6.5000000000E+03	6.5000000000E+03	9.3827000000E-01	0.000E+00	0.0
	2212	-1	0	0	0	0	0.0000000000E+00	0.0000000000E+00	-6.5000000000E+03	6.5000000000E+03	9.3827000000E-01	0.000E+00	0.0
	2212	1	0	0	0	0	0.0000000000E+00	0.0000000000E+00	5.7345909612E+03	5.7345909612E+03	9.3827000000E-01	0.000E+00	0.0
	2212	1	0	0	0	0	0.0000000000E+00	0.0000000000E+00	-6.1363419574E+03	6.1363419574E+03	9.3827000000E-01	0.000E+00	0.0
	51	2	1	2	0	0	6.5636409843E+01	1.0570722784E+02	3.2814577183E+02	1.1120028846E+03	1.0551723136E+03	0.000E+00	0.0
	1000022	2	5	5	0	0	-6.5636409843E+01	-1.0570722784E+02	4.0645704909E+02	9.5249943354E+02	8.5238822247E+02	0.000E+00	0.0
	14	1	6	6	0	0	7.2226590114E+01	9.6537436099E+00	4.6964418406E+02	5.7576083117E+02	3.2500000000E+02	0.000E+00	0.0
	-14	1	6	6	0	0	-1.3786299996E+02	-1.1536097145E+02	-6.3187134963E+01	3.7673860237E+02	3.2500000000E+02	0.000E+00	0.0
	25	2	5	5	0	0	6.5636409843E+01	1.0570722784E+02	-4.7060528516E+00	1.7656764792E+02	1.2518718402E+02	0.000E+00	0.0
	-5	1	9	9	0	501	-1.1470155340E+01	-2.3206540327E+01	-1.4079125633E+00	2.6259523896E+01	4.1800000000E+00	0.000E+00	0.0
	5	1	9	9	501	0	7.7106565184E+01	1.2891376816E+02	-3.2981402883E+00	1.5030812402E+02	4.1800000000E+00	0.000E+00	0.0
</event>
<event>
    11  -1  1.0000000E+00  1.0000000E+00  -1.0000000E+00  -1.0000000E+00
	2212	-1	0	0	0	0	0.0000000000E+00	0.0000000000E+00	6.5000000000E+03	6.5000000000E+03	9.3827000000E-01	0.000E+00	0.0
	2212	-1	0	0	0	0	0.0000000000E+00	0.0000000000E+00	-6.5000000000E+03	6.5000000000E+03	9.3827000000E-01	0.000E+00	0.0
	2212	1	0	0	0	0	0.0000000000E+00	0.0000000000E+00	5.6691082947E+03	5.6691082947E+03	9.3827000000E-01	0.000E+00	0.0
	2212	1	0	0	0	0	0.0000000000E+00	0.0000000000E+00	-6.1683386938E+03	6.1683386938E+03	9.3827000000E-01	0.000E+00	0.0
	51	2	1	2	0	0	1.0246514952E+02	9.6333709039E+01	4.6253603867E+02	1.1558621850E+03	1.0499040495E+03	0.000E+00	0.0
	1000022	2	5	5	0	0	-1.0246514952E+02	-9.6333709039E+01	4.4941435150E+02	9.6778788619E+02	8.4549443698E+02	0.000E+00	0.0
	14	1	6	6	0	0	2.0081457360E+02	-1.2259316624E+01	3.1650055059E+02	4.9626039771E+02	3.2500000000E+02	0.000E+00	0.0
	-14	1	6	6	0	0	-3.0327972313E+02	-8.4074392415E+01	1.3291380091E+02	4.7152748848E+02	3.2500000000E+02	0.000E+00	0.0
	25	2	5	5	0	0	1.0246514952E+02	9.6333709039E+01	4.9816047530E+01	1.9476512530E+02	1.2518995597E+02	0.000E+00	0.0
	-5	1	9	9	0	501	-2.9364319036E+01	1.9303378825E+01	1.2493471697E+01	3.7529227297E+01	4.1800000000E+00	0.000E+00	0.0
	5	1	9	9	501	0	1.3182946856E+02	7.7030330214E+01	3.7322575833E+01	1.5723589800E+02	4.1800000000E+00	0.000E+00	0.0
</event>
<event>
    11  -1  1.0000000E+00  1.0000000E+00  -1.0000000E+00  -1.0000000E+00
	2212	-1	0	0	0	0	0.0000000000E+00	0.0000000000E+00	6.5000000000E+03	6.5000000000E+03	9.3827000000E-01	0.000E+00	0.0
	2212	-1	0	0	0	0	0.0000000000E+00	0.0000000000E+00	-6.5000000000E+03	6.5000000000E+03	9.3827000000E-01	0.000E+00	0.0
	2212	1	0	0	0	0	0.0000000000E+00	0.0000000000E+00	5.0319831242E+03	5.0319831242E+03	9.3827000000E-01	0.000E+00	0.0
	2212	1	0	0	0	0	0.0000000000E+00	0.0000000000E+00	-6.3123326862E+03	6.3123326862E+03	9.3827000000E-01	0.000E+00	0.0
	51	2	1	2	0	0	9.2457211977E+01	4.2471891544E+01	1.1280195761E+03	1.5442718338E+03	1.0497595605E+03	0.000E+00	0.0
	1000022	2	5	5	0	0	-9.2457211977E+01	-4.2471891544E+01	1.2106247098E+03	1.4799463050E+03	8.4514891003E+02	0.000E+00	0.0
	14	1	6	6	0	0	6.8289324926E+01	2.1120543446E+02	4.3227906660E+02	5.8460359122E+02	3.2500000000E+02	0.000E+00	0.0
	-14	1	6	6	0	0	-1.6074653690E+02	-2.5367732601E+02	7.7834564317E+02	8.9534271377E+02	3.2500000000E+02	0.000E+00	0.0
	25	2	5	5	0	0	9.2457211977E+01	4.2471891544E+01	6.9724852175E+01	1.7573788459E+02	1.2518007610E+02	0.000E+00	0.0
	-5	1	9	9	0	501	8.4404934936E+00	-2.6071144161E+01	6.0848701735E+01	6.6865412518E+01	4.1800000000E+00	0.000E+00	0.0
	5	1	9	9	501	0	8.4016718484E+01	6.8543035706E+01	8.8761504395E+00	1.0887247207E+02	4.1800000000E+00	0.000E+00	0.0
</event>
<event>
    11  -1  1.0000000E+00  1.0000000E+00  -1.0000000E+00  -1.0000000E+00
	2212	-1	0	0	0	0	0.0000000000E+00	0.0000000000E+00	6.5000000000E+03	6.5000000000E+03	9.3827000000E-01	0.000E+00	0.0
	2212	-1	0	0	0	0	0.0000000000E+00	0.0000000000E+00	-6.5000000000E+03	6.5000000000E+03	9.3827000000E-01	0.000E+00	0.0
	2212	1	0	0	0	0	0.0000000000E+00	0.0000000000E+00	4.8681137409E+03	4.8681137409E+03	9.3827000000E-01	0.000E+00	0.0
	2212	1	0	0	0	0	0.0000000000E+00	0.0000000000E+00	-6.3095853914E+03	6.3095853914E+03	9.3827000000E-01	0.000E+00	0.0
	51	2	1	2	0	0	1.3284358482E+02	-1.3436509110E+02	1.3298392902E+03	1.7455984266E+03	1.1148721602E+03	0.000E+00	0.0
	1000022	2	5	5	0	0	-1.3284358482E+02	1.3436509110E+02	1.2653965563E+03	1.5352850604E+03	8.4862852666E+02	0.000E+00	0.0
	14	1	6	6	0	0	-1.9907587704E+02	1.0245797892E+02	2.5136124784E+02	4.6790631453E+02	3.2500000000E+02	0.000E+00	0.0
	-14	1	6	6	0	0	6.6232292219E+01	3.1907112186E+01	1.0140353084E+03	1.0673787459E+03	3.2500000000E+02	0.000E+00	0.0
	25	2	5	5	0	0	1.3284358482E+02	-1.3436509110E+02	1.7607509421E+02	2.8701580739E+02	1.2519680169E+02	0.000E+00	0.0
	-5	1	9	9	0	501	-2.2107021223E+01	-2.5605788560E+01	1.1026393261E+01	3.5824998862E+01	4.1800000000E+00	0.000E+00	0.0
	5	1	9	9	501	0	1.5495060604E+02	-1.0875930254E+02	1.6504870095E+02	2.5119080853E+02	4.1800000000E+00	0.000E+00	0.0
</event>
<event>
    11  -1  1.0000000E+00  1.0000000E+00  -1.0000000E+00  -1.0000000E+00
	2212	-1	0	0	0	0	0.0000000000E+00	0.0000000000E+00	6.5000000000E+03	6.5000000000E+03	9.3827000000E-01	0.000E+00	0.0
	2212	-1	0	0	0	0	0.0000000000E+00	0.0000000000E+00	-6.5000000000E+03	6.5000000000E+03	9.3827000000E-01	0.000E+00	0.0
	2212	1	0	0	0	0	0.0000000000E+00	0.0000000000E+00	5.9154222272E+03	5.9154222272E+03	9.3827000000E-01	0.000E+00	0.0
	2212	1	0	0	0	0	0.0000000000E+00	0.0000000000E+00	-6.0279350546E+03	6.0279350546E+03	9.3827000000E-01	0.000E+00	0.0
	51	2	1	2	0	0	1.4661098060E+02	-9.9828698198E+00	9.0954323850E+01	1.0647543492E+03	1.0506353781E+03	0.000E+00	0.0
	1000022	2	5	5	0	0	-1.4661098060E+02	9.9828698198E+00	1.1437853269E+02	8.6358993590E+02	8.4327379381E+02	0.000E+00	0.0
	14	1	6	6	0	0	7.4193578635E+01	8.9422350248E+01	2.6522842462E+02	4.3528400047E+02	3.2500000000E+02	0.000E+00	0.0
	-14	1	6	6	0	0	-2.2080455924E+02	-7.9439480429E+01	-1.5084989193E+02	4.2830593543E+02	3.2500000000E+02	0.000E+00	0.0
	25	2	5	5	0	0	1.4661098060E+02	-9.9828698198E+00	-1.8657053076E+00	1.9305278236E+02	1.2518569645E+02	0.000E+00	0.0
	-5	1	9	9	0	501	1.3624589771E+02	-5.4561060879E+01	-5.7044431362E+00	1.4693490763E+02	4.1800000000E+00	0.000E+00	0.0
	5	1	9	9	501	0	1.0365082890E+01	4.4578191060E+01	3.8387378286E+00	4.6117874730E+01	4.1800000000E+00	0.000E+00	0.0
</event>
<event>
    11  -1  1.0000000E+00  1.0000000E+00  -1.0000000E+00  -1.0000000E+00
	2212	-1	0	0	0	0	0.0000000000E+00	0.0000000000E+00	6.5000000000E+03	6.5000000000E+03	9.3827000000E-01	0.000E+00	0.0
	2212	-1	0	0	0	0	0.0000000000E+00	0.0000000000E+00	-6.5000000000E+03	6.5000000000E+03	9.3827000000E-01	0.000E+00	0.0
	2212	1	0	0	0	0	0.0000000000E+00	0.0000000000E+00	6.2266571445E+03	6.2266571445E+03	9.3827000000E-01	0.000E+00	0.0
	2212	1	0	0	0	0	0.0000000000E+00	0.0000000000E+00	-5.4958601406E+03	5.4958601406E+03	9.3827000000E-01	0.000E+00	0.0
	51	2	1	2	0	0	-6.9385578449E+00	6.9641585211E+01	-8.9258963963E+02	1.3782279146E+03	1.0478061967E+03	0.000E+00	0.0
	1000022	2	5	5	0	0	6.9385578449E+00	-6.9641585211E+01	-4.4236062316E+02	9.5535566156E+02	8.4387405765E+02	0.000E+00	0.0
	14	1	6	6	0	0	2.5184533127E+02	-9.1929482395E+01	-3.2239929148E+02	5.3051239737E+02	3.2500000000E+02	0.000E+00	0.0
	-14	1	6	6	0	0	-2.4490677342E+02	2.2287897184E+01	-1.1996133168E+02	4.2484326419E+02	3.2500000000E+02	0.000E+00	0.0
	25	2	5	5	0	0	-6.9385578449E+00	6.9641585211E+01	-2.8843638079E+02	3.2212705331E+02	1.2518865257E+02	0.000E+00	0.0
	-5	1	9	9	0	501	5.1364774864E+01	5.1980966178E+01	-2.1208530087E+02	2.2436133398E+02	4.1800000000E+00	0.000E+00	0.0
	5	1	9	9	501	0	-5.8303332709E+01	1.7660619032E+01	-7.6351079919E+01	9.7765719321E+01	4.1800000000E+00	0.000E+00	0.0
</event>
<event>
    11  -1  1.0000000E+00  1.0000000E+00  -1.0000000E+00  -1.0000000E+00
	2212	-1	0	0	0	0	0.0000000000E+00	0.0000000000E+00	6.5000000000E+03	6.5000000000E+03	9.3827000000E-01	0.000E+00	0.0
	2212	-1	0	0	0	0	0.0000000000E+00	0.0000000000E+00	-6.5000000000E+03	6.5000000000E+03	9.3827000000E-01	0.000E+00	0.0
	2212	1	0	0	0	0	0.0000000000E+00	0.0000000000E+00	6.3298688520E+03	6.3298688520E+03	9.3827000000E-01	0.000E+00	0.0
	2212	1	0	0	0	0	0.0000000000E+00	0.0000000000E+00	-4.9230405782E+03	4.9230405782E+03	9.3827000000E-01	0.000E+00	0.0
	51	2	1	2	0	0	9.4545979269E+01	7.6494831511E+01	-1.4233866576E+03	1.7646471732E+03	1.0359342003E+03	0.000E+00	0.0
	1000022	2	5	5	0	0	-9.4545979269E+01	-7.6494831511E+01	-1.1628507590E+03	1.4471101438E+03	8.5271066541E+02	0.000E+00	0.0
	14	1	6	6	0	0	2.1903995721E+02	-7.1005341761E+01	-6.6290464948E+02	7.7336138753E+02	3.2500000000E+02	0.000E+00	0.0
	-14	1	6	6	0	0	-3.1358593648E+02	-5.4894897508E+00	-4.9994610956E+02	6.7374875623E+02	3.2500000000E+02	0.000E+00	0.0
	25	2	5	5	0	0	9.4545979269E+01	7.6494831511E+01	-2.4397751474E+02	2.9998042609E+02	1.2519116142E+02	0.000E+00	0.0
	-5	1	9	9	0	501	-2.4842114991E+01	-2.0815230141E+00	-1.3250943210E+01	2.8539854787E+01	4.1800000000E+00	0.000E+00	0.0
	5	1	9	9	501	0	1.1938809426E+02	7.8576354525E+01	-2.3072657153E+02	2.7144057131E+02	4.1800000000E+00	0.000E+00	0.0
</event>
<event>
    11  -1  1.0000000E+00  1.0000000E+00  -1.0000000E+00  -1.0000000E+00
	2212	-1	0	0	0	0	0.0000000000E+00	0.0000000000E+00	6.5000000000E+03	6.5000000000E+03	9.3827000000E-01	0.000E+00	0.0
	2212	-1	0	0	0	0	0.0000000000E+00	0.0000000000E+00	-6.5000000000E+03	6.5000000000E+03	9.3827000000E-01	0.000E+00	0.0
	2212	1	0	0	0	0	0.0000000000E+00	0.0000000000E+00	5.9967103687E+03	5.9967103687E+03	9.3827000000E-01	0.000E+00	0.0
	2212	1	0	0	0	0	0.0000000000E+00	0.0000000000E+00	-5.9509963992E+03	5.9509963992E+03	9.3827000000E-01	0.000E+00	0.0
	51	2	1	2	0	0	-1.1948066001E+02	-2.5301695076E+01	2.3391724289E+01	1.0586284787E+03	1.0512998046E+03	0.000E+00	0.0
	1000022	2	5	5	0	0	1.1948066001E+02	2.5301695076E+01	-1.0704373159E+02	8.6696324048E+02	8.5161675417E+02	0.000E+00	0.0
	14	1	6	6	0	0	1.8615128434E+02	1.3021273314E+02	-2.7303725832E+02	4.8143743204E+02	3.2500000000E+02	0.000E+00	0.0
	-14	1	6	6	0	0	-6.6670624331E+01	-1.0491103807E+02	1.6599352673E+02	3.8552580844E+02	3.2500000000E+02	0.000E+00	0.0
	25	2	5	5	0	0	-1.1948066001E+02	-2.5301695076E+01	6.1329762083E+01	1.8532999159E+02	1.2518011893E+02	0.000E+00	0.0
	-5	1	9	9	0	501	-4.1499093402E+01	-7.2103257489E+01	2.1998348044E+01	8.6153666262E+01	4.1800000000E+00	0.000E+00	0.0
	5	1	9	9	501	0	-7.7981566603E+01	4.6801562413E+01	3.9331414040E+01	9.9176325323E+01	4.1800000000E+00	0.000E+00	0.0
</event>
<event>
    11  -1  1.0000000E+00  1.0000000E+00  -1.0000000E+00  -1.0000000E+00
	2212	-1	0	0	0	0	0.0000000000E+00	0.0000000000E+00	6.5000000000E+03	6.5000000000E+03	9.3827000000E-01	0.000E+00	0.0
	2212	-1	0	0	0	0	0.0000000000E+00	0.0000000000E+00	-6.5000000000E+03	6.5000000000E+03	9.3827000000E-01	0.000E+00	0.0
	2212	1	0	0	0	0	0.0000000000E+00	0.0000000000E+00	5.0337358938E+03	5.0337358938E+03	9.3827000000E-01	0.000E+00	0.0
	2212	1	0	0	0	0	0.0000000000E+00	0.0000000000E+00	-6.2390802117E+03	6.2390802117E+03	9.3827000000E-01	0.000E+00	0.0
	51	2	1	2	0	0	2.5491654019E+02	-1.4130115444E+02	1.1000763044E+03	1.6809002394E+03	1.2370567006E+03	0.000E+00	0.0
	1000022	2	5	5	0	0	-2.5491654019E+02	1.4130115444E+02	1.0229647982E+03	1.3612864165E+03	8.4952649788E+02	0.000E+00	0.0
	14	1	6	6	0	0	9.1395666795E+00	-1.7834342966E+02	4.0037165723E+02	5.4572188383E+02	3.2500000000E+02	0.000E+00	0.0
	-14	1	6	6	0	0	-2.6405610687E+02	3.1964458410E+02	6.2259314097E+02	8.1556453264E+02	3.2500000000E+02	0.000E+00	0.0
	25	2	5	5	0	0	2.5491654019E+02	-1.4130115444E+02	1.8237951975E+02	3.6589747803E+02	1.2518073533E+02	0.000E+00	0.0
	-5	1	9	9	0	501	1.8477032372E+02	-1.5990119957E+02	1.3621284385E+02	2.7978541310E+02	4.1800000000E+00	0.000E+00	0.0
	5	1	9	9	501	0	7.0146216469E+01	1.8600045131E+01	4.6166675902E+01	8.6112064936E+01	4.1800000000E+00	0.000E+00	0.0
</event>
<event>
    11  -1  1.0000000E+00  1.0000000E+00  -1.0000000E+00  -1.0000000E+00
	2212	-1	0	0	0	0	0.0000000000E+00	0.0000000000E+00	6.5000000000E+03	6.5000000000E+03	9.3827000000E-01	0.000E+00	0.0
	2212	-1	0	0	0	0	0.0000000000E+00	0.0000000000E+00	-6.5000000000E+03	6.5000000000E+03	9.3827000000E-01	0.000E+00	0.0
	2212	1	0	0	0	0	0.0000000000E+00	0.0000000000E+00	6.2688512813E+03	6.2688512813E+03	9.3827000000E-01	0.000E+00	0.0
	2212	1	0	0	0	0	0.0000000000E+00	0.0000000000E+00	-5.3156036236E+03	5.3156036236E+03	9.3827000000E-01	0.000E+00	0.0
	51	2	1	2	0	0	-1.4081908816E+02	-1.5315462704E+01	-9.4897192089E+02	1.4197531845E+03	1.0464639599E+03	0.000E+00	0.0
	1000022	2	5	5	0	0	1.4081908816E+02	1.5315462704E+01	-7.9386539018E+02	1.1683096208E+03	8.4537597158E+02	0.000E+00	0.0
	14	1	6	6	0	0	1.8981311009E+02	2.1351727202E+02	-2.4106885068E+02	4.9533608084E+02	3.2500000000E+02	0.000E+00	0.0
	-14	1	6	6	0	0	-4.8994021929E+01	-1.9820180931E+02	-5.5279653949E+02	6.7297353995E+02	3.2500000000E+02	0.000E+00	0.0
	25	2	5	5	0	0	-1.4081908816E+02	-1.5315462704E+01	-1.5938226757E+02	2.4723547431E+02	1.2513230419E+02	0.000E+00	0.0
	-5	1	9	9	0	501	-4.1059732283E+00	-1.3664110975E+01	-9.4818302422E+01	9.5976819176E+01	4.1800000000E+00	0.000E+00	0.0
	5	1	9	9	501	0	-1.3671311493E+02	-1.6513517287E+00	-6.4563965144E+01	1.5125865513E+02	4.1800000000E+00	0.000E+00	0.0
</event>
<event>
    11  -1  1.0000000E+00  1.0000000E+00  -1.0000000E+00  -1.0000000E+00
	2212	-1	0	0	0	0	0.0000000000E+00	0.0000000000E+00	6.5000000000E+03	6.5000000000E+03	9.3827000000E-01	0.000E+00	0.0
	2212	-1	0	0	0	0	0.0000000000E+00	0.0000000000E+00	-6.5000000000E+03	6.5000000000E+03	9.3827000000E-01	0.000E+00	0.0
	2212	1	0	0	0	0	0.0000000000E+00	0.0000000000E+00	5.9292605603E+03	5.9292605603E+03	9.3827000000E-01	0.000E+00	0.0
	2212	1	0	0	0	0	0.0000000000E+00	0.0000000000E+00	-6.0089305290E+03	6.0089305290E+03	9.3827000000E-01	0.000E+00	0.0
	51	2	1	2	0	0	1.2691952266E+01	1.6934830398E+00	5.1413885818E+01	1.0601406510E+03	1.0588157813E+03	0.000E+00	0.0
	1000022	2	5	5	0	0	-1.2691952266E+01	-1.6934830398E+00	9.8257451431E+01	9.3461800357E+02	9.2935048948E+02	0.000E+00	0.0
	14	1	6	6	0	0	1.7844879279E+02	-1.2829533042E+02	2.9501787843E+02	4.9088105693E+02	3.2500000000E+02	0.000E+00	0.0
	-14	1	6	6	0	0	-1.9114074506E+02	1.2660184738E+02	-1.9676042700E+02	4.4373694664E+02	3.2500000000E+02	0.000E+00	0.0
	25	2	5	5	0	0	1.2691952266E+01	1.6934830398E+00	-1.8587482740E+01	1.2719090708E+02	1.2517219656E+02	0.000E+00	0.0
	-5	1	9	9	0	501	2.1432279629E+00	-4.6804606986E+01	-4.9726446517E+01	6.8450394772E+01	4.1800000000E+00	0.000E+00	0.0
	5	1	9	9	501	0	1.0548724303E+01	4.8498090026E+01	3.1138963776E+01	5.8740512303E+01	4.1800000000E+00	0.000E+00	0.0
</event>
<event>
    11  -1  1.0000000E+00  1.0000000E+00  -1.0000000E+00  -1.0000000E+00
	2212	-1	0	0	0	0	0.0000000000E+00	0.0000000000E+00	6.5000000000E+03	6.5000000000E+03	9.3827000000E-01	0.000E+00	0.0
	2212	-1	0	0	0	0	0.0000000000E+00	0.0000000000E+00	-6.5000000000E+03	6.5000000000E+03	9.3827000000E-01	0.000E+00	0.0
	2212	1	0	0	0	0	0.0000000000E+00	0.0000000000E+00	6.2309172068E+03	6.2309172068E+03	9.3827000000E-01	0.000E+00	0.0
	2212	1	0	0	0	0	0.0000000000E+00	0.0000000000E+00	-5.4849770277E+03	5.4849770277E+03	9.3827000000E-01	0.000E+00	0.0
	51	2	1	2	0	0	6.7755410409E+01	9.8874424337E+01	-7.8683403503E+02	1.3137639104E+03	1.0452276623E+03	0.000E+00	0.0
	1000022	2	5	5	0	0	-6.7755410409E+01	-9.8874424337E+01	-5.8480371541E+02	1.0474548479E+03	8.6069699981E+02	0.000E+00	0.0
	14	1	6	6	0	0	2.4831676136E+02	-3.0432387802E+01	-2.9156980293E+02	5.0321495822E+02	3.2500000000E+02	0.000E+00	0.0
	-14	1	6	6	0	0	-3.1607217177E+02	-6.8442036535E+01	-2.9323391248E+02	5.4423988971E+02	3.2500000000E+02	0.000E+00	0.0
	25	2	5	5	0	0	6.7755410409E+01	9.8874424337E+01	-1.6113646369E+02	2.3665091754E+02	1.2518685799E+02	0.000E+00	0.0
	-5	1	9	9	0	501	4.7540094285E+01	5.4518492366E+00	1.3901005645E+00	4.8054011324E+01	4.1800000000E+00	0.000E+00	0.0
	5	1	9	9	501	0	2.0215316124E+01	9.3422575101E+01	-1.6252656426E+02	1.8859690621E+02	4.1800000000E+00	0.000E+00	0.0
</event>
<event>
    11  -1  1.0000000E+00  1.0000000E+00  -1.0000000E+00  -1.0000000E+00
	2212	-1	0	0	0	0	0.0000000000E+00	0.0000000000E+00	6.5000000000E+03	6.5000000000E+03	9.3827000000E-01	0.000E+00	0.0
	2212	-1	0	0	0	0	0.0000000000E+00	0.0000000000E+00	-6.5000000000E+03	6.5000000000E+03	9.3827000000E-01	0.000E+00	0.0
	2212	1	0	0	0	0	0.0000000000E+00	0.0000000000E+00	6.2883901648E+03	6.2883901648E+03	9.3827000000E-01	0.000E+00	0.0
	2212	1	0	0	0	0	0.0000000000E+00	0.0000000000E+00	-5.1854566948E+03	5.1854566948E+03	9.3827000000E-01	0.000E+00	0.0
	51	2	1	2	0	0	1.0277051931E+02	-1.0332193458E+02	-1.1332482223E+03	1.5550465922E+03	1.0548370343E+03	0.000E+00	0.0
	1000022	2	5	5	0	0	-1.0277051931E+02	1.0332193458E+02	-8.8180902844E+02	1.2332321527E+03	8.4972770819E+02	0.000E+00	0.0
	14	1	6	6	0	0	3.2901938321E+01	2.9816696070E+02	-3.3783623631E+02	5.5654685029E+02	3.2500000000E+02	0.000E+00	0.0
	-14	1	6	6	0	0	-1.3567245763E+02	-1.9484502612E+02	-5.4397279213E+02	6.7668530244E+02	3.2500000000E+02	0.000E+00	0.0
	25	2	5	5	0	0	1.0277051931E+02	-1.0332193458E+02	-2.2112444149E+02	2.9292098767E+02	1.2517781188E+02	0.000E+00	0.0
	-5	1	9	9	0	501	8.2359697920E+01	-3.3446488594E+01	-3.9799649863E+01	9.7484726855E+01	4.1800000000E+00	0.000E+00	0.0
	5	1	9	9	501	0	2.0410821389E+01	-6.9875445991E+01	-1.8132479163E+02	1.9543626081E+02	4.1800000000E+00	0.000E+00	0.0
</event>
<event>
    11  -1  1.0000000E+00  1.0000000E+00  -1.0000000E+00  -1.0000000E+00
	2212	-1	0	0	0	0	0.0000000000E+00	0.0000000000E+00	6.5000000000E+03	6.5000000000E+03	9.3827000000E-01	0.000E+00	0.0
	2212	-1	0	0	0	0	0.0000000000E+00	0.0000000000E+00	-6.5000000000E+03	6.5000000000E+03	9.3827000000E-01	0.000E+00	0.0
	2212	1	0	0	0	0	0.0000000000E+00	0.0000000000E+00	5.7916958383E+03	5.7916958383E+03	9.3827000000E-01	0.000E+00	0.0
	2212	1	0	0	0	0	0.0000000000E+00	0.0000000000E+00	-6.1050787303E+03	6.1050787303E+03	9.3827000000E-01	0.000E+00	0.0
	51	2	1	2	0	0	1.6251020249E+00	2.6584292987E+01	1.7382131246E+02	1.0722969411E+03	1.0577795213E+03	0.000E+00	0.0
	1000022	2	5	5	0	0	-1.6251020249E+00	-2.6584292987E+01	4.0021668742E+02	9.4853232678E+02	8.5955268161E+02	0.000E+00	0.0
	14	1	6	6	0	0	9.9025198406E+01	1.2931006202E+02	4.4162942031E+02	5.7200404451E+02	3.2500000000E+02	0.000E+00	0.0
	-14	1	6	6	0	0	-1.0065030043E+02	-1.5589435501E+02	-4.1412732888E+01	3.7652828227E+02	3.2500000000E+02	0.000E+00	0.0
	25	2	5	5	0	0	1.6251020249E+00	2.6584292987E+01	-8.6833795481E+01	1.5469310465E+02	1.2522173533E+02	0.000E+00	0.0
	-5	1	9	9	0	501	-5.8963082466E+01	6.5944295943E+00	-2.1407328248E+01	6.3212955146E+01	4.1800000000E+00	0.000E+00	0.0
	5	1	9	9	501	0	6.0588184491E+01	1.9989863392E+01	-6.5426467233E+01	9.1480149502E+01	4.1800000000E+00	0.000E+00	0.0
</event>
<event>
    11  -1  1.0000000E+00  1.0000000E+00  -1.0000000E+00  -1.0000000E+00
	2212	-1	0	0	0	0	0.0000000000E+00	0.0000000000E+00	6.5000000000E+03	6.5000000000E+03	9.3827000000E-01	0.000E+00	0.0
	2212	-1	0	0	0	0	0.0000000000E+00	0.0000000000E+00	-6.5000000000E+03	6.5000000000E+03	9.3827000000E-01	0.000E+00	0.0
	2212	1	0	0	0	0	0.0000000000E+00	0.0000000000E+00	5.4924796136E+03	5.4924796136E+03	9.3827000000E-01	0.000E+00	0.0
	2212	1	0	0	0	0	0.0000000000E+00	0.0000000000E+00	-6.2255948948E+03	6.2255948948E+03	9.3827000000E-01	0.000E+00	0.0
	51	2	1	2	0	0	8.2579968675E+01	-9.9458349007E+01	8.2519545915E+02	1.3429571516E+03	1.0516058913E+03	0.000E+00	0.0
	1000022	2	5	5	0	0	-8.2579968675E+01	9.9458349007E+01	5.1363530260E+02	9.9812252109E+02	8.4599995781E+02	0.000E+00	0.0
	14	1	6	6	0	0	2.0756714188E+02	1.4945720117E+02	2.9576089249E+02	5.0844968177E+02	3.2500000000E+02	0.000E+00	0.0
	-14	1	6	6	0	0	-2.9014711055E+02	-4.9998852165E+01	2.1787441012E+02	4.8967283932E+02	3.2500000000E+02	0.000E+00	0.0
	25	2	5	5	0	0	8.2579968675E+01	-9.9458349007E+01	2.1947997861E+02	2.8380297060E+02	1.2514491879E+02	0.000E+00	0.0
	-5	1	9	9	0	501	4.7084143347E+01	-7.0658872044E+01	3.2079926065E+01	9.0863561506E+01	4.1800000000E+00	0.000E+00	0.0
	5	1	9	9	501	0	3.5495825328E+01	-2.8799476963E+01	1.8740005254E+02	1.9293940910E+02	4.1800000000E+00	0.000E+00	0.0
</event>
<event>
    11  -1  1.0000000E+00  1.0000000E+00  -1.0000000E+00  -1.0000000E+00
	2212	-1	0	0	0	0	0.0000000000E+00	0.0000000000E+00	6.5000000000E+03	6.5000000000E+03	9.3827000000E-01	0.000E+00	0.0
	2212	-1	0	0	0	0	0.0000000000E+00	0.0000000000E+00	-6.5000000000E+03	6.5000000000E+03	9.3827000000E-01	0.000E+00	0.0
	2212	1	0	0	0	0	0.0000000000E+00	0.0000000000E+00	4.9866592073E+03	4.9866592073E+03	9.3827000000E-01	0.000E+00	0.0
	2212	1	0	0	0	0	0.0000000000E+00	0.0000000000E+00	-6.3174214430E+03	6.3174214430E+03	9.3827000000E-01	0.000E+00	0.0
	51	2	1	2	0	0	1.3240536644E+02	1.6412968847E+01	1.2830858335E+03	1.6641286416E+03	1.0512917354E+03	0.000E+00	0.0
	1000022	2	5	5	0	0	-1.3240536644E+02	-1.6412968847E+01	1.1537218055E+03	1.4413316096E+03	8.5355857306E+02	0.000E+00	0.0
	14	1	6	6	0	0	-2.5976362540E+02	-1.0599948621E+02	9.1022859774E+02	1.0064065442E+03	3.2500000000E+02	0.000E+00	0.0
	-14	1	6	6	0	0	1.2735825897E+02	8.9586517366E+01	2.4349320777E+02	4.3492506533E+02	3.2500000000E+02	0.000E+00	0.0
	25	2	5	5	0	0	1.3240536644E+02	1.6412968847E+01	1.7704043017E+02	2.5458774020E+02	1.2518401230E+02	0.000E+00	0.0
	-5	1	9	9	0	501	8.6477757837E+01	-5.1208582853E+01	1.0703546955E+02	1.4688357873E+02	4.1800000000E+00	0.000E+00	0.0
	5	1	9	9	501	0	4.5927608598E+01	6.7621551700E+01	7.0004960620E+01	1.0770416147E+02	4.1800000000E+00	0.000E+00	0.0
</event>
<event>
    11  -1  1.0000000E+00  1.0000000E+00  -1.0000000E+00  -1.0000000E+00
	2212	-1	0	0	0	0	0.0000000000E+00	0.0000000000E+00	6.5000000000E+03	6.5000000000E+03	9.3827000000E-01	0.000E+00	0.0
	2212	-1	0	0	0	0	0.0000000000E+00	0.0000000000E+00	-6.5000000000E+03	6.5000000000E+03	9.3827000000E-01	0.000E+00	0.0
	2212	1	0	0	0	0	0.0000000000E+00	0.0000000000E+00	5.8945426278E+03	5.8945426278E+03	9.3827000000E-01	0.000E+00	0.0
	2212	1	0	0	0	0	0.0000000000E+00	0.0000000000E+00	-6.0307777708E+03	6.0307777708E+03	9.3827000000E-01	0.000E+00	0.0
	51	2	1	2	0	0	-1.1538381711E+02	1.0304084619E+01	2.4670043391E+02	1.1002985663E+03	1.0660094894E+03	0.000E+00	0.0
	1000022	2	5	5	0	0	1.1538381711E+02	-1.0304084619E+01	1.4606638985E+00	8.5729962522E+02	8.4943564468E+02	0.000E+00	0.0
	14	1	6	6	0	0	2.2700313709E+02	-1.6074100008E+02	1.5075260416E+02	4.5356305076E+02	3.2500000000E+02	0.000E+00	0.0
	-14	1	6	6	0	0	-1.1161931999E+02	1.5043691546E+02	-1.4929194026E+02	4.0373657446E+02	3.2500000000E+02	0.000E+00	0.0
	25	2	5	5	0	0	-1.1538381711E+02	1.0304084619E+01	1.3477447916E+02	2.1737997616E+02	1.2518104645E+02	0.000E+00	0.0
	-5	1	9	9	0	501	-2.0721360438E+01	5.6292109980E+01	2.4621755802E+01	6.4975993129E+01	4.1800000000E+00	0.000E+00	0.0
	5	1	9	9	501	0	-9.4662456668E+01	-4.5988025361E+01	1.1015272336E+02	1.5240398303E+02	4.1800000000E+00	0.000E+00	0.0
</event>
<event>
    11  -1  1.0000000E+00  1.0000000E+00  -1.0000000E+00  -1.0000000E+00
	2212	-1	0	0	0	0	0.0000000000E+00	0.0000000000E+00	6.5000000000E+03	6.5000000000E+03	9.3827000000E-01	0.000E+00	0.0
	2212	-1	0	0	0	0	0.0000000000E+00	0.0000000000E+00	-6.5000000000E+03	6.5000000000E+03	9.3827000000E-01	0.000E+00	0.0
	2212	1	0	0	0	0	0.0000000000E+00	0.0000000000E+00	5.3342793499E+03	5.3342793499E+03	9.3827000000E-01	0.000E+00	0.0
	2212	1	0	0	0	0	0.0000000000E+00	0.0000000000E+00	-6.2655023424E+03	6.2655023424E+03	9.3827000000E-01	0.000E+00	0.0
	51	2	1	2	0	0	-1.2125148955E+02	-4.5791185517E+01	9.8920712002E+02	1.4452558702E+03	1.0456744463E+03	0.000E+00	0.0
	1000022	2	5	5	0	0	1.2125148955E+02	4.5791185517E+01	7.1706792891E+02	1.1203568572E+03	8.5100782399E+02	0.000E+00	0.0
	14	1	6	6	0	0	1.8194160554E+02	-2.1012311415E+02	4.6684988820E+02	6.3311001338E+02	3.2500000000E+02	0.000E+00	0.0
	-14	1	6	6	0	0	-6.0690115988E+01	2.5591429966E+02	2.5021804071E+02	4.8724684386E+02	3.2500000000E+02	0.000E+00	0.0
	25	2	5	5	0	0	-1.2125148955E+02	-4.5791185517E+01	2.1415506357E+02	2.7986145053E+02	1.2514505125E+02	0.000E+00	0.0
	-5	1	9	9	0	501	-1.2100582181E+02	-7.9235765321E+01	1.8777158086E+02	2.3705770267E+02	4.1800000000E+00	0.000E+00	0.0
	5	1	9	9	501	0	-2.4566774401E-01	3.3444579803E+01	2.6383482707E+01	4.2803747857E+01	4.1800000000E+00	0.000E+00	0.0
</event>
<event>
    11  -1  1.0000000E+00  1.0000000E+00  -1.0000000E+00  -1.0000000E+00
	2212	-1	0	0	0	0	0.0000000000E+00	0.0000000000E+00	6.5000000000E+03	6.5000000000E+03	9.3827000000E-01	0.000E+00	0.0
	2212	-1	0	0	0	0	0.0000000000E+00	0.0000000000E+00	-6.5000000000E+03	6.5000000000E+03	9.3827000000E-01	0.000E+00	0.0
	2212	1	0	0	0	0	0.0000000000E+00	0.0000000000E+00	5.2648209324E+03	5.2648209324E+03	9.3827000000E-01	0.000E+00	0.0
	2212	1	0	0	0	0	0.0000000000E+00	0.0000000000E+00	-6.2767397149E+03	6.2767397149E+03	9.3827000000E-01	0.000E+00	0.0
	51	2	1	2	0	0	7.2470990617E+01	-1.1055881351E+02	9.5563243596E+02	1.4261046144E+03	1.0502693573E+03	0.000E+00	0.0
	1000022	2	5	5	0	0	-7.2470990617E+01	1.1055881351E+02	8.9602729428E+02	1.2426208455E+03	8.5074459032E+02	0.000E+00	0.0
	14	1	6	6	0	0	5.5823004547E+01	3.0435168996E+02	5.7922044353E+02	7.3271241373E+02	3.2500000000E+02	0.000E+00	0.0
	-14	1	6	6	0	0	-1.2829399516E+02	-1.9379287645E+02	3.1680685075E+02	5.0990843182E+02	3.2500000000E+02	0.000E+00	0.0
	25	2	5	5	0	0	7.2470990617E+01	-1.1055881351E+02	1.1589148820E+02	2.1581850709E+02	1.2518584279E+02	0.000E+00	0.0
	-5	1	9	9	0	501	-1.6695307242E+01	5.4149687406E+00	5.3975108235E+01	5.6910806350E+01	4.1800000000E+00	0.000E+00	0.0
	5	1	9	9	501	0	8.9166297860E+01	-1.1597378226E+02	6.1916379970E+01	1.5890770074E+02	4.1800000000E+00	0.000E+00	0.0
</event>
<event>
    11  -1  1.0000000E+00  1.0000000E+00  -1.0000000E+00  -1.0000000E+00
	2212	-1	0	0	0	0	0.0000000000E+00	0.0000000000E+00	6.5000000000E+03	6.5000000000E+03	9.3827000000E-01	0.000E+00	0.0
	2212	-1	0	0	0	0	0.0000000000E+00	0.0000000000E+00	-6.5000000000E+03	6.5000000000E+03	9.3827000000E-01	0.000E+00	0.0
	2212	1	0	0	0	0	0.0000000000E+00	0.0000000000E+00	5.0202972298E+03	5.0202972298E+03	9.3827000000E-01	0.000E+00	0.0
	2212	1	0	0	0	0	0.0000000000E+00	0.0000000000E+00	-6.3144514189E+03	6.3144514189E+03	9.3827000000E-01	0.000E+00	0.0
	51	2	1	2	0	0	1.5251242761E+01	-9.1790238933E+01	1.4595698266E+03	1.7992301478E+03	1.0479632617E+03	0.000E+00	0.0
	1000022	2	5	5	0	0	-1.5251242761E+01	9.1790238933E+01	9.1229957245E+02	1.2527699579E+03	8.5351274686E+02	0.000E+00	0.0
	14	1	6	6	0	0	2.6732251260E+02	4.7286397632E+01	4.0686003190E+02	5.8724561701E+02	3.2500000000E+02	0.000E+00	0.0
	-14	1	6	6	0	0	-2.8257375536E+02	4.4503841301E+01	5.0543954056E+02	6.6552434085E+02	3.2500000000E+02	0.000E+00	0.0
	25	2	5	5	0	0	1.5251242761E+01	-9.1790238933E+01	3.8185461661E+02	4.1248139344E+02	1.2517948450E+02	0.000E+00	0.0
	-5	1	9	9	0	501	2.2070439122E+01	2.8011345877E+01	8.7555930370E+01	9.4632199191E+01	4.1800000000E+00	0.000E+00	0.0
	5	1	9	9	501	0	-6.8191963606E+00	-1.1980158481E+02	2.9429868624E+02	3.1784919425E+02	4.1800000000E+00	0.000E+00	0.0
</event>
<event>
    11  -1  1.0000000E+00  1.0000000E+00  -1.0000000E+00  -1.0000000E+00
	2212	-1	0	0	0	0	0.0000000000E+00	0.0000000000E+00	6.5000000000E+03	6.5000000000E+03	9.3827000000E-01	0.000E+00	0.0
	2212	-1	0	0	0	0	0.0000000000E+00	0.0000000000E+00	-6.5000000000E+03	6.5000000000E+03	9.3827000000E-01	0.000E+00	0.0
	2212	1	0	0	0	0	0.0000000000E+00	0.0000000000E+00	6.2751504574E+03	6.2751504574E+03	9.3827000000E-01	0.000E+00	0.0
	2212	1	0	0	0	0	0.0000000000E+00	0.0000000000E+00	-5.1626770650E+03	5.1626770650E+03	9.3827000000E-01	0.000E+00	0.0
	51	2	1	2	0	0	-1.7800206768E+01	-1.0225458217E+02	-1.3687460955E+03	1.7569930341E+03	1.0967159163E+03	0.000E+00	0.0
	1000022	2	5	5	0	0	1.7800206768E+01	1.0225458217E+02	-6.3725728741E+02	1.0599042474E+03	8.4055179282E+02	0.000E+00	0.0
	14	1	6	6	0	0	-3.1270224632E+01	3.1553470741E+02	-3.1553108860E+02	5.5292390652E+02	3.2500000000E+02	0.000E+00	0.0
	-14	1	6	6	0	0	4.9070431401E+01	-2.1328012524E+02	-3.2172619882E+02	5.0698034091E+02	3.2500000000E+02	0.000E+00	0.0
	25	2	5	5	0	0	-1.7800206768E+01	-1.0225458217E+02	-4.7521610498E+02	5.0226823019E+02	1.2518059630E+02	0.000E+00	0.0
	-5	1	9	9	0	501	2.6192676864E+01	-7.2958247291E+01	-4.1429868939E+02	4.2150900180E+02	4.1800000000E+00	0.000E+00	0.0
	5	1	9	9	501	0	-4.3992883633E+01	-2.9296334882E+01	-6.0917415589E+01	8.0759228389E+01	4.1800000000E+00	0.000E+00	0.0
</event>
<event>
    11  -1  1.0000000E+00  1.0000000E+00  -1.0000000E+00  -1.0000000E+00
	2212	-1	0	0	0	0	0.0000000000E+00	0.0000000000E+00	6.5000000000E+03	6.5000000000E+03	9.3827000000E-01	0.000E+00	0.0
	2212	-1	0	0	0	0	0.0000000000E+00	0.0000000000E+00	-6.5000000000E+03	6.5000000000E+03	9.3827000000E-01	0.000E+00	0.0
	2212	1	0	0	0	0	0.0000000000E+00	0.0000000000E+00	5.7604916300E+03	5.7604916300E+03	9.3827000000E-01	0.000E+00	0.0
	2212	1	0	0	0	0	0.0000000000E+00	0.0000000000E+00	-6.1273989555E+03	6.1273989555E+03	9.3827000000E-01	0.000E+00	0.0
	51	2	1	2	0	0	-7.4332182315E+01	6.6952683145E+01	4.5675165918E+02	1.1492590559E+03	1.0498411138E+03	0.000E+00	0.0
	1000022	2	5	5	0	0	7.4332182315E+01	-6.6952683145E+01	2.1690111898E+02	8.9260695354E+02	8.6005415119E+02	0.000E+00	0.0
	14	1	6	6	0	0	-2.3866856367E+02	-7.4453093229E+01	1.4889572156E+02	4.3623489346E+02	3.2500000000E+02	0.000E+00	0.0
	-14	1	6	6	0	0	3.1300074598E+02	7.5004100839E+00	6.8005397413E+01	4.5637206007E+02	3.2500000000E+02	0.000E+00	0.0
	25	2	5	5	0	0	-7.4332182315E+01	6.6952683145E+01	1.5000620660E+02	2.1950246099E+02	1.2518599464E+02	0.000E+00	0.0
	-5	1	9	9	0	501	2.3156489168E+01	-3.2159154101E+00	7.2987747246E+01	7.6754470557E+01	4.1800000000E+00	0.000E+00	0.0
	5	1	9	9	501	0	-9.7488671482E+01	7.0168598555E+01	7.7018459351E+01	1.4274799043E+02	4.1800000000E+00	0.000E+00	0.0
</event>
<event>
    11  -1  1.0000000E+00  1.0000000E+00  -1.0000000E+00  -1.0000000E+00
	2212	-1	0	0	0	0	0.0000000000E+00	0.0000000000E+00	6.5000000000E+03	6.5000000000E+03	9.3827000000E-01	0.000E+00	0.0
	2212	-1	0	0	0	0	0.0000000000E+00	0.0000000000E+00	-6.5000000000E+03	6.5000000000E+03	9.3827000000E-01	0.000E+00	0.0
	2212	1	0	0	0	0	0.0000000000E+00	0.0000000000E+00	5.5553241958E+03	5.5553241958E+03	9.3827000000E-01	0.000E+00	0.0
	2212	1	0	0	0	0	0.0000000000E+00	0.0000000000E+00	-6.2058264125E+03	6.2058264125E+03	9.3827000000E-01	0.000E+00	0.0
	51	2	1	2	0	0	2.3946557437E+02	7.2950900134E+01	6.1161694478E+02	1.2443213265E+03	1.0543219059E+03	0.000E+00	0.0
	1000022	2	5	5	0	0	-2.3946557437E+02	-7.2950900134E+01	5.3283787777E+02	9.3523644318E+02	7.2669485036E+02	0.000E+00	0.0
	14	1	6	6	0	0	1.4302177832E+01	-1.1173830057E+02	3.1903857004E+02	4.6914881357E+02	3.2500000000E+02	0.000E+00	0.0
	-14	1	6	6	0	0	-2.5376775220E+02	3.8787400432E+01	2.1379930773E+02	4.6608762961E+02	3.2500000000E+02	0.000E+00	0.0
	25	2	5	5	0	0	2.3946557437E+02	7.2950900134E+01	1.1766433900E+02	3.0361294853E+02	1.2518119150E+02	0.000E+00	0.0
	-5	1	9	9	0	501	2.0397981932E+02	4.6415980593E+01	3.8431981164E+01	2.1273622052E+02	4.1800000000E+00	0.000E+00	0.0
	5	1	9	9	501	0	3.5485755049E+01	2.6534919541E+01	7.9232357833E+01	9.0876728013E+01	4.1800000000E+00	0.000E+00	0.0
</event>
<event>
    11  -1  1.0000000E+00  1.0000000E+00  -1.0000000E+00  -1.0000000E+00
	2212	-1	0	0	0	0	0.0000000000E+00	0.0000000000E+00	6.5000000000E+03	6.5000000000E+03	9.3827000000E-01	0.000E+00	0.0
	2212	-1	0	0	0	0	0.0000000000E+00	0.0000000000E+00	-6.5000000000E+03	6.5000000000E+03	9.3827000000E-01	0.000E+00	0.0
	2212	1	0	0	0	0	0.0000000000E+00	0.0000000000E+00	5.7203869705E+03	5.7203869705E+03	9.3827000000E-01	0.000E+00	0.0
	2212	1	0	0	0	0	0.0000000000E+00	0.0000000000E+00	-6.1429579136E+03	6.1429579136E+03	9.3827000000E-01	0.000E+00	0.0
	51	2	1	2	0	0	1.3004677329E+02	4.2686701241E+01	4.3988087031E+02	1.1513679465E+03	1.0551865477E+03	0.000E+00	0.0
	1000022	2	5	5	0	0	-1.3004677329E+02	-4.2686701241E+01	3.3437851696E+02	9.3127854837E+02	8.5833351580E+02	0.000E+00	0.0
	14	1	6	6	0	0	4.7834755476E+01	2.2688399934E+02	2.3214979571E+02	4.6182576870E+02	3.2500000000E+02	0.000E+00	0.0
	-14	1	6	6	0	0	-1.7788152877E+02	-2.6957070058E+02	1.0222872125E+02	4.6945277967E+02	3.2500000000E+02	0.000E+00	0.0
	25	2	5	5	0	0	1.3004677329E+02	4.2686701241E+01	8.8192426171E+01	2.0537656749E+02	1.2516913650E+02	0.000E+00	0.0
	-5	1	9	9	0	501	1.1394560230E+02	4.1825555645E+01	6.0927629461E+00	1.2160415925E+02	4.1800000000E+00	0.000E+00	0.0
	5	1	9	9	501	0	1.6101170998E+01	8.6114559596E-01	8.2099663225E+01	8.3772408231E+01	4.1800000000E+00	0.000E+00	0.0
</event>
<event>
    11  -1  1.0000000E+00  1.0000000E+00  -1.0000000E+00  -1.0000000E+00
	2212	-1	0	0	0	0	0.0000000000E+00	0.0000000000E+00	6.5000000000E+03	6.5000000000E+03	9.3827000000E-01	0.000E+00	0.0
	2212	-1	0	0	0	0	0.0000000000E+00	0.0000000000E+00	-6.5000000000E+03	6.5000000000E+03	9.3827000000E-01	0.000E+00	0.0
	2212	1	0	0	0	0	0.0000000000E+00	0.0000000000E+00	6.3118462690E+03	6.3118462690E+03	9.3827000000E-01	0.000E+00	0.0
	2212	1	0	0	0	0	0.0000000000E+00	0.0000000000E+00	-5.0315406589E+03	5.0315406589E+03	9.3827000000E-01	0.000E+00	0.0
	51	2	1	2	0	0	-1.3259728145E+02	-9.3297682435E+00	-1.3886544672E+03	1.7467726608E+03	1.0512775160E+03	0.000E+00	0.0
	1000022	2	5	5	0	0	1.3259728145E+02	9.3297682435E+00	-9.4985845943E+02	1.2790760531E+03	8.4624782018E+02	0.000E+00	0.0
	14	1	6	6	0	0	-2.7205015756E+01	8.7862321588E+01	-1.0050753616E+02	3.5240128442E+02	3.2500000000E+02	0.000E+00	0.0
	-14	1	6	6	0	0	1.5980229721E+02	-7.8532553345E+01	-8.4935092327E+02	9.2667476872E+02	3.2500000000E+02	0.000E+00	0.0
	25	2	5	5	0	0	-1.3259728145E+02	-9.3297682435E+00	-3.3044715061E+02	3.7753701897E+02	1.2517906265E+02	0.000E+00	0.0
	-5	1	9	9	0	501	-1.5317427959E+02	5.0257504351E+00	-2.5101693421E+02	2.9413362908E+02	4.1800000000E+00	0.000E+00	0.0
	5	1	9	9	501	0	2.0576998137E+01	-1.4355518679E+01	-7.9430216399E+01	8.3403389895E+01	4.1800000000E+00	0.000E+00	0.0
</event>
<event>
    11  -1  1.0000000E+00  1.0000000E+00  -1.0000000E+00  -1.0000000E+00
	2212	-1	0	0	0	0	0.0000000000E+00	0.0000000000E+00	6.5000000000E+03	6.5000000000E+03	9.3827000000E-01	0.000E+00	0.0
	2212	-1	0	0	0	0	0.0000000000E+00	0.0000000000E+00	-6.5000000000E+03	6.5000000000E+03	9.3827000000E-01	0.000E+00	0.0
	2212	1	0	0	0	0	0.0000000000E+00	0.0000000000E+00	5.8024322982E+03	5.8024322982E+03	9.3827000000E-01	0.000E+00	0.0
	2212	1	0	0	0	0	0.0000000000E+00	0.0000000000E+00	-6.1028799054E+03	6.1028799054E+03	9.3827000000E-01	0.000E+00	0.0
	51	2	1	2	0	0	1.1946022048E+02	-3.6470480974E+01	3.5375313616E+02	1.1175037936E+03	1.0526502777E+03	0.000E+00	0.0
	1000022	2	5	5	0	0	-1.1946022048E+02	3.6470480974E+01	1.9720369557E+02	8.8992014874E+02	8.5875941527E+02	0.000E+00	0.0
	14	1	6	6	0	0	1.2234564193E+02	1.9830949880E+02	-2.4392405591E+01	4.0064336119E+02	3.2500000000E+02	0.000E+00	0.0
	-14	1	6	6	0	0	-2.4180586241E+02	-1.6183901783E+02	2.2159610116E+02	4.8927678755E+02	3.2500000000E+02	0.000E+00	0.0
	25	2	5	5	0	0	1.1946022048E+02	-3.6470480974E+01	1.0324391161E+02	2.0476764772E+02	1.2517844866E+02	0.000E+00	0.0
	-5	1	9	9	0	501	2.0353385853E+01	2.2147294134E+01	-1.9757495330E+01	3.6229738818E+01	4.1800000000E+00	0.000E+00	0.0
	5	1	9	9	501	0	9.9106834624E+01	-5.8617775108E+01	1.2300140694E+02	1.6853790890E+02	4.1800000000E+00	0.000E+00	0.0
</event>
<event>
    11  -1  1.0000000E+00  1.0000000E+00  -1.0000000E+00  -1.0000000E+00
	2212	-1	0	0	0	0	0.0000000000E+00	0.0000000000E+00	6.5000000000E+03	6.5000000000E+03	9.3827000000E-01	0.000E+00	0.0
	2212	-1	0	0	0	0	0.0000000000E+00	0.0000000000E+00	-6.5000000000E+03	6.5000000000E+03	9.3827000000E-01	0.000E+00	0.0
	2212	1	0	0	0	0	0.0000000000E+00	0.0000000000E+00	5.2682721357E+03	5.2682721357E+03	9.3827000000E-01	0.000E+00	0.0
	2212	1	0	0	0	0	0.0000000000E+00	0.0000000000E+00	-6.2780873755E+03	6.2780873755E+03	9.3827000000E-01	0.000E+00	0.0
	51	2	1	2	0	0	1.0464007883E+02	-5.1278322390E+01	1.0957181290E+03	1.5190526926E+03	1.0456308394E+03	0.000E+00	0.0
	1000022	2	5	5	0	0	-1.0464007883E+02	5.1278322390E+01	7.5778727077E+02	1.1490893488E+03	8.5591224513E+02	0.000E+00	0.0
	14	1	6	6	0	0	1.7948930395E+02	1.3466414459E+02	2.1200653436E+02	4.4824392096E+02	3.2500000000E+02	0.000E+00	0.0
	-14	1	6	6	0	0	-2.8412938278E+02	-8.3385822198E+01	5.4578073641E+02	7.0084542785E+02	3.2500000000E+02	0.000E+00	0.0
	25	2	5	5	0	0	1.0464007883E+02	-5.1278322390E+01	2.5202796904E+02	3.0455114007E+02	1.2511709433E+02	0.000E+00	0.0
	-5	1	9	9	0	501	9.7637060368E+01	-3.9960383027E+01	8.1303054604E+01	1.3325722066E+02	4.1800000000E+00	0.000E+00	0.0
	5	1	9	9	501	0	7.0030184640E+00	-1.1317939363E+01	1.7072491444E+02	1.7129391942E+02	4.1800000000E+00	0.000E+00	0.0
</event>
<event>
    11  -1  1.0000000E+00  1.0000000E+00  -1.0000000E+00  -1.0000000E+00
	2212	-1	0	0	0	0	0.0000000000E+00	0.0000000000E+00	6.5000000000E+03	6.5000000000E+03	9.3827000000E-01	0.000E+00	0.0
	2212	-1	0	0	0	0	0.0000000000E+00	0.0000000000E+00	-6.5000000000E+03	6.5000000000E+03	9.3827000000E-01	0.000E+00	0.0
	2212	1	0	0	0	0	0.0000000000E+00	0.0000000000E+00	5.5497116137E+03	5.5497116137E+03	9.3827000000E-01	0.000E+00	0.0
	2212	1	0	0	0	0	0.0000000000E+00	0.0000000000E+00	-6.1154274035E+03	6.1154274035E+03	9.3827000000E-01	0.000E+00	0.0
	51	2	1	2	0	0	-8.9418179746E+01	-5.3029441581E+00	2.8937912845E+02	1.2464282975E+03	1.2090572728E+03	0.000E+00	0.0
	1000022	2	5	5	0	0	8.9418179746E+01	5.3029441581E+00	7.1399556874E+02	1.1211311001E+03	8.5972178015E+02	0.000E+00	0.0
	14	1	6	6	0	0	8.0680864138E+01	2.8088242545E+02	3.3311169874E+02	5.4953866343E+02	3.2500000000E+02	0.000E+00	0.0
	-14	1	6	6	0	0	8.7373156082E+00	-2.7557948129E+02	3.8088387000E+02	5.7159243663E+02	3.2500000000E+02	0.000E+00	0.0
	25	2	5	5	0	0	-8.9418179746E+01	-5.3029441581E+00	-1.4827977894E+02	2.1372988283E+02	1.2517922305E+02	0.000E+00	0.0
	-5	1	9	9	0	501	3.9353483521E+00	-2.4153198329E+01	1.1743529556E+01	2.7463554806E+01	4.1800000000E+00	0.000E+00	0.0
	5	1	9	9	501	0	-9.3353528099E+01	1.8850254171E+01	-1.6002330850E+02	1.8626632802E+02	4.1800000000E+00	0.000E+00	0.0
</event>
<event>
    11  -1  1.0000000E+00  1.0000000E+00  -1.0000000E+00  -1.0000000E+00
	2212	-1	0	0	0	0	0.0000000000E+00	0.0000000000E+00	6.5000000000E+03	6.5000000000E+03	9.3827000000E-01	0.000E+00	0.0
	2212	-1	0	0	0	0	0.0000000000E+00	0.0000000000E+00	-6.5000000000E+03	6.5000000000E+03	9.3827000000E-01	0.000E+00	0.0
	2212	1	0	0	0	0	0.0000000000E+00	0.0000000000E+00	5.2063720522E+03	5.2063720522E+03	9.3827000000E-01	0.000E+00	0.0
	2212	1	0	0	0	0	0.0000000000E+00	0.0000000000E+00	-6.2892757302E+03	6.2892757302E+03	9.3827000000E-01	0.000E+00	0.0
	51	2	1	2	0	0	1.0087634627E+02	7.1514692102E+01	1.0346024967E+03	1.4751569182E+03	1.0442199091E+03	0.000E+00	0.0
	1000022	2	5	5	0	0	-1.0087634627E+02	-7.1514692102E+01	9.5254843854E+02	1.2853609162E+03	8.5411578173E+02	0.000E+00	0.0
	14	1	6	6	0	0	-3.1052636970E+02	-4.4046236065E+01	6.5956431536E+02	7.9938525336E+02	3.2500000000E+02	0.000E+00	0.0
	-14	1	6	6	0	0	2.0965002342E+02	-2.7468456037E+01	2.9298412319E+02	4.8597566280E+02	3.2500000000E+02	0.000E+00	0.0
	25	2	5	5	0	0	1.0087634627E+02	7.1514692102E+01	1.3035523952E+02	2.1899130142E+02	1.2519709743E+02	0.000E+00	0.0
	-5	1	9	9	0	501	-1.1700309966E+01	-2.4507740311E+01	2.6447362762E+01	3.8137409266E+01	4.1800000000E+00	0.000E+00	0.0
	5	1	9	9	501	0	1.1257665624E+02	9.6022432413E+01	1.0390787676E+02	1.8085389216E+02	4.1800000000E+00	0.000E+00	0.0
</event>
<event>
    11  -1  1.0000000E+00  1.0000000E+00  -1.0000000E+00  -1.0000000E+00
	2212	-1	0	0	0	0	0.0000000000E+00	0.0000000000E+00	6.5000000000E+03	6.5000000000E+03	9.3827000000E-01	0.000E+00	0.0
	2212	-1	0	0	0	0	0.0000000000E+00	0.0000000000E+00	-6.5000000000E+03	6.5000000000E+03	9.3827000000E-01	0.000E+00	0.0
	2212	1	0	0	0	0	0.0000000000E+00	0.0000000000E+00	6.1460250649E+03	6.1460250649E+03	9.3827000000E-01	0.000E+00	0.0
	2212	1	0	0	0	0	0.0000000000E+00	0.0000000000E+00	-5.6848356059E+03	5.6848356059E+03	9.3827000000E-01	0.000E+00	0.0
	51	2	1	2	0	0	3.1655053417E+01	2.6452819988E+01	-2.5859848547E+02	1.1057875134E+03	1.0743328413E+03	0.000E+00	0.0
	1000022	2	5	5	0	0	-3.1655053417E+01	-2.6452819988E+01	-5.7109417445E+02	9.9752664697E+02	8.1682866087E+02	0.000E+00	0.0
	14	1	6	6	0	0	8.2269164096E+01	-1.4274864174E+02	-5.8366118959E+01	3.6902167134E+02	3.2500000000E+02	0.000E+00	0.0
	-14	1	6	6	0	0	-1.1392421751E+02	1.1629582175E+02	-5.1272805549E+02	6.2850497562E+02	3.2500000000E+02	0.000E+00	0.0
	25	2	5	5	0	0	3.1655053417E+01	2.6452819988E+01	1.0990471537E+02	1.7161268225E+02	1.2518015880E+02	0.000E+00	0.0
	-5	1	9	9	0	501	-2.2831008836E+01	-3.6501715153E+01	6.1583219131E+01	7.5256863156E+01	4.1800000000E+00	0.000E+00	0.0
	5	1	9	9	501	0	5.4486062253E+01	6.2954535141E+01	4.8321496243E+01	9.6355819096E+01	4.1800000000E+00	0.000E+00	0.0
</event>
<event>
    11  -1  1.0000000E+00  1.0000000E+00  -1.0000000E+00  -1.0000000E+00
	2212	-1	0	0	0	0	0.0000000000E+00	0.0000000000E+00	6.5000000000E+03	6.5000000000E+03	9.3827000000E-01	0.000E+00	0.0
	2212	-1	0	0	0	0	0.0000000000E+00	0.0000000000E+00	-6.5000000000E+03	6.5000000000E+03	9.3827000000E-01	0.000E+00	0.0
	2212	1	0	0	0	0	0.0000000000E+00	0.0000000000E+00	6.2667323842E+03	6.2667323842E+03	9.3827000000E-01	0.000E+00	0.0
	2212	1	0	0	0	0	0.0000000000E+00	0.0000000000E+00	-5.3144811043E+03	5.3144811043E+03	9.3827000000E-01	0.000E+00	0.0
	51	2	1	2	0	0	-1.7675597812E+02	3.9711391404E+01	-9.5100318841E+02	1.4294752183E+03	1.0517474341E+03	0.000E+00	0.0
	1000022	2	5	5	0	0	1.7675597812E+02	-3.9711391404E+01	-7.6802851664E+02	1.1317594550E+03	8.1129032487E+02	0.000E+00	0.0
	14	1	6	6	0	0	-1.5414456219E+02	-7.0051167133E+01	-3.3587595668E+02	4.9709694260E+02	3.2500000000E+02	0.000E+00	0.0
	-14	1	6	6	0	0	3.3090054032E+02	3.0339775729E+01	-4.3215255996E+02	6.3466251241E+02	3.2500000000E+02	0.000E+00	0.0
	25	2	5	5	0	0	-1.7675597812E+02	3.9711391404E+01	-1.8422276332E+02	2.8702705650E+02	1.2500733668E+02	0.000E+00	0.0
	-5	1	9	9	0	501	-5.1167137743E+01	6.6749398245E+01	-1.1023721970E+02	1.3872013249E+02	4.1800000000E+00	0.000E+00	0.0
	5	1	9	9	501	0	-1.2558884038E+02	-2.7038006841E+01	-7.3985543621E+01	1.4830692400E+02	4.1800000000E+00	0.000E+00	0.0
</event>
<event>
    11  -1  1.0000000E+00  1.0000000E+00  -1.0000000E+00  -1.0000000E+00
	2212	-1	0	0	0	0	0.0000000000E+00	0.0000000000E+00	6.5000000000E+03	6.5000000000E+03	9.3827000000E-01	0.000E+00	0.0
	2212	-1	0	0	0	0	0.0000000000E+00	0.0000000000E+00	-6.5000000000E+03	6.5000000000E+03	9.3827000000E-01	0.000E+00	0.0
	2212	1	0	0	0	0	0.0000000000E+00	0.0000000000E+00	5.0465614665E+03	5.0465614665E+03	9.3827000000E-01	0.000E+00	0.0
	2212	1	0	0	0	0	0.0000000000E+00	0.0000000000E+00	-6.3105595894E+03	6.3105595894E+03	9.3827000000E-01	0.000E+00	0.0
	51	2	1	2	0	0	1.0326609238E+02	-8.6296329666E+01	1.2346807167E+03	1.6260096509E+03	1.0494569883E+03	0.000E+00	0.0
	1000022	2	5	5	0	0	-1.0326609238E+02	8.6296329666E+01	1.0805670550E+03	1.3832288484E+03	8.5298648547E+02	0.000E+00	0.0
	14	1	6	6	0	0	-7.6461059171E+01	-1.9746998481E+02	2.9779969756E+02	4.8903000760E+02	3.2500000000E+02	0.000E+00	0.0
	-14	1	6	6	0	0	-2.6805033206E+01	2.8376631447E+02	7.8276735747E+02	8.9419884084E+02	3.2500000000E+02	0.000E+00	0.0
	25	2	5	5	0	0	1.0326609238E+02	-8.6296329666E+01	1.8343106786E+02	2.5965009563E+02	1.2514101308E+02	0.000E+00	0.0
	-5	1	9	9	0	501	8.8237253198E+01	-1.1158463196E+02	1.8040573158E+02	2.2978390572E+02	4.1800000000E+00	0.000E+00	0.0
	5	1	9	9	501	0	1.5028839179E+01	2.5288302293E+01	3.0253362760E+00	2.9866189906E+01	4.1800000000E+00	0.000E+00	0.0
</event>
<event>
    11  -1  1.0000000E+00  1.0000000E+00  -1.0000000E+00  -1.0000000E+00
	2212	-1	0	0	0	0	0.0000000000E+00	0.0000000000E+00	6.5000000000E+03	6.5000000000E+03	9.3827000000E-01	0.000E+00	0.0
	2212	-1	0	0	0	0	0.0000000000E+00	0.0000000000E+00	-6.5000000000E+03	6.5000000000E+03	9.3827000000E-01	0.000E+00	0.0
	2212	1	0	0	0	0	0.0000000000E+00	0.0000000000E+00	5.6114233895E+03	5.6114233895E+03	9.3827000000E-01	0.000E+00	0.0
	2212	1	0	0	0	0	0.0000000000E+00	0.0000000000E+00	-6.1657168295E+03	6.1657168295E+03	9.3827000000E-01	0.000E+00	0.0
	51	2	1	2	0	0	-6.7623640123E+01	1.1126232263E+02	7.1264219290E+02	1.3087994433E+03	1.0900205624E+03	0.000E+00	0.0
	1000022	2	5	5	0	0	6.7623640123E+01	-1.1126232263E+02	2.8967804314E+02	9.0247894469E+02	8.4475003155E+02	0.000E+00	0.0
	14	1	6	6	0	0	-2.2312522207E+02	-8.4740788350E+01	2.2227363061E+02	4.6043070358E+02	3.2500000000E+02	0.000E+00	0.0
	-14	1	6	6	0	0	2.9074886219E+02	-2.6521534276E+01	6.7404412525E+01	4.4204824112E+02	3.2500000000E+02	0.000E+00	0.0
	25	2	5	5	0	0	-6.7623640123E+01	1.1126232263E+02	2.6461539682E+02	3.2038083635E+02	1.2518111250E+02	0.000E+00	0.0
	-5	1	9	9	0	501	2.6459943900E+01	4.4090788055E+01	3.2324503208E+01	6.0880802641E+01	4.1800000000E+00	0.000E+00	0.0
	5	1	9	9	501	0	-9.4083584024E+01	6.7171534571E+01	2.3229089361E+02	2.5950003371E+02	4.1800000000E+00	0.000E+00	0.0
</event>
<event>
    11  -1  1.0000000E+00  1.0000000E+00  -1.0000000E+00  -1.0000000E+00
	2212	-1	0	0	0	0	0.0000000000E+00	0.0000000000E+00	6.5000000000E+03	6.5000000000E+03	9.3827000000E-01	0.000E+00	0.0
	2212	-1	0	0	0	0	0.0000000000E+00	0.0000000000E+00	-6.5000000000E+03	6.5000000000E+03	9.3827000000E-01	0.000E+00	0.0
	2212	1	0	0	0	0	0.0000000000E+00	0.0000000000E+00	6.1324507307E+03	6.1324507307E+03	9.3827000000E-01	0.000E+00	0.0
	2212	1	0	0	0	0	0.0000000000E+00	0.0000000000E+00	-5.4792054963E+03	5.4792054963E+03	9.3827000000E-01	0.000E+00	0.0
	51	2	1	2	0	0	-1.4920522631E+02	2.2328460560E+02	-8.1780427191E+02	1.4972278175E+03	1.2250588132E+03	0.000E+00	0.0
	1000022	2	5	5	0	0	1.4920522631E+02	-2.2328460560E+02	-3.3549794908E+02	9.5388835229E+02	8.5160196110E+02	0.000E+00	0.0
	14	1	6	6	0	0	2.3712850345E+02	-3.3241366312E+02	-2.9003057007E+02	5.9705234456E+02	3.2500000000E+02	0.000E+00	0.0
	-14	1	6	6	0	0	-8.7923277135E+01	1.0912905752E+02	-4.5467379005E+01	3.5683600773E+02	3.2500000000E+02	0.000E+00	0.0
	25	2	5	5	0	0	-1.4920522631E+02	2.2328460560E+02	-3.1774728532E+02	4.3445542070E+02	1.2517971317E+02	0.000E+00	0.0
	-5	1	9	9	0	501	-1.0646663943E+02	2.0146067015E+02	-1.8596782248E+02	2.9414800752E+02	4.1800000000E+00	0.000E+00	0.0
	5	1	9	9	501	0	-4.2738586878E+01	2.1823935454E+01	-1.3177946284E+02	1.4030741318E+02	4.1800000000E+00	0.000E+00	0.0
</event>
<event>
    11  -1  1.0000000E+00  1.0000000E+00  -1.0000000E+00  -1.0000000E+00
	2212	-1	0	0	0	0	0.0000000000E+00	0.0000000000E+00	6.5000000000E+03	6.5000000000E+03	9.3827000000E-01	0.000E+00	0.0
	2212	-1	0	0	0	0	0.0000000000E+00	0.0000000000E+00	-6.5000000000E+03	6.5000000000E+03	9.3827000000E-01	0.000E+00	0.0
	2212	1	0	0	0	0	0.0000000000E+00	0.0000000000E+00	6.3289110376E+03	6.3289110376E+03	9.3827000000E-01	0.000E+00	0.0
	2212	1	0	0	0	0	0.0000000000E+00	0.0000000000E+00	-4.8928866127E+03	4.8928866127E+03	9.3827000000E-01	0.000E+00	0.0
	51	2	1	2	0	0	2.7299476592E+01	-1.1949088781E+02	-1.5354977868E+03	1.8634951663E+03	1.0487313515E+03	0.000E+00	0.0
	1000022	2	5	5	0	0	-2.7299476592E+01	1.1949088781E+02	-1.0978888181E+03	1.3973785122E+03	8.5573565751E+02	0.000E+00	0.0
	14	1	6	6	0	0	1.3568895712E+02	-7.3336747011E+01	-2.0462342574E+02	4.1386654601E+02	3.2500000000E+02	0.000E+00	0.0
	-14	1	6	6	0	0	-1.6298843371E+02	1.9282763482E+02	-8.9326539241E+02	9.8351196614E+02	3.2500000000E+02	0.000E+00	0.0
	25	2	5	5	0	0	2.7299476592E+01	-1.1949088781E+02	-3.3813560671E+02	3.8082383752E+02	1.2517097508E+02	0.000E+00	0.0
	-5	1	9	9	0	501	-9.2643281396E+00	-4.7394689414E+00	8.3488299279E+00	1.3980904938E+01	4.1800000000E+00	0.000E+00	0.0
	5	1	9	9	501	0	3.6563804731E+01	-1.1475141887E+02	-3.4648443664E+02	3.6684293258E+02	4.1800000000E+00	0.000E+00	0.0
</event>
<event>
    11  -1  1.0000000E+00  1.0000000E+00  -1.0000000E+00  -1.0000000E+00
	2212	-1	0	0	0	0	0.0000000000E+00	0.0000000000E+00	6.5000000000E+03	6.5000000000E+03	9.3827000000E-01	0.000E+00	0.0
	2212	-1	0	0	0	0	0.0000000000E+00	0.0000000000E+00	-6.5000000000E+03	6.5000000000E+03	9.3827000000E-01	0.000E+00	0.0
	2212	1	0	0	0	0	0.0000000000E+00	0.0000000000E+00	6.1684368678E+03	6.1684368678E+03	9.3827000000E-01	0.000E+00	0.0
	2212	1	0	0	0	0	0.0000000000E+00	0.0000000000E+00	-5.6573614643E+03	5.6573614643E+03	9.3827000000E-01	0.000E+00	0.0
	51	2	1	2	0	0	-2.1926952306E+01	-1.3227629510E+02	-5.3446539376E+02	1.1921336148E+03	1.0571430787E+03	0.000E+00	0.0
	1000022	2	5	5	0	0	2.1926952306E+01	1.3227629510E+02	-4.0272741383E+02	9.6107773179E+02	8.6226633194E+02	0.000E+00	0.0
	14	1	6	6	0	0	5.9580504119E+00	3.3897023610E+00	-5.0130033893E+02	5.9747302722E+02	3.2500000000E+02	0.000E+00	0.0
	-14	1	6	6	0	0	1.5968901894E+01	1.2888659274E+02	9.8572925103E+01	3.6360470456E+02	3.2500000000E+02	0.000E+00	0.0
	25	2	5	5	0	0	-2.1926952306E+01	-1.3227629510E+02	-1.0834798971E+02	2.1312393616E+02	1.2531845756E+02	0.000E+00	0.0
	-5	1	9	9	0	501	-1.5480430047E-01	-7.8177871220E+01	-1.2918539262E+02	1.5105674954E+02	4.1800000000E+00	0.000E+00	0.0
	5	1	9	9	501	0	-2.1772148006E+01	-5.4098423884E+01	2.0837402910E+01	6.2067186626E+01	4.1800000000E+00	0.000E+00	0.0
</event>
<event>
    11  -1  1.0000000E+00  1.0000000E+00  -1.0000000E+00  -1.0000000E+00
	2212	-1	0	0	0	0	0.0000000000E+00	0.0000000000E+00	6.5000000000E+03	6.5000000000E+03	9.3827000000E-01	0.000E+00	0.0
	2212	-1	0	0	0	0	0.0000000000E+00	0.0000000000E+00	-6.5000000000E+03	6.5000000000E+03	9.3827000000E-01	0.000E+00	0.0
	2212	1	0	0	0	0	0.0000000000E+00	0.0000000000E+00	6.1865583569E+03	6.1865583569E+03	9.3827000000E-01	0.000E+00	0.0
	2212	1	0	0	0	0	0.0000000000E+00	0.0000000000E+00	-5.6274445564E+03	5.6274445564E+03	9.3827000000E-01	0.000E+00	0.0
	51	2	1	2	0	0	4.5366747714E+01	-9.3757371842E+00	-4.1340156319E+02	1.1256232703E+03	1.0459353937E+03	0.000E+00	0.0
	1000022	2	5	5	0	0	-4.5366747714E+01	9.3757371842E+00	-6.0915929703E+02	1.0434417754E+03	8.4590167465E+02	0.000E+00	0.0
	14	1	6	6	0	0	-5.4263407161E+01	-2.6295374396E+02	-3.3469572290E+02	5.3827076435E+02	3.2500000000E+02	0.000E+00	0.0
	-14	1	6	6	0	0	8.8966594466E+00	2.7232948115E+02	-2.7446357412E+02	5.0517101102E+02	3.2500000000E+02	0.000E+00	0.0
	25	2	5	5	0	0	4.5366747714E+01	-9.3757371842E+00	5.0045496501E+01	1.4255531140E+02	1.2518553767E+02	0.000E+00	0.0
	-5	1	9	9	0	501	2.1032393480E+01	-6.1551700048E+01	5.4076061259E+01	8.4691594362E+01	4.1800000000E+00	0.000E+00	0.0
	5	1	9	9	501	0	2.4334354234E+01	5.2175962864E+01	-4.0305647582E+00	5.7863717034E+01	4.1800000000E+00	0.000E+00	0.0
</event>
<event>
    11  -1  1.0000000E+00  1.0000000E+00  -1.0000000E+00  -1.0000000E+00
	2212	-1	0	0	0	0	0.0000000000E+00	0.0000000000E+00	6.5000000000E+03	6.5000000000E+03	9.3827000000E-01	0.000E+00	0.0
	2212	-1	0	0	0	0	0.0000000000E+00	0.0000000000E+00	-6.5000000000E+03	6.5000000000E+03	9.3827000000E-01	0.000E+00	0.0
	2212	1	0	0	0	0	0.0000000000E+00	0.0000000000E+00	6.2103797797E+03	6.2103797797E+03	9.3827000000E-01	0.000E+00	0.0
	2212	1	0	0	0	0	0.0000000000E+00	0.0000000000E+00	-5.5243370264E+03	5.5243370264E+03	9.3827000000E-01	0.000E+00	0.0
	51	2	1	2	0	0	1.0441914511E+01	-1.1686021217E+02	-8.1348128578E+02	1.3438020861E+03	1.0631495198E+03	0.000E+00	0.0
	1000022	2	5	5	0	0	-1.0441914511E+01	1.1686021217E+02	-4.3755375972E+02	9.6350837015E+02	8.5037035693E+02	0.000E+00	0.0
	14	1	6	6	0	0	-9.5477428929E+01	2.9356739288E+02	-3.6272724877E+02	5.7662276281E+02	3.2500000000E+02	0.000E+00	0.0
	-14	1	6	6	0	0	8.5035514418E+01	-1.7670718070E+02	-7.4826510949E+01	3.8688560734E+02	3.2500000000E+02	0.000E+00	0.0
	25	2	5	5	0	0	1.0441914511E+01	-1.1686021217E+02	-2.4848899356E+02	3.0177482377E+02	1.2472338021E+02	0.000E+00	0.0
	-5	1	9	9	0	501	-2.1004348072E+01	-3.2969658651E+01	-1.9154142080E+02	1.9553457318E+02	4.1800000000E+00	0.000E+00	0.0
	5	1	9	9	501	0	3.1446262583E+01	-8.3890553524E+01	-5.6947572768E+01	1.0624025059E+02	4.1800000000E+00	0.000E+00	0.0
</event>
<event>
    11  -1  1.0000000E+00  1.0000000E+00  -1.0000000E+00  -1.0000000E+00
	2212	-1	0	0	0	0	0.0000000000E+00	0.0000000000E+00	6.5000000000E+03	6.5000000000E+03	9.3827000000E-01	0.000E+00	0.0
	2212	-1	0	0	0	0	0.0000000000E+00	0.0000000000E+00	-6.5000000000E+03	6.5000000000E+03	9.3827000000E-01	0.000E+00	0.0
	2212	1	0	0	0	0	0.0000000000E+00	0.0000000000E+00	6.1735197775E+03	6.1735197775E+03	9.3827000000E-01	0.000E+00	0.0
	2212	1	0	0	0	0	0.0000000000E+00	0.0000000000E+00	-5.6279650283E+03	5.6279650283E+03	9.3827000000E-01	0.000E+00	0.0
	51	2	1	2	0	0	-1.0587260294E+02	1.3338577929E+02	-6.0323890802E+02	1.2376213640E+03	1.0671497956E+03	0.000E+00	0.0
	1000022	2	5	5	0	0	1.0587260294E+02	-1.3338577929E+02	-3.8479816013E+02	9.3297185385E+02	8.3268606442E+02	0.000E+00	0.0
	14	1	6	6	0	0	-3.5640138661E+01	-2.8780058674E+02	-8.5181272622E+01	4.4382456716E+02	3.2500000000E+02	0.000E+00	0.0
	-14	1	6	6	0	0	1.4151274160E+02	1.5441480745E+02	-2.9961688751E+02	4.8914728669E+02	3.2500000000E+02	0.000E+00	0.0
	25	2	5	5	0	0	-1.0587260294E+02	1.3338577929E+02	-1.6075658907E+02	2.6554334032E+02	1.2517911363E+02	0.000E+00	0.0
	-5	1	9	9	0	501	-1.2170854580E+00	6.2793108363E+01	-1.1519426136E+02	1.3126936431E+02	4.1800000000E+00	0.000E+00	0.0
	5	1	9	9	501	0	-1.0465551749E+02	7.0592670923E+01	-4.5562327713E+01	1.3427397602E+02	4.1800000000E+00	0.000E+00	0.0
</event>
<event>
    11  -1  1.0000000E+00  1.0000000E+00  -1.0000000E+00  -1.0000000E+00
	2212	-1	0	0	0	0	0.0000000000E+00	0.0000000000E+00	6.5000000000E+03	6.5000000000E+03	9.3827000000E-01	0.000E+00	0.0
	2212	-1	0	0	0	0	0.0000000000E+00	0.0000000000E+00	-6.5000000000E+03	6.5000000000E+03	9.3827000000E-01	0.000E+00	0.0
	2212	1	0	0	0	0	0.0000000000E+00	0.0000000000E+00	6.2490716148E+03	6.2490716148E+03	9.3827000000E-01	0.000E+00	0.0
	2212	1	0	0	0	0	0.0000000000E+00	0.0000000000E+00	-5.4361895679E+03	5.4361895679E+03	9.3827000000E-01	0.000E+00	0.0
	51	2	1	2	0	0	-9.6653893701E+01	-8.6221137763E+00	-9.1945647010E+02	1.3865703919E+03	1.0333251838E+03	0.000E+00	0.0
	1000022	2	5	5	0	0	9.6653893701E+01	8.6221137763E+00	-5.7298065182E+02	1.0272669218E+03	8.4708570122E+02	0.000E+00	0.0
	14	1	6	6	0	0	-1.9054945238E+02	-1.2312253198E+02	-2.2454049940E+02	4.5553450753E+02	3.2500000000E+02	0.000E+00	0.0
	-14	1	6	6	0	0	2.8720334608E+02	1.3174464575E+02	-3.4844015242E+02	5.7173241425E+02	3.2500000000E+02	0.000E+00	0.0
	25	2	5	5	0	0	-9.6653893701E+01	-8.6221137763E+00	-2.3990139509E+02	2.8747189547E+02	1.2518424544E+02	0.000E+00	0.0
	-5	1	9	9	0	501	-6.3716188977E+01	5.6282242382E+01	-1.3895962440E+02	1.6295610807E+02	4.1800000000E+00	0.000E+00	0.0
	5	1	9	9	501	0	-3.2937704724E+01	-6.4904356158E+01	-1.0094177069E+02	1.2451578740E+02	4.1800000000E+00	0.000E+00	0.0
</event>
<event>
    11  -1  1.0000000E+00  1.0000000E+00  -1.0000000E+00  -1.0000000E+00
	2212	-1	0	0	0	0	0.0000000000E+00	0.0000000000E+00	6.5000000000E+03	6.5000000000E+03	9.3827000000E-01	0.000E+00	0.0
	2212	-1	0	0	0	0	0.0000000000E+00	0.0000000000E+00	-6.5000000000E+03	6.5000000000E+03	9.3827000000E-01	0.000E+00	0.0
	2212	1	0	0	0	0	0.0000000000E+00	0.0000000000E+00	5.6345903080E+03	5.6345903080E+03	9.3827000000E-01	0.000E+00	0.0
	2212	1	0	0	0	0	0.0000000000E+00	0.0000000000E+00	-6.1938572054E+03	6.1938572054E+03	9.3827000000E-01	0.000E+00	0.0
	51	2	1	2	0	0	2.5312158313E+01	-1.0144813740E+02	5.0730406358E+02	1.1524086122E+03	1.0294443970E+03	0.000E+00	0.0
	1000022	2	5	5	0	0	-2.5312158313E+01	1.0144813740E+02	5.2215740603E+02	1.0041076242E+03	8.5126455013E+02	0.000E+00	0.0
	14	1	6	6	0	0	9.6055999936E+00	-2.0762066169E+02	1.2932541291E+02	4.0687672474E+02	3.2500000000E+02	0.000E+00	0.0
	-14	1	6	6	0	0	-3.4917758307E+01	3.0906879909E+02	3.9283199312E+02	5.9723089943E+02	3.2500000000E+02	0.000E+00	0.0
	25	2	5	5	0	0	2.5312158313E+01	-1.0144813740E+02	3.7109491355E+01	1.6744486250E+02	1.2541227089E+02	0.000E+00	0.0
	-5	1	9	9	0	501	2.9893954926E+01	2.3334221365E+01	5.2650990501E+00	3.8513998700E+01	4.1800000000E+00	0.000E+00	0.0
	5	1	9	9	501	0	-4.5817966132E+00	-1.2478235877E+02	3.1844392305E+01	1.2893086380E+02	4.1800000000E+00	0.000E+00	0.0
</event>
<event>
    11  -1  1.0000000E+00  1.0000000E+00  -1.0000000E+00  -1.0000000E+00
	2212	-1	0	0	0	0	0.0000000000E+00	0.0000000000E+00	6.5000000000E+03	6.5000000000E+03	9.3827000000E-01	0.000E+00	0.0
	2212	-1	0	0	0	0	0.0000000000E+00	0.0000000000E+00	-6.5000000000E+03	6.5000000000E+03	9.3827000000E-01	0.000E+00	0.0
	2212	1	0	0	0	0	0.0000000000E+00	0.0000000000E+00	5.4575192704E+03	5.4575192704E+03	9.3827000000E-01	0.000E+00	0.0
	2212	1	0	0	0	0	0.0000000000E+00	0.0000000000E+00	-6.2357271853E+03	6.2357271853E+03	9.3827000000E-01	0.000E+00	0.0
	51	2	1	2	0	0	-5.4985664242E+01	-1.1494013991E+02	7.1855557902E+02	1.2784967915E+03	1.0497605759E+03	0.000E+00	0.0
	1000022	2	5	5	0	0	5.4985664242E+01	1.1494013991E+02	7.0637933859E+02	1.1142297772E+03	8.5223328224E+02	0.000E+00	0.0
	14	1	6	6	0	0	3.2740655416E+01	-2.1848994733E+02	3.6616212036E+02	5.3713080901E+02	3.2500000000E+02	0.000E+00	0.0
	-14	1	6	6	0	0	2.2245008826E+01	3.3343008724E+02	3.4021721822E+02	5.7709896818E+02	3.2500000000E+02	0.000E+00	0.0
	25	2	5	5	0	0	-5.4985664242E+01	-1.1494013991E+02	7.1828576319E+01	1.9252376709E+02	1.2518545236E+02	0.000E+00	0.0
	-5	1	9	9	0	501	-4.4719784014E+01	-1.4219585412E+02	6.2089295961E+01	1.6153040916E+02	4.1800000000E+00	0.000E+00	0.0
	5	1	9	9	501	0	-1.0265880228E+01	2.7255714204E+01	9.7392803579E+00	3.0993357926E+01	4.1800000000E+00	0.000E+00	0.0
</event>
<event>
    11  -1  1.0000000E+00  1.0000000E+00  -1.0000000E+00  -1.0000000E+00
	2212	-1	0	0	0	0	0.0000000000E+00	0.0000000000E+00	6.5000000000E+03	6.5000000000E+03	9.3827000000E-01	0.000E+00	0.0
	2212	-1	0	0	0	0	0.0000000000E+00	0.0000000000E+00	-6.5000000000E+03	6.5000000000E+03	9.3827000000E-01	0.000E+00	0.0
	2212	1	0	0	0	0	0.0000000000E+00	0.0000000000E+00	6.1105414176E+03	6.1105414176E+03	9.3827000000E-01	0.000E+00	0.0
	2212	1	0	0	0	0	0.0000000000E+00	0.0000000000E+00	-5.7882298130E+03	5.7882298130E+03	9.3827000000E-01	0.000E+00	0.0
	51	2	1	2	0	0	-3.2751614888E+01	-9.0092352517E+00	-2.0332007488E+02	1.0729925068E+03	1.0530052384E+03	0.000E+00	0.0
	1000022	2	5	5	0	0	3.2751614888E+01	9.0092352517E+00	-3.9019463629E+02	9.5484473410E+02	8.7081730429E+02	0.000E+00	0.0
	14	1	6	6	0	0	1.4133573260E+02	2.6445077091E+02	-1.6696664481E+02	4.7266569584E+02	3.2500000000E+02	0.000E+00	0.0
	-14	1	6	6	0	0	-1.0858411771E+02	-2.5544153566E+02	-2.2322799148E+02	4.8217903826E+02	3.2500000000E+02	0.000E+00	0.0
	25	2	5	5	0	0	-3.2751614888E+01	-9.0092352517E+00	6.7883031662E+01	1.4638403535E+02	1.2516527163E+02	0.000E+00	0.0
	-5	1	9	9	0	501	-1.7505925333E+01	4.8168885177E+01	-5.8452260332E+00	5.1752661654E+01	4.1800000000E+00	0.000E+00	0.0
	5	1	9	9	501	0	-1.5245689555E+01	-5.7178120428E+01	7.3728257695E+01	9.4631373701E+01	4.1800000000E+00	0.000E+00	0.0
</event>
<event>
    11  -1  1.0000000E+00  1.0000000E+00  -1.0000000E+00  -1.0000000E+00
	2212	-1	0	0	0	0	0.0000000000E+00	0.0000000000E+00	6.5000000000E+03	6.5000000000E+03	9.3827000000E-01	0.000E+00	0.0
	2212	-1	0	0	0	0	0.0000000000E+00	0.0000000000E+00	-6.5000000000E+03	6.5000000000E+03	9.3827000000E-01	0.000E+00	0.0
	2212	1	0	0	0	0	0.0000000000E+00	0.0000000000E+00	6.1859972769E+03	6.1859972769E+03	9.3827000000E-01	0.000E+00	0.0
	2212	1	0	0	0	0	0.0000000000E+00	0.0000000000E+00	-5.4125108978E+03	5.4125108978E+03	9.3827000000E-01	0.000E+00	0.0
	51	2	1	2	0	0	-1.8143175729E+02	1.7769986619E+02	-6.8563601629E+02	1.3785824711E+03	1.1687164574E+03	0.000E+00	0.0
	1000022	2	5	5	0	0	1.8143175729E+02	-1.7769986619E+02	-6.8497133609E+02	1.1048419977E+03	8.2885184662E+02	0.000E+00	0.0
	14	1	6	6	0	0	2.2856434277E+02	-2.2390938068E+02	-6.1542021630E+02	7.6599224029E+02	3.2500000000E+02	0.000E+00	0.0
	-14	1	6	6	0	0	-4.7132585487E+01	4.6209514494E+01	-6.9551119787E+01	3.3884975743E+02	3.2500000000E+02	0.000E+00	0.0
	25	2	5	5	0	0	-1.8143175729E+02	1.7769986619E+02	-8.8515042982E+01	2.9664982761E+02	1.2518579148E+02	0.000E+00	0.0
	-5	1	9	9	0	501	-1.1658284414E+02	1.4776284743E+02	-7.2861643513E+00	1.8840376647E+02	4.1800000000E+00	0.000E+00	0.0
	5	1	9	9	501	0	-6.4848913147E+01	2.9937018758E+01	-8.1228878630E+01	1.0824606114E+02	4.1800000000E+00	0.000E+00	0.0
</event>
<event>
    11  -1  1.0000000E+00  1.0000000E+00  -1.0000000E+00  -1.0000000E+00
	2212	-1	0	0	0	0	0.0000000000E+00	0.0000000000E+00	6.5000000000E+03	6.5000000000E+03	9.3827000000E-01	0.000E+00	0.0
	2212	-1	0	0	0	0	0.0000000000E+00	0.0000000000E+00	-6.5000000000E+03	6.5000000000E+03	9.3827000000E-01	0.000E+00	0.0
	2212	1	0	0	0	0	0.0000000000E+00	0.0000000000E+00	6.2893395884E+03	6.2893395884E+03	9.3827000000E-01	0.000E+00	0.0
	2212	1	0	0	0	0	0.0000000000E+00	0.0000000000E+00	-5.2936770531E+03	5.2936770531E+03	9.3827000000E-01	0.000E+00	0.0
	51	2	1	2	0	0	4.0720092465E+01	6.8530905641E+01	-1.0553133354E+03	1.4616903916E+03	1.0082152320E+03	0.000E+00	0.0
	1000022	2	5	5	0	0	-4.0720092465E+01	-6.8530905641E+01	-7.8819009428E+02	1.1619030334E+03	8.4995318895E+02	0.000E+00	0.0
	14	1	6	6	0	0	-5.2343271016E+01	1.3562317259E+02	-6.7240794567E+02	7.6084880782E+02	3.2500000000E+02	0.000E+00	0.0
	-14	1	6	6	0	0	1.1623178551E+01	-2.0415407823E+02	-1.1578214861E+02	4.0105422561E+02	3.2500000000E+02	0.000E+00	0.0
	25	2	5	5	0	0	4.0720092465E+01	6.8530905641E+01	-2.0747244103E+02	2.5508032504E+02	1.2516607959E+02	0.000E+00	0.0
	-5	1	9	9	0	501	-3.8326240806E+01	2.2635163789E+01	-1.2174950432E+02	1.2969836381E+02	4.1800000000E+00	0.000E+00	0.0
	5	1	9	9	501	0	7.9046333271E+01	4.5895741852E+01	-8.5722936715E+01	1.2538196123E+02	4.1800000000E+00	0.000E+00	0.0
</event>
<event>
    11  -1  1.0000000E+00  1.0000000E+00  -1.0000000E+00  -1.0000000E+00
	2212	-1	0	0	0	0	0.0000000000E+00	0.0000000000E+00	6.5000000000E+03	6.5000000000E+03	9.3827000000E-01	0.000E+00	0.0
	2212	-1	0	0	0	0	0.0000000000E+00	0.0000000000E+00	-6.5000000000E+03	6.5000000000E+03	9.3827000000E-01	0.000E+00	0.0
	2212	1	0	0	0	0	0.0000000000E+00	0.0000000000E+00	6.1801707037E+03	6.1801707037E+03	9.3827000000E-01	0.000E+00	0.0
	2212	1	0	0	0	0	0.0000000000E+00	0.0000000000E+00	-5.6370773017E+03	5.6370773017E+03	9.3827000000E-01	0.000E+00	0.0
	51	2	1	2	0	0	1.4709927680E+02	2.2032457918E+01	-5.1464029259E+02	1.1793769943E+03	1.0506911237E+03	0.000E+00	0.0
	1000022	2	5	5	0	0	-1.4709927680E+02	-2.2032457918E+01	-4.7548658717E+02	9.7692712901E+02	8.4034248636E+02	0.000E+00	0.0
	14	1	6	6	0	0	-1.6851218107E+02	-1.9159185949E+02	-5.2061019090E+01	4.1646025681E+02	3.2500000000E+02	0.000E+00	0.0
	-14	1	6	6	0	0	2.1412904273E+01	1.6955940157E+02	-4.2342556808E+02	5.6046687220E+02	3.2500000000E+02	0.000E+00	0.0
	25	2	5	5	0	0	1.4709927680E+02	2.2032457918E+01	-6.7606814768E+01	2.0582486559E+02	1.2517814288E+02	0.000E+00	0.0
	-5	1	9	9	0	501	5.7234362187E+01	7.0609076213E+01	-2.0570160359E+01	9.3284606211E+01	4.1800000000E+00	0.000E+00	0.0
	5	1	9	9	501	0	8.9864914611E+01	-4.8576618295E+01	-4.7036654409E+01	1.1254025938E+02	4.1800000000E+00	0.000E+00	0.0
</event>
<event>
    11  -1  1.0000000E+00  1.0000000E+00  -1.0000000E+00  -1.0000000E+00
	2212	-1	0	0	0	0	0.0000000000E+00	0.0000000000E+00	6.5000000000E+03	6.5000000000E+03	9.3827000000E-01	0.000E+00	0.0
	2212	-1	0	0	0	0	0.0000000000E+00	0.0000000000E+00	-6.5000000000E+03	6.5000000000E+03	9.3827000000E-01	0.000E+00	0.0
	2212	1	0	0	0	0	0.0000000000E+00	0.0000000000E+00	5.5247826504E+03	5.5247826504E+03	9.3827000000E-01	0.000E+00	0.0
	2212	1	0	0	0	0	0.0000000000E+00	0.0000000000E+00	-6.2137940174E+03	6.2137940174E+03	9.3827000000E-01	0.000E+00	0.0
	51	2	1	2	0	0	1.0901437729E+02	9.2028910298E+01	6.4257651207E+02	1.2448735629E+03	1.0566229976E+03	0.000E+00	0.0
	1000022	2	5	5	0	0	-1.0901437729E+02	-9.2028910298E+01	6.1516614404E+02	1.0577675954E+03	8.4858084250E+02	0.000E+00	0.0
	14	1	6	6	0	0	-7.3120886511E+01	4.7744955484E+01	6.1626959830E+02	7.0216768838E+02	3.2500000000E+02	0.000E+00	0.0
	-14	1	6	6	0	0	-3.5893490778E+01	-1.3977386578E+02	-1.1034542629E+00	3.5559990698E+02	3.2500000000E+02	0.000E+00	0.0
	25	2	5	5	0	0	1.0901437729E+02	9.2028910298E+01	7.3845223000E+01	2.0365573680E+02	1.2517622533E+02	0.000E+00	0.0
	-5	1	9	9	0	501	-2.3426642522E+00	-1.1767431957E+01	4.7419626970E+01	4.9092300340E+01	4.1800000000E+00	0.000E+00	0.0
	5	1	9	9	501	0	1.1135704154E+02	1.0379634225E+02	2.6425596030E+01	1.5456343646E+02	4.1800000000E+00	0.000E+00	0.0
</event>
<event>
    11  -1  1.0000000E+00  1.0000000E+00  -1.0000000E+00  -1.0000000E+00
	2212	-1	0	0	0	0	0.0000000000E+00	0.0000000000E+00	6.5000000000E+03	6.5000000000E+03	9.3827000000E-01	0.000E+00	0.0
	2212	-1	0	0	0	0	0.0000000000E+00	0.0000000000E+00	-6.5000000000E+03	6.5000000000E+03	9.3827000000E-01	0.000E+00	0.0
	2212	1	0	0	0	0	0.0000000000E+00	0.0000000000E+00	6.3050563523E+03	6.3050563523E+03	9.3827000000E-01	0.000E+00	0.0
	2212	1	0	0	0	0	0.0000000000E+00	0.0000000000E+00	-5.0716599977E+03	5.0716599977E+03	9.3827000000E-01	0.000E+00	0.0
	51	2	1	2	0	0	-1.4833541996E+02	1.2433006227E+00	-1.2607375028E+03	1.6508322855E+03	1.0553592948E+03	0.000E+00	0.0
	1000022	2	5	5	0	0	1.4833541996E+02	-1.2433006227E+00	-9.9109536469E+02	1.3128245009E+03	8.4807617911E+02	0.000E+00	0.0
	14	1	6	6	0	0	-5.6256110248E+01	-1.6870497679E+01	-8.3507627129E+02	8.9801266277E+02	3.2500000000E+02	0.000E+00	0.0
	-14	1	6	6	0	0	2.0459153021E+02	1.5627197056E+01	-1.5601909340E+02	4.1481183810E+02	3.2500000000E+02	0.000E+00	0.0
	25	2	5	5	0	0	-1.4833541996E+02	1.2433006227E+00	-2.4230098991E+02	3.1045914920E+02	1.2518055361E+02	0.000E+00	0.0
	-5	1	9	9	0	501	-8.4038234885E+01	-2.6741271883E+01	-2.1952077089E+02	2.3661014728E+02	4.1800000000E+00	0.000E+00	0.0
	5	1	9	9	501	0	-6.4297185074E+01	2.7984572506E+01	-2.2780219024E+01	7.3849001927E+01	4.1800000000E+00	0.000E+00	0.0
</event>
<event>
    11  -1  1.0000000E+00  1.0000000E+00  -1.0000000E+00  -1.0000000E+00
	2212	-1	0	0	0	0	0.0000000000E+00	0.0000000000E+00	6.5000000000E+03	6.5000000000E+03	9.3827000000E-01	0.000E+00	0.0
	2212	-1	0	0	0	0	0.0000000000E+00	0.0000000000E+00	-6.5000000000E+03	6.5000000000E+03	9.3827000000E-01	0.000E+00	0.0
	2212	1	0	0	0	0	0.0000000000E+00	0.0000000000E+00	5.5300578393E+03	5.5300578393E+03	9.3827000000E-01	0.000E+00	0.0
	2212	1	0	0	0	0	0.0000000000E+00	0.0000000000E+00	-6.2137956258E+03	6.2137956258E+03	9.3827000000E-01	0.000E+00	0.0
	51	2	1	2	0	0	1.3474418464E+02	-2.5839783305E+01	6.9762043636E+02	1.2711824100E+03	1.0537583957E+03	0.000E+00	0.0
	1000022	2	5	5	0	0	-1.3474418464E+02	2.5839783305E+01	5.5505366514E+02	1.0302001713E+03	8.5697382225E+02	0.000E+00	0.0
	14	1	6	6	0	0	-1.8374107114E+02	-2.3158245231E+02	3.6640130983E+02	5.7207179032E+02	3.2500000000E+02	0.000E+00	0.0
	-14	1	6	6	0	0	4.8996886501E+01	2.5742223561E+02	1.8865235531E+02	4.5812838096E+02	3.2500000000E+02	0.000E+00	0.0
	25	2	5	5	0	0	1.3474418464E+02	-2.5839783305E+01	1.2868412135E+02	2.2594636362E+02	1.2517374506E+02	0.000E+00	0.0
	-5	1	9	9	0	501	1.2680018104E+02	2.8941779794E+01	8.7142364469E+01	1.5661154687E+02	4.1800000000E+00	0.000E+00	0.0
	5	1	9	9	501	0	7.9440035983E+00	-5.4781563099E+01	4.1541756879E+01	6.9334816747E+01	4.1800000000E+00	0.000E+00	0.0
</event>
<event>
    11  -1  1.0000000E+00  1.0000000E+00  -1.0000000E+00  -1.0000000E+00
	2212	-1	0	0	0	0	0.0000000000E+00	0.0000000000E+00	6.5000000000E+03	6.5000000000E+03	9.3827000000E-01	0.000E+00	0.0
	2212	-1	0	0	0	0	0.0000000000E+00	0.0000000000E+00	-6.5000000000E+03	6.5000000000E+03	9.3827000000E-01	0.000E+00	0.0
	2212	1	0	0	0	0	0.0000000000E+00	0.0000000000E+00	6.0397464129E+03	6.0397464129E+03	9.3827000000E-01	0.000E+00	0.0
	2212	1	0	0	0	0	0.0000000000E+00	0.0000000000E+00	-5.6482543346E+03	5.6482543346E+03	9.3827000000E-01	0.000E+00	0.0
	51	2	1	2	0	0	2.7434314212E+02	1.6681582227E+02	-3.7332515157E+02	1.3455628332E+03	1.2522284102E+03	0.000E+00	0.0
	1000022	2	5	5	0	0	-2.7434314212E+02	-1.6681582227E+02	-3.1429332628E+02	9.5883865770E+02	8.4705348023E+02	0.000E+00	0.0
	14	1	6	6	0	0	7.9803595671E+01	-2.4922021505E+02	-1.2336939187E+02	4.3511416470E+02	3.2500000000E+02	0.000E+00	0.0
	-14	1	6	6	0	0	-3.5414673779E+02	8.2404392779E+01	-1.9092393441E+02	5.2372449300E+02	3.2500000000E+02	0.000E+00	0.0
	25	2	5	5	0	0	2.7434314212E+02	1.6681582227E+02	-7.7198752035E+01	3.5316059481E+02	1.2518418521E+02	0.000E+00	0.0
	-5	1	9	9	0	501	6.7915038988E+01	1.1188675908E+02	-2.7735639284E+01	1.3385752674E+02	4.1800000000E+00	0.000E+00	0.0
	5	1	9	9	501	0	2.0642810313E+02	5.4929063192E+01	-4.9463112751E+01	2.1930306808E+02	4.1800000000E+00	0.000E+00	0.0
</event>
<event>
    11  -1  1.0000000E+00  1.0000000E+00  -1.0000000E+00  -1.0000000E+00
	2212	-1	0	0	0	0	0.0000000000E+00	0.0000000000E+00	6.5000000000E+03	6.5000000000E+03	9.3827000000E-01	0.000E+00	0.0
	2212	-1	0	0	0	0	0.0000000000E+00	0.0000000000E+00	-6.5000000000E+03	6.5000000000E+03	9.3827000000E-01	0.000E+00	0.0
	2212	1	0	0	0	0	0.0000000000E+00	0.0000000000E+00	6.0736060894E+03	6.0736060894E+03	9.3827000000E-01	0.000E+00	0.0
	2212	1	0	0	0	0	0.0000000000E+00	0.0000000000E+00	-5.8514592823E+03	5.8514592823E+03	9.3827000000E-01	0.000E+00	0.0
	51	2	1	2	0	0	1.0289405962E+02	3.0492246547E+01	-1.2893086123E+02	1.0650236537E+03	1.0517296474E+03	0.000E+00	0.0
	1000022	2	5	5	0	0	-1.0289405962E+02	-3.0492246547E+01	-2.7737892946E+02	9.0104765625E+02	8.5054737888E+02	0.000E+00	0.0
	14	1	6	6	0	0	1.1588150817E+02	9.4520235753E+01	6.7828499329E+01	3.6412676944E+02	3.2500000000E+02	0.000E+00	0.0
	-14	1	6	6	0	0	-2.1877556780E+02	-1.2501248230E+02	-3.4520742879E+02	5.3692088681E+02	3.2500000000E+02	0.000E+00	0.0
	25	2	5	5	0	0	1.0289405962E+02	3.0492246547E+01	5.5232122459E+01	1.7388697205E+02	1.2517638393E+02	0.000E+00	0.0
	-5	1	9	9	0	501	8.6293395672E+01	-2.9797571339E+01	1.6065910772E+00	9.1402948143E+01	4.1800000000E+00	0.000E+00	0.0
	5	1	9	9	501	0	1.6600663950E+01	6.0289817885E+01	5.3625531382E+01	8.2484023909E+01	4.1800000000E+00	0.000E+00	0.0
</event>
<event>
    11  -1  1.0000000E+00  1.0000000E+00  -1.0000000E+00  -1.0000000E+00
	2212	-1	0	0	0	0	0.0000000000E+00	0.0000000000E+00	6.5000000000E+03	6.5000000000E+03	9.3827000000E-01	0.000E+00	0.0
	2212	-1	0	0	0	0	0.0000000000E+00	0.0000000000E+00	-6.5000000000E+03	6.5000000000E+03	9.3827000000E-01	0.000E+00	0.0
	2212	1	0	0	0	0	0.0000000000E+00	0.0000000000E+00	6.1768144868E+03	6.1768144868E+03	9.3827000000E-01	0.000E+00	0.0
	2212	1	0	0	0	0	0.0000000000E+00	0.0000000000E+00	-5.6472625991E+03	5.6472625991E+03	9.3827000000E-01	0.000E+00	0.0
	51	2	1	2	0	0	4.6120120352E+01	7.6799480906E+01	-4.6867046766E+02	1.1532765199E+03	1.0499378545E+03	0.000E+00	0.0
	1000022	2	5	5	0	0	-4.6120120352E+01	-7.6799480906E+01	-5.1037824754E+02	1.0207990431E+03	8.7949957647E+02	0.000E+00	0.0
	14	1	6	6	0	0	2.5396507617E+02	5.1206906147E+01	-3.1043941727E+02	5.1876588067E+02	3.2500000000E+02	0.000E+00	0.0
	-14	1	6	6	0	0	-3.0008519653E+02	-1.2800638705E+02	-1.9993883027E+02	5.0203316240E+02	3.2500000000E+02	0.000E+00	0.0
	25	2	5	5	0	0	4.6120120352E+01	7.6799480906E+01	-1.9173640110E+01	1.5512387105E+02	1.2518211184E+02	0.000E+00	0.0
	-5	1	9	9	0	501	7.4163301066E+01	5.1745276330E+01	-5.2546214406E+01	1.0467256515E+02	4.1800000000E+00	0.000E+00	0.0
	5	1	9	9	501	0	-2.8043180714E+01	2.5054204576E+01	3.3372574296E+01	5.0451305896E+01	4.1800000000E+00	0.000E+00	0.0
</event>
<event>
    11  -1  1.0000000E+00  1.0000000E+00  -1.0000000E+00  -1.0000000E+00
	2212	-1	0	0	0	0	0.0000000000E+00	0.0000000000E+00	6.5000000000E+03	6.5000000000E+03	9.3827000000E-01	0.000E+00	0.0
	2212	-1	0	0	0	0	0.0000000000E+00	0.0000000000E+00	-6.5000000000E+03	6.5000000000E+03	9.3827000000E-01	0.000E+00	0.0
	2212	1	0	0	0	0	0.0000000000E+00	0.0000000000E+00	6.2173335228E+03	6.2173335228E+03	9.3827000000E-01	0.000E+00	0.0
	2212	1	0	0	0	0	0.0000000000E+00	0.0000000000E+00	-5.5111552420E+03	5.5111552420E+03	9.3827000000E-01	0.000E+00	0.0
	51	2	1	2	0	0	-1.3112219155E+02	-1.4029703595E+00	-7.9425171845E+02	1.3289408740E+03	1.0573802802E+03	0.000E+00	0.0
	1000022	2	5	5	0	0	1.3112219155E+02	1.4029703595E+00	-4.9573076526E+02	9.9374061578E+02	8.5122054861E+02	0.000E+00	0.0
	14	1	6	6	0	0	-7.1869942549E+01	2.3155029468E+02	-3.0681622444E+02	5.0847027759E+02	3.2500000000E+02	0.000E+00	0.0
	-14	1	6	6	0	0	2.0299213409E+02	-2.3014732432E+02	-1.8891454082E+02	4.8527033819E+02	3.2500000000E+02	0.000E+00	0.0
	25	2	5	5	0	0	-1.3112219155E+02	-1.4029703595E+00	-2.1044751549E+02	2.7777061940E+02	1.2519330166E+02	0.000E+00	0.0
	-5	1	9	9	0	501	-5.3144226914E+01	5.3295586885E+01	-4.7859065778E+01	8.9289926715E+01	4.1800000000E+00	0.000E+00	0.0
	5	1	9	9	501	0	-7.7977964632E+01	-5.4698557244E+01	-1.6258844972E+02	1.8848069268E+02	4.1800000000E+00	0.000E+00	0.0
</event>
<event>
    11  -1  1.0000000E+00  1.0000000E+00  -1.0000000E+00  -1.0000000E+00
	2212	-1	0	0	0	0	0.0000000000E+00	0.0000000000E+00	6.5000000000E+03	6.5000000000E+03	9.3827000000E-01	0.000E+00	0.0
	2212	-1	0	0	0	0	0.0000000000E+00	0.0000000000E+00	-6.5000000000E+03	6.5000000000E+03	9.3827000000E-01	0.000E+00	0.0
	2212	1	0	0	0	0	0.0000000000E+00	0.0000000000E+00	5.6277001970E+03	5.6277001970E+03	9.3827000000E-01	0.000E+00	0.0
	2212	1	0	0	0	0	0.0000000000E+00	0.0000000000E+00	-6.1808998629E+03	6.1808998629E+03	9.3827000000E-01	0.000E+00	0.0
	51	2	1	2	0	0	-3.8330792828E+01	-1.3716472316E+02	6.2561189039E+02	1.2349403206E+03	1.0551795804E+03	0.000E+00	0.0
	1000022	2	5	5	0	0	3.8330792828E+01	1.3716472316E+02	3.8237969223E+02	9.3592344760E+02	8.4229155272E+02	0.000E+00	0.0
	14	1	6	6	0	0	7.3630106849E+01	-1.3120938635E+02	3.6684613777E+02	5.1267766140E+02	3.2500000000E+02	0.000E+00	0.0
	-14	1	6	6	0	0	-3.5299314021E+01	2.6837410950E+02	1.5533554457E+01	4.2324578620E+02	3.2500000000E+02	0.000E+00	0.0
	25	2	5	5	0	0	-3.8330792828E+01	-1.3716472316E+02	1.7081997362E+02	2.5547649251E+02	1.2571938545E+02	0.000E+00	0.0
	-5	1	9	9	0	501	-1.4826805242E+01	-9.8089040627E+01	1.8290483337E+02	2.0811762182E+02	4.1800000000E+00	0.000E+00	0.0
	5	1	9	9	501	0	-2.3503987586E+01	-3.9075682529E+01	-1.2084859743E+01	4.7358870685E+01	4.1800000000E+00	0.000E+00	0.0
</event>
<event>
    11  -1  1.0000000E+00  1.0000000E+00  -1.0000000E+00  -1.0000000E+00
	2212	-1	0	0	0	0	0.0000000000E+00	0.0000000000E+00	6.5000000000E+03	6.5000000000E+03	9.3827000000E-01	0.000E+00	0.0
	2212	-1	0	0	0	0	0.0000000000E+00	0.0000000000E+00	-6.5000000000E+03	6.5000000000E+03	9.3827000000E-01	0.000E+00	0.0
	2212	1	0	0	0	0	0.0000000000E+00	0.0000000000E+00	5.9759211549E+03	5.9759211549E+03	9.3827000000E-01	0.000E+00	0.0
	2212	1	0	0	0	0	0.0000000000E+00	0.0000000000E+00	-5.9641560286E+03	5.9641560286E+03	9.3827000000E-01	0.000E+00	0.0
	51	2	1	2	0	0	8.0511065382E+01	1.1002112614E+02	-7.2639170777E+01	1.0710560619E+03	1.0598575181E+03	0.000E+00	0.0
	1000022	2	5	5	0	0	-8.0511065382E+01	-1.1002112614E+02	5.1155463050E+01	8.6441588149E+02	8.5206294070E+02	0.000E+00	0.0
	14	1	6	6	0	0	-2.4442156884E+02	-2.4286383405E+02	6.1488220937E-01	4.7365612345E+02	3.2500000000E+02	0.000E+00	0.0
	-14	1	6	6	0	0	1.6391050345E+02	1.3284270791E+02	5.0540580840E+01	3.9075975804E+02	3.2500000000E+02	0.000E+00	0.0
	25	2	5	5	0	0	8.0511065382E+01	1.1002112614E+02	-6.2920589422E+01	1.9550693500E+02	1.2520895022E+02	0.000E+00	0.0
	-5	1	9	9	0	501	2.0090739450E+01	8.4879792651E+01	2.0202293511E+01	8.9631590833E+01	4.1800000000E+00	0.000E+00	0.0
	5	1	9	9	501	0	6.0420325932E+01	2.5141333486E+01	-8.3122882933E+01	1.0587534417E+02	4.1800000000E+00	0.000E+00	0.0
</event>
<event>
    11  -1  1.0000000E+00  1.0000000E+00  -1.0000000E+00  -1.0000000E+00
	2212	-1	0	0	0	0	0.0000000000E+00	0.0000000000E+00	6.5000000000E+03	6.5000000000E+03	9.3827000000E-01	0.000E+00	0.0
	2212	-1	0	0	0	0	0.0000000000E+00	0.0000000000E+00	-6.5000000000E+03	6.5000000000E+03	9.3827000000E-01	0.000E+00	0.0
	2212	1	0	0	0	0	0.0000000000E+00	0.0000000000E+00	6.2979818241E+03	6.2979818241E+03	9.3827000000E-01	0.000E+00	0.0
	2212	1	0	0	0	0	0.0000000000E+00	0.0000000000E+00	-5.1246359426E+03	5.1246359426E+03	9.3827000000E-01	0.000E+00	0.0
	51	2	1	2	0	0	-6.5175607273E+01	1.0950821269E+02	-1.3343582351E+03	1.7053286956E+03	1.0542268030E+03	0.000E+00	0.0
	1000022	2	5	5	0	0	6.5175607273E+01	-1.0950821269E+02	-7.9890017542E+02	1.1625076080E+03	8.3483084508E+02	0.000E+00	0.0
	14	1	6	6	0	0	-5.6225739876E+00	2.0594644531E+02	-3.9657128578E+02	5.5257518618E+02	3.2500000000E+02	0.000E+00	0.0
	-14	1	6	6	0	0	7.0798181261E+01	-3.1545465801E+02	-4.0232888963E+02	6.0993242180E+02	3.2500000000E+02	0.000E+00	0.0
	25	2	5	5	0	0	-6.5175607273E+01	1.0950821269E+02	-3.7444570610E+02	4.1487462530E+02	1.2518569995E+02	0.000E+00	0.0
	-5	1	9	9	0	501	-9.4093014228E+01	7.1922736374E+01	-3.2635762949E+02	3.4720764689E+02	4.1800000000E+00	0.000E+00	0.0
	5	1	9	9	501	0	2.8917406955E+01	3.7585476320E+01	-4.8088076607E+01	6.7666978409E+01	4.1800000000E+00	0.000E+00	0.0
</event>
<event>
    11  -1  1.0000000E+00  1.0000000E+00  -1.0000000E+00  -1.0000000E+00
	2212	-1	0	0	0	0	0.0000000000E+00	0.0000000000E+00	6.5000000000E+03	6.5000000000E+03	9.3827000000E-01	0.000E+00	0.0
	2212	-1	0	0	0	0	0.0000000000E+00	0.0000000000E+00	-6.5000000000E+03	6.5000000000E+03	9.3827000000E-01	0.000E+00	0.0
	2212	1	0	0	0	0	0.0000000000E+00	0.0000000000E+00	5.7405072113E+03	5.7405072113E+03	9.3827000000E-01	0.000E+00	0.0
	2212	1	0	0	0	0	0.0000000000E+00	0.0000000000E+00	-6.1374558366E+03	6.1374558366E+03	9.3827000000E-01	0.000E+00	0.0
	51	2	1	2	0	0	1.2215052248E+02	8.7078230895E+01	3.6680317044E+02	1.1218050834E+03	1.0494754455E+03	0.000E+00	0.0
	1000022	2	5	5	0	0	-1.2215052248E+02	-8.7078230895E+01	3.5641432418E+02	9.2248151093E+02	8.3751871567E+02	0.000E+00	0.0
	14	1	6	6	0	0	1.4909425220E+02	-1.8247740821E+02	2.5902773139E+02	4.7775251561E+02	3.2500000000E+02	0.000E+00	0.0
	-14	1	6	6	0	0	-2.7124477468E+02	9.5399177314E+01	9.7386592795E+01	4.4472899532E+02	3.2500000000E+02	0.000E+00	0.0
	25	2	5	5	0	0	1.2215052248E+02	8.7078230895E+01	4.0534301151E+01	1.9955544119E+02	1.2520373838E+02	0.000E+00	0.0
	-5	1	9	9	0	501	3.7053885615E+01	9.1950747075E+01	-1.1050777733E+01	9.9837480013E+01	4.1800000000E+00	0.000E+00	0.0
	5	1	9	9	501	0	8.5096636860E+01	-4.8725161803E+00	5.1585078884E+01	9.9717961182E+01	4.1800000000E+00	0.000E+00	0.0
</event>
<event>
    11  -1  1.0000000E+00  1.0000000E+00  -1.0000000E+00  -1.0000000E+00
	2212	-1	0	0	0	0	0.0000000000E+00	0.0000000000E+00	6.5000000000E+03	6.5000000000E+03	9.3827000000E-01	0.000E+00	0.0
	2212	-1	0	0	0	0	0.0000000000E+00	0.0000000000E+00	-6.5000000000E+03	6.5000000000E+03	9.3827000000E-01	0.000E+00	0.0
	2212	1	0	0	0	0	0.0000000000E+00	0.0000000000E+00	5.8944355600E+03	5.8944355600E+03	9.3827000000E-01	0.000E+00	0.0
	2212	1	0	0	0	0	0.0000000000E+00	0.0000000000E+00	-6.0427476306E+03	6.0427476306E+03	9.3827000000E-01	0.000E+00	0.0
	51	2	1	2	0	0	3.2651018238E+01	-2.6617845042E+00	2.5806648109E+02	1.0840915934E+03	1.0524177403E+03	0.000E+00	0.0
	1000022	2	5	5	0	0	-3.2651018238E+01	2.6617845042E+00	1.5667761802E+01	8.7751108267E+02	8.7675940107E+02	0.000E+00	0.0
	14	1	6	6	0	0	2.7571858948E+02	3.0960869675E+01	3.0011125919E+01	4.2837481685E+02	3.2500000000E+02	0.000E+00	0.0
	-14	1	6	6	0	0	-3.0836960771E+02	-2.8299085170E+01	-1.4343364117E+01	4.4913626582E+02	3.2500000000E+02	0.000E+00	0.0
	25	2	5	5	0	0	3.2651018238E+01	-2.6617845042E+00	1.3264430884E+02	1.8530572675E+02	1.2518197000E+02	0.000E+00	0.0
	-5	1	9	9	0	501	2.4960916632E+01	5.7595446350E+01	9.4265408901E+01	1.1333014830E+02	4.1800000000E+00	0.000E+00	0.0
	5	1	9	9	501	0	7.6901016061E+00	-6.0257230854E+01	3.8378899937E+01	7.1975578451E+01	4.1800000000E+00	0.000E+00	0.0
</event>
<event>
    11  -1  1.0000000E+00  1.0000000E+00  -1.0000000E+00  -1.0000000E+00
	2212	-1	0	0	0	0	0.0000000000E+00	0.0000000000E+00	6.5000000000E+03	6.5000000000E+03	9.3827000000E-01	0.000E+00	0.0
	2212	-1	0	0	0	0	0.0000000000E+00	0.0000000000E+00	-6.5000000000E+03	6.5000000000E+03	9.3827000000E-01	0.000E+00	0.0
	2212	1	0	0	0	0	0.0000000000E+00	0.0000000000E+00	5.1685492001E+03	5.1685492001E+03	9.3827000000E-01	0.000E+00	0.0
	2212	1	0	0	0	0	0.0000000000E+00	0.0000000000E+00	-6.2950573399E+03	6.2950573399E+03	9.3827000000E-01	0.000E+00	0.0
	51	2	1	2	0	0	-7.0189095594E+01	-1.1173802099E+00	1.3167881553E+03	1.6823623505E+03	1.0447412478E+03	0.000E+00	0.0
	1000022	2	5	5	0	0	7.0189095594E+01	1.1173802099E+00	7.4305472602E+02	1.1269641157E+03	8.4438737226E+02	0.000E+00	0.0
	14	1	6	6	0	0	-1.8304618266E+02	-1.5316878869E+02	3.0003849746E+02	5.0260788173E+02	3.2500000000E+02	0.000E+00	0.0
	-14	1	6	6	0	0	2.5323527826E+02	1.5428616890E+02	4.4301622856E+02	6.2435623392E+02	3.2500000000E+02	0.000E+00	0.0
	25	2	5	5	0	0	-7.0189095594E+01	-1.1173802099E+00	3.8345341375E+02	4.0942934431E+02	1.2517232037E+02	0.000E+00	0.0
	-5	1	9	9	0	501	3.9516911210E+00	4.9349930814E+01	1.8599633498E+02	1.9251789672E+02	4.1800000000E+00	0.000E+00	0.0
	5	1	9	9	501	0	-7.4140786715E+01	-5.0467311024E+01	1.9745707878E+02	2.1691144759E+02	4.1800000000E+00	0.000E+00	0.0
</event>
<event>
    11  -1  1.0000000E+00  1.0000000E+00  -1.0000000E+00  -1.0000000E+00
	2212	-1	0	0	0	0	0.0000000000E+00	0.0000000000E+00	6.5000000000E+03	6.5000000000E+03	9.3827000000E-01	0.000E+00	0.0
	2212	-1	0	0	0	0	0.0000000000E+00	0.0000000000E+00	-6.5000000000E+03	6.5000000000E+03	9.3827000000E-01	0.000E+00	0.0
	2212	1	0	0	0	0	0.0000000000E+00	0.0000000000E+00	6.3160067563E+03	6.3160067563E+03	9.3827000000E-01	0.000E+00	0.0
	2212	1	0	0	0	0	0.0000000000E+00	0.0000000000E+00	-5.0304551994E+03	5.0304551994E+03	9.3827000000E-01	0.000E+00	0.0
	51	2	1	2	0	0	9.2146472435E+01	4.5479291017E+01	-1.1908766225E+03	1.5843900173E+03	1.0399736817E+03	0.000E+00	0.0
	1000022	2	5	5	0	0	-9.2146472435E+01	-4.5479291017E+01	-1.1732273134E+03	1.4564338048E+03	8.5684173610E+02	0.000E+00	0.0
	14	1	6	6	0	0	-1.0867864471E+02	2.0260356680E+02	-8.3687834866E+02	9.2674140058E+02	3.2500000000E+02	0.000E+00	0.0
	-14	1	6	6	0	0	1.6532172273E+01	-2.4808285781E+02	-3.3634896472E+02	5.2969240426E+02	3.2500000000E+02	0.000E+00	0.0
	25	2	5	5	0	0	9.2146472435E+01	4.5479291017E+01	-1.1232424347E+02	1.9710423946E+02	1.2519587552E+02	0.000E+00	0.0
	-5	1	9	9	0	501	1.2227827703E+02	4.7916548999E+01	-8.9192086777E+01	1.5881018055E+02	4.1800000000E+00	0.000E+00	0.0
	5	1	9	9	501	0	-3.0131804594E+01	-2.4372579825E+00	-2.3132156694E+01	3.8294058912E+01	4.1800000000E+00	0.000E+00	0.0
</event>
<event>
    11  -1  1.0000000E+00  1.0000000E+00  -1.0000000E+00  -1.0000000E+00
	2212	-1	0	0	0	0	0.0000000000E+00	0.0000000000E+00	6.5000000000E+03	6.5000000000E+03	9.3827000000E-01	0.000E+00	0.0
	2212	-1	0	0	0	0	0.0000000000E+00	0.0000000000E+00	-6.5000000000E+03	6.5000000000E+03	9.3827000000E-01	0.000E+00	0.0
	2212	1	0	0	0	0	0.0000000000E+00	0.0000000000E+00	6.1771915881E+03	6.1771915881E+03	9.3827000000E-01	0.000E+00	0.0
	2212	1	0	0	0	0	0.0000000000E+00	0.0000000000E+00	-5.6481976977E+03	5.6481976977E+03	9.3827000000E-01	0.000E+00	0.0
	51	2	1	2	0	0	8.9291046942E+00	2.5750571316E+01	-3.7847148287E+02	1.1152843933E+03	1.0487496335E+03	0.000E+00	0.0
	1000022	2	5	5	0	0	-8.9291046942E+00	-2.5750571316E+01	-5.8907117852E+02	1.0331071044E+03	8.4827036673E+02	0.000E+00	0.0
	14	1	6	6	0	0	-2.5467031458E+02	1.9151683935E+01	-1.7012773451E+02	4.4698121009E+02	3.2500000000E+02	0.000E+00	0.0
	-14	1	6	6	0	0	2.4574120988E+02	-4.4902255251E+01	-4.1894344401E+02	5.8612589436E+02	3.2500000000E+02	0.000E+00	0.0
	25	2	5	5	0	0	8.9291046942E+00	2.5750571316E+01	6.0077288134E+01	1.4150360970E+02	1.2518454447E+02	0.000E+00	0.0
	-5	1	9	9	0	501	-2.7182045185E+01	-2.3568776826E+01	-1.9450681118E+01	4.1111460902E+01	4.1800000000E+00	0.000E+00	0.0
	5	1	9	9	501	0	3.6111149880E+01	4.9319348142E+01	7.9527969252E+01	1.0039214880E+02	4.1800000000E+00	0.000E+00	0.0
</event>
<event>
    11  -1  1.0000000E+00  1.0000000E+00  -1.0000000E+00  -1.0000000E+00
	2212	-1	0	0	0	0	0.0000000000E+00	0.0000000000E+00	6.5000000000E+03	6.5000000000E+03	9.3827000000E-01	0.000E+00	0.0
	2212	-1	0	0	0	0	0.0000000000E+00	0.0000000000E+00	-6.5000000000E+03	6.5000000000E+03	9.3827000000E-01	0.000E+00	0.0
	2212	1	0	0	0	0	0.0000000000E+00	0.0000000000E+00	6.0572183239E+03	6.0572183239E+03	9.3827000000E-01	0.000E+00	0.0
	2212	1	0	0	0	0	0.0000000000E+00	0.0000000000E+00	-5.8848712388E+03	5.8848712388E+03	9.3827000000E-01	0.000E+00	0.0
	51	2	1	2	0	0	-4.1290885191E+01	-4.8850006091E+01	-9.9346049575E+01	1.0504436555E+03	1.0437772633E+03	0.000E+00	0.0
	1000022	2	5	5	0	0	4.1290885191E+01	4.8850006091E+01	-2.1995353703E+02	9.0949877757E+02	8.8018021317E+02	0.000E+00	0.0
	14	1	6	6	0	0	-1.2401738726E+02	2.0137844452E+02	-3.0579254604E+02	5.0504224722E+02	3.2500000000E+02	0.000E+00	0.0
	-14	1	6	6	0	0	1.6530827245E+02	-1.5252843843E+02	8.5839009016E+01	4.0445653035E+02	3.2500000000E+02	0.000E+00	0.0
	25	2	5	5	0	0	-4.1290885191E+01	-4.8850006091E+01	4.7606451941E+01	1.4841165967E+02	1.2517342435E+02	0.000E+00	0.0
	-5	1	9	9	0	501	-6.3953755162E+00	2.0640097430E+01	-3.0832914896E+01	3.7882126272E+01	4.1800000000E+00	0.000E+00	0.0
	5	1	9	9	501	0	-3.4895509675E+01	-6.9490103522E+01	7.8439366837E+01	1.1052953340E+02	4.1800000000E+00	0.000E+00	0.0
</event>
<event>
    11  -1  1.0000000E+00  1.0000000E+00  -1.0000000E+00  -1.0000000E+00
	2212	-1	0	0	0	0	0.0000000000E+00	0.0000000000E+00	6.5000000000E+03	6.5000000000E+03	9.3827000000E-01	0.000E+00	0.0
	2212	-1	0	0	0	0	0.0000000000E+00	0.0000000000E+00	-6.5000000000E+03	6.5000000000E+03	9.3827000000E-01	0.000E+00	0.0
	2212	1	0	0	0	0	0.0000000000E+00	0.0000000000E+00	6.2799150406E+03	6.2799150406E+03	9.3827000000E-01	0.000E+00	0.0
	2212	1	0	0	0	0	0.0000000000E+00	0.0000000000E+00	-5.1863443060E+03	5.1863443060E+03	9.3827000000E-01	0.000E+00	0.0
	51	2	1	2	0	0	2.1442263552E+01	1.2133376230E+02	-9.4137934966E+02	1.4345174007E+03	1.0753899016E+03	0.000E+00	0.0
	1000022	2	5	5	0	0	-2.1442263552E+01	-1.2133376230E+02	-1.0450963933E+03	1.3515288125E+03	8.4806957685E+02	0.000E+00	0.0
	14	1	6	6	0	0	-6.5960233567E+01	6.5476661988E+01	-8.7395359198E+02	9.3704739827E+02	3.2500000000E+02	0.000E+00	0.0
	-14	1	6	6	0	0	4.4517970016E+01	-1.8681042429E+02	-1.7114280128E+02	4.1448141419E+02	3.2500000000E+02	0.000E+00	0.0
	25	2	5	5	0	0	2.1442263552E+01	1.2133376230E+02	-4.8474341352E+01	1.8221184098E+02	1.2517883480E+02	0.000E+00	0.0
	-5	1	9	9	0	501	5.7599529334E+01	8.7161807967E+01	1.0336311307E+01	1.0506758910E+02	4.1800000000E+00	0.000E+00	0.0
	5	1	9	9	501	0	-3.6157265782E+01	3.4171954335E+01	-5.8810652659E+01	7.7144251879E+01	4.1800000000E+00	0.000E+00	0.0
</event>
<event>
    11  -1  1.0000000E+00  1.0000000E+00  -1.0000000E+00  -1.0000000E+00
	2212	-1	0	0	0	0	0.0000000000E+00	0.0000000000E+00	6.5000000000E+03	6.5000000000E+03	9.3827000000E-01	0.000E+00	0.0
	2212	-1	0	0	0	0	0.0000000000E+00	0.0000000000E+00	-6.5000000000E+03	6.5000000000E+03	9.3827000000E-01	0.000E+00	0.0
	2212	1	0	0	0	0	0.0000000000E+00	0.0000000000E+00	4.8751681880E+03	4.8751681880E+03	9.3827000000E-01	0.000E+00	0.0
	2212	1	0	0	0	0	0.0000000000E+00	0.0000000000E+00	-6.3316863207E+03	6.3316863207E+03	9.3827000000E-01	0.000E+00	0.0
	51	2	1	2	0	0	-9.5455653640E+01	-2.5608460733E+01	1.6224298742E+03	1.9328662534E+03	1.0459090218E+03	0.000E+00	0.0
	1000022	2	5	5	0	0	9.5455653640E+01	2.5608460733E+01	1.0474985858E+03	1.3541303671E+03	8.5243661870E+02	0.000E+00	0.0
	14	1	6	6	0	0	1.5381820515E+01	1.5555517181E+02	8.9332125551E+02	9.6337006255E+02	3.2500000000E+02	0.000E+00	0.0
	-14	1	6	6	0	0	8.0073833124E+01	-1.2994671108E+02	1.5417733030E+02	3.9076030460E+02	3.2500000000E+02	0.000E+00	0.0
	25	2	5	5	0	0	-9.5455653640E+01	-2.5608460733E+01	4.0901954690E+02	4.3901512412E+02	1.2517872977E+02	0.000E+00	0.0
	-5	1	9	9	0	501	-1.2167879617E+02	-2.6157867061E+01	2.6803590147E+02	2.9555148507E+02	4.1800000000E+00	0.000E+00	0.0
	5	1	9	9	501	0	2.6223142534E+01	5.4940632786E-01	1.4098364543E+02	1.4346363906E+02	4.1800000000E+00	0.000E+00	0.0
</event>
<event>
    11  -1  1.0000000E+00  1.0000000E+00  -1.0000000E+00  -1.0000000E+00
	2212	-1	0	0	0	0	0.0000000000E+00	0.0000000000E+00	6.5000000000E+03	6.5000000000E+03	9.3827000000E-01	0.000E+00	0.0
	2212	-1	0	0	0	0	0.0000000000E+00	0.0000000000E+00	-6.5000000000E+03	6.5000000000E+03	9.3827000000E-01	0.000E+00	0.0
	2212	1	0	0	0	0	0.0000000000E+00	0.0000000000E+00	5.6252221386E+03	5.6252221386E+03	9.3827000000E-01	0.000E+00	0.0
	2212	1	0	0	0	0	0.0000000000E+00	0.0000000000E+00	-6.1881810702E+03	6.1881810702E+03	9.3827000000E-01	0.000E+00	0.0
	51	2	1	2	0	0	8.0390594621E+01	3.0545192960E+01	6.9177592002E+02	1.2558020411E+03	1.0445521463E+03	0.000E+00	0.0
	1000022	2	5	5	0	0	-8.0390594621E+01	-3.0545192960E+01	3.3834471739E+02	9.1547151802E+02	8.4629504075E+02	0.000E+00	0.0
	14	1	6	6	0	0	2.4810916624E+01	-2.7698526380E+02	1.4158755252E+02	4.5056459356E+02	3.2500000000E+02	0.000E+00	0.0
	-14	1	6	6	0	0	-1.0520151124E+02	2.4644007084E+02	1.9675716487E+02	4.6490692446E+02	3.2500000000E+02	0.000E+00	0.0
	25	2	5	5	0	0	8.0390594621E+01	3.0545192960E+01	2.2461421416E+02	2.7112527321E+02	1.2514676207E+02	0.000E+00	0.0
	-5	1	9	9	0	501	-3.3522631060E+01	1.1586202299E+01	6.3521515168E+01	7.2872917920E+01	4.1800000000E+00	0.000E+00	0.0
	5	1	9	9	501	0	1.1391322568E+02	1.8958990661E+01	1.6109269899E+02	1.9825235529E+02	4.1800000000E+00	0.000E+00	0.0
</event>
<event>
    11  -1  1.0000000E+00  1.0000000E+00  -1.0000000E+00  -1.0000000E+00
	2212	-1	0	0	0	0	0.0000000000E+00	0.0000000000E+00	6.5000000000E+03	6.5000000000E+03	9.3827000000E-01	0.000E+00	0.0
	2212	-1	0	0	0	0	0.0000000000E+00	0.0000000000E+00	-6.5000000000E+03	6.5000000000E+03	9.3827000000E-01	0.000E+00	0.0
	2212	1	0	0	0	0	0.0000000000E+00	0.0000000000E+00	4.9554539834E+03	4.9554539834E+03	9.3827000000E-01	0.000E+00	0.0
	2212	1	0	0	0	0	0.0000000000E+00	0.0000000000E+00	-6.3152084838E+03	6.3152084838E+03	9.3827000000E-01	0.000E+00	0.0
	51	2	1	2	0	0	1.6368573310E+01	1.0038786813E+02	1.3884413469E+03	1.7549333403E+03	1.0684923963E+03	0.000E+00	0.0
	1000022	2	5	5	0	0	-1.6368573310E+01	-1.0038786813E+02	1.1313154673E+03	1.4496966358E+03	9.0077743930E+02	0.000E+00	0.0
	14	1	6	6	0	0	-1.1217524724E+02	2.3944048519E+02	4.3424830074E+02	6.0341662119E+02	3.2500000000E+02	0.000E+00	0.0
	-14	1	6	6	0	0	9.5806673925E+01	-3.3982835332E+02	6.9706716655E+02	8.4628001464E+02	3.2500000000E+02	0.000E+00	0.0
	25	2	5	5	0	0	1.6368573310E+01	1.0038786813E+02	2.2843903316E+02	2.7964089697E+02	1.2517581687E+02	0.000E+00	0.0
	-5	1	9	9	0	501	-5.3359918969E+01	3.0575997116E+01	7.3798653327E+01	9.6155531223E+01	4.1800000000E+00	0.000E+00	0.0
	5	1	9	9	501	0	6.9728492279E+01	6.9811871018E+01	1.5464037983E+02	1.8348536575E+02	4.1800000000E+00	0.000E+00	0.0
</event>
<event>
    11  -1  1.0000000E+00  1.0000000E+00  -1.0000000E+00  -1.0000000E+00
	2212	-1	0	0	0	0	0.0000000000E+00	0.0000000000E+00	6.5000000000E+03	6.5000000000E+03	9.3827000000E-01	0.000E+00	0.0
	2212	-1	0	0	0	0	0.0000000000E+00	0.0000000000E+00	-6.5000000000E+03	6.5000000000E+03	9.3827000000E-01	0.000E+00	0.0
	2212	1	0	0	0	0	0.0000000000E+00	0.0000000000E+00	5.6821581055E+03	5.6821581055E+03	9.3827000000E-01	0.000E+00	0.0
	2212	1	0	0	0	0	0.0000000000E+00	0.0000000000E+00	-6.1610241148E+03	6.1610241148E+03	9.3827000000E-01	0.000E+00	0.0
	51	2	1	2	0	0	-6.0769634212E+01	-8.3481542560E+01	6.3647935514E+02	1.2347804690E+03	1.0530501986E+03	0.000E+00	0.0
	1000022	2	5	5	0	0	6.0769634212E+01	8.3481542560E+01	2.3082882274E+02	8.6041422276E+02	8.2241630147E+02	0.000E+00	0.0
	14	1	6	6	0	0	2.4150903536E+02	-4.7970934192E+01	8.8973406914E+00	4.0783818772E+02	3.2500000000E+02	0.000E+00	0.0
	-14	1	6	6	0	0	-1.8073940115E+02	1.3145247675E+02	2.2193148205E+02	4.5257603504E+02	3.2500000000E+02	0.000E+00	0.0
	25	2	5	5	0	0	-6.0769634212E+01	-8.3481542560E+01	2.4803718654E+02	2.9640355701E+02	1.2518189290E+02	0.000E+00	0.0
	-5	1	9	9	0	501	-1.6721665109E+00	3.0836725629E+01	3.0427992880E+01	4.3554964574E+01	4.1800000000E+00	0.000E+00	0.0
	5	1	9	9	501	0	-5.9097467701E+01	-1.1431826819E+02	2.1760919366E+02	2.5284859243E+02	4.1800000000E+00	0.000E+00	0.0
</event>
<event>
    11  -1  1.0000000E+00  1.0000000E+00  -1.0000000E+00  -1.0000000E+00
	2212	-1	0	0	0	0	0.0000000000E+00	0.0000000000E+00	6.5000000000E+03	6.5000000000E+03	9.3827000000E-01	0.000E+00	0.0
	2212	-1	0	0	0	0	0.0000000000E+00	0.0000000000E+00	-6.5000000000E+03	6.5000000000E+03	9.3827000000E-01	0.000E+00	0.0
	2212	1	0	0	0	0	0.0000000000E+00	0.0000000000E+00	6.0589419586E+03	6.0589419586E+03	9.3827000000E-01	0.000E+00	0.0
	2212	1	0	0	0	0	0.0000000000E+00	0.0000000000E+00	-5.8748503002E+03	5.8748503002E+03	9.3827000000E-01	0.000E+00	0.0
	51	2	1	2	0	0	-5.4342346950E+01	-3.8938562856E+01	-3.0338621745E+02	1.0951811302E+03	1.0501948432E+03	0.000E+00	0.0
	1000022	2	5	5	0	0	5.4342346950E+01	3.8938562856E+01	-3.4155174171E+01	8.5976483521E+02	8.5648099430E+02	0.000E+00	0.0
	14	1	6	6	0	0	-1.4109572685E+01	-2.2221963755E+01	2.5597574971E+02	4.1453767037E+02	3.2500000000E+02	0.000E+00	0.0
	-14	1	6	6	0	0	6.8451919635E+01	6.1160526612E+01	-2.9013092389E+02	4.4522716484E+02	3.2500000000E+02	0.000E+00	0.0
	25	2	5	5	0	0	-5.4342346950E+01	-3.8938562856E+01	-1.4993648416E+02	2.0644290599E+02	1.2517356671E+02	0.000E+00	0.0
	-5	1	9	9	0	501	-3.3200527372E+01	-3.9927206904E+01	-1.6949674091E+02	1.7732195140E+02	4.1800000000E+00	0.000E+00	0.0
	5	1	9	9	501	0	-2.1141819578E+01	9.8864404779E-01	1.9560256753E+01	2.9120954592E+01	4.1800000000E+00	0.000E+00	0.0
</event>
<event>
    11  -1  1.0000000E+00  1.0000000E+00  -1.0000000E+00  -1.0000000E+00
	2212	-1	0	0	0	0	0.0000000000E+00	0.0000000000E+00	6.5000000000E+03	6.5000000000E+03	9.3827000000E-01	0.000E+00	0.0
	2212	-1	0	0	0	0	0.0000000000E+00	0.0000000000E+00	-6.5000000000E+03	6.5000000000E+03	9.3827000000E-01	0.000E+00	0.0
	2212	1	0	0	0	0	0.0000000000E+00	0.0000000000E+00	5.0464180645E+03	5.0464180645E+03	9.3827000000E-01	0.000E+00	0.0
	2212	1	0	0	0	0	0.0000000000E+00	0.0000000000E+00	-6.3063870554E+03	6.3063870554E+03	9.3827000000E-01	0.000E+00	0.0
	51	2	1	2	0	0	-2.8537176460E+02	-2.8001986065E+02	1.7437279663E+03	2.0799433891E+03	1.0610038242E+03	0.000E+00	0.0
	1000022	2	5	5	0	0	2.8537176460E+02	2.8001986065E+02	3.2015323557E+02	6.1822979877E+02	3.4621066341E+02	0.000E+00	0.0
	14	1	6	6	0	0	0.0000000000E+00	0.0000000000E+00	0.0000000000E+00	0.0000000000E+00	0.0000000000E+00	0.000E+00	0.0
	-14	1	6	6	0	0	0.0000000000E+00	0.0000000000E+00	0.0000000000E+00	0.0000000000E+00	0.0000000000E+00	0.000E+00	0.0
	25	2	5	5	0	0	-2.8537176460E+02	-2.8001986065E+02	9.3981575536E+02	1.0289650813E+03	1.2516915814E+02	0.000E+00	0.0
	-5	1	9	9	0	501	-2.7218961737E+01	-9.0456371364E+01	1.5878216238E+02	1.8480388115E+02	4.1800000000E+00	0.000E+00	0.0
	5	1	9	9	501	0	-2.5815280286E+02	-1.8956348929E+02	7.8103359298E+02	8.4416120016E+02	4.1800000000E+00	0.000E+00	0.0
</event>
<event>
    11  -1  1.0000000E+00  1.0000000E+00  -1.0000000E+00  -1.0000000E+00
	2212	-1	0	0	0	0	0.0000000000E+00	0.0000000000E+00	6.5000000000E+03	6.5000000000E+03	9.3827000000E-01	0.000E+00	0.0
	2212	-1	0	0	0	0	0.0000000000E+00	0.0000000000E+00	-6.5000000000E+03	6.5000000000E+03	9.3827000000E-01	0.000E+00	0.0
	2212	1	0	0	0	0	0.0000000000E+00	0.0000000000E+00	4.8993815407E+03	4.8993815407E+03	9.3827000000E-01	0.000E+00	0.0
	2212	1	0	0	0	0	0.0000000000E+00	0.0000000000E+00	-6.3249908984E+03	6.3249908984E+03	9.3827000000E-01	0.000E+00	0.0
	51	2	1	2	0	0	-9.7965341130E+01	5.4221166669E+01	1.2585167254E+03	1.6482999380E+03	1.0585325665E+03	0.000E+00	0.0
	1000022	2	5	5	0	0	9.7965341130E+01	-5.4221166669E+01	1.3386072369E+03	1.5864746248E+03	8.4409434154E+02	0.000E+00	0.0
	14	1	6	6	0	0	6.4448925612E+01	-2.7795813520E+02	8.8024351247E+02	9.8074870898E+02	3.2500000000E+02	0.000E+00	0.0
	-14	1	6	6	0	0	3.3516415518E+01	2.2373696853E+02	4.5836372446E+02	6.0572591582E+02	3.2500000000E+02	0.000E+00	0.0
	25	2	5	5	0	0	-9.7965341130E+01	5.4221166669E+01	8.7002120725E+01	1.8915293607E+02	1.2518914184E+02	0.000E+00	0.0
	-5	1	9	9	0	501	-9.2982869131E+01	8.0163768806E+01	1.0094169598E+02	1.5899289974E+02	4.1800000000E+00	0.000E+00	0.0
	5	1	9	9	501	0	-4.9824719995E+00	-2.5942602137E+01	-1.3939575256E+01	3.0160036326E+01	4.1800000000E+00	0.000E+00	0.0
</event>
<event>
    11  -1  1.0000000E+00  1.0000000E+00  -1.0000000E+00  -1.0000000E+00
	2212	-1	0	0	0	0	0.0000000000E+00	0.0000000000E+00	6.5000000000E+03	6.5000000000E+03	9.3827000000E-01	0.000E+00	0.0
	2212	-1	0	0	0	0	0.0000000000E+00	0.0000000000E+00	-6.5000000000E+03	6.5000000000E+03	9.3827000000E-01	0.000E+00	0.0
	2212	1	0	0	0	0	0.0000000000E+00	0.0000000000E+00	5.4972024548E+03	5.4972024548E+03	9.3827000000E-01	0.000E+00	0.0
	2212	1	0	0	0	0	0.0000000000E+00	0.0000000000E+00	-6.2257623260E+03	6.2257623260E+03	9.3827000000E-01	0.000E+00	0.0
	51	2	1	2	0	0	-6.8549553559E+01	1.3111092456E+02	7.0896938280E+02	1.2745768580E+03	1.0488181278E+03	0.000E+00	0.0
	1000022	2	5	5	0	0	6.8549553559E+01	-1.3111092456E+02	6.1995543344E+02	1.0547907907E+03	8.4044616531E+02	0.000E+00	0.0
	14	1	6	6	0	0	4.1778176252E+01	-3.1534384204E+01	-1.9867301123E+01	3.2978711778E+02	3.2500000000E+02	0.000E+00	0.0
	-14	1	6	6	0	0	2.6771377307E+01	-9.9576540355E+01	6.3982273456E+02	7.2500367288E+02	3.2500000000E+02	0.000E+00	0.0
	25	2	5	5	0	0	-6.8549553559E+01	1.3111092456E+02	1.0860443777E+02	2.2224442859E+02	1.2533373969E+02	0.000E+00	0.0
	-5	1	9	9	0	501	-2.1338356639E+01	-1.8664424644E+01	-4.0367691429E+00	2.8938799499E+01	4.1800000000E+00	0.000E+00	0.0
	5	1	9	9	501	0	-4.7211196920E+01	1.4977534920E+02	1.1264120691E+02	1.9330562909E+02	4.1800000000E+00	0.000E+00	0.0
</event>
<event>
    11  -1  1.0000000E+00  1.0000000E+00  -1.0000000E+00  -1.0000000E+00
	2212	-1	0	0	0	0	0.0000000000E+00	0.0000000000E+00	6.5000000000E+03	6.5000000000E+03	9.3827000000E-01	0.000E+00	0.0
	2212	-1	0	0	0	0	0.0000000000E+00	0.0000000000E+00	-6.5000000000E+03	6.5000000000E+03	9.3827000000E-01	0.000E+00	0.0
	2212	1	0	0	0	0	0.0000000000E+00	0.0000000000E+00	6.1429991641E+03	6.1429991641E+03	9.3827000000E-01	0.000E+00	0.0
	2212	1	0	0	0	0	0.0000000000E+00	0.0000000000E+00	-5.7296549298E+03	5.7296549298E+03	9.3827000000E-01	0.000E+00	0.0
	51	2	1	2	0	0	-3.1807131470E+01	-1.0536504833E+02	-4.7452570217E+02	1.1564356727E+03	1.0488352283E+03	0.000E+00	0.0
	1000022	2	5	5	0	0	3.1807131470E+01	1.0536504833E+02	-2.8589137014E+02	9.1750900199E+02	8.6485571409E+02	0.000E+00	0.0
	14	1	6	6	0	0	-4.1684692061E+01	2.7745312715E+02	-3.2776235763E+02	5.4015832346E+02	3.2500000000E+02	0.000E+00	0.0
	-14	1	6	6	0	0	7.3491823531E+01	-1.7208807883E+02	4.1870987495E+01	3.7735067854E+02	3.2500000000E+02	0.000E+00	0.0
	25	2	5	5	0	0	-3.1807131470E+01	-1.0536504833E+02	-1.2745286409E+02	2.0983690411E+02	1.2519507474E+02	0.000E+00	0.0
	-5	1	9	9	0	501	-6.3997702645E+01	-5.5420696974E+01	-2.0173323363E+01	8.7129759397E+01	4.1800000000E+00	0.000E+00	0.0
	5	1	9	9	501	0	3.2190571175E+01	-4.9944351353E+01	-1.0727954073E+02	1.2270714471E+02	4.1800000000E+00	0.000E+00	0.0
</event>
<event>
    11  -1  1.0000000E+00  1.0000000E+00  -1.0000000E+00  -1.0000000E+00
	2212	-1	0	0	0	0	0.0000000000E+00	0.0000000000E+00	6.5000000000E+03	6.5000000000E+03	9.3827000000E-01	0.000E+00	0.0
	2212	-1	0	0	0	0	0.0000000000E+00	0.0000000000E+00	-6.5000000000E+03	6.5000000000E+03	9.3827000000E-01	0.000E+00	0.0
	2212	1	0	0	0	0	0.0000000000E+00	0.0000000000E+00	6.2364040902E+03	6.2364040902E+03	9.3827000000E-01	0.000E+00	0.0
	2212	1	0	0	0	0	0.0000000000E+00	0.0000000000E+00	-5.4682972152E+03	5.4682972152E+03	9.3827000000E-01	0.000E+00	0.0
	51	2	1	2	0	0	-6.2576452289E+01	-1.3840158849E+02	-7.7105537532E+02	1.3059126083E+03	1.0429815610E+03	0.000E+00	0.0
	1000022	2	5	5	0	0	6.2576452289E+01	1.3840158849E+02	-6.2834780804E+02	1.0539739850E+03	8.3244782484E+02	0.000E+00	0.0
	14	1	6	6	0	0	-2.4725890197E+01	1.6962096174E+02	-6.1419458367E+02	7.1571127343E+02	3.2500000000E+02	0.000E+00	0.0
	-14	1	6	6	0	0	8.7302342486E+01	-3.1219373245E+01	-1.4153224368E+01	3.3826271156E+02	3.2500000000E+02	0.000E+00	0.0
	25	2	5	5	0	0	-6.2576452289E+01	-1.3840158849E+02	-1.3975906697E+02	2.4132470957E+02	1.2503682085E+02	0.000E+00	0.0
	-5	1	9	9	0	501	9.4509529172E+00	-3.5215592646E+01	1.6845985961E+01	4.0382151001E+01	4.1800000000E+00	0.000E+00	0.0
	5	1	9	9	501	0	-7.2027405207E+01	-1.0318599585E+02	-1.5660505293E+02	2.0094255857E+02	4.1800000000E+00	0.000E+00	0.0
</event>
<event>
    11  -1  1.0000000E+00  1.0000000E+00  -1.0000000E+00  -1.0000000E+00
	2212	-1	0	0	0	0	0.0000000000E+00	0.0000000000E+00	6.5000000000E+03	6.5000000000E+03	9.3827000000E-01	0.000E+00	0.0
	2212	-1	0	0	0	0	0.0000000000E+00	0.0000000000E+00	-6.5000000000E+03	6.5000000000E+03	9.3827000000E-01	0.000E+00	0.0
	2212	1	0	0	0	0	0.0000000000E+00	0.0000000000E+00	5.8845555807E+03	5.8845555807E+03	9.3827000000E-01	0.000E+00	0.0
	2212	1	0	0	0	0	0.0000000000E+00	0.0000000000E+00	-6.0465609339E+03	6.0465609339E+03	9.3827000000E-01	0.000E+00	0.0
	51	2	1	2	0	0	-9.7544416379E+01	-7.4661359932E+01	9.5287041931E+01	1.0679115240E+03	1.0565349833E+03	0.000E+00	0.0
	1000022	2	5	5	0	0	9.7544416379E+01	7.4661359932E+01	2.0133273771E+02	8.8913481757E+02	8.5728444562E+02	0.000E+00	0.0
	14	1	6	6	0	0	-1.5821126966E+02	-1.3518992313E+02	1.7745155331E+02	4.2476013812E+02	3.2500000000E+02	0.000E+00	0.0
	-14	1	6	6	0	0	2.5575568604E+02	2.0985128306E+02	2.3881184403E+01	4.6437467945E+02	3.2500000000E+02	0.000E+00	0.0
	25	2	5	5	0	0	-9.7544416379E+01	-7.4661359932E+01	-3.9327384455E+01	1.7974866781E+02	1.2519468271E+02	0.000E+00	0.0
	-5	1	9	9	0	501	-3.1454403498E+01	-8.9492602232E+01	-5.5505006307E+01	1.0998446926E+02	4.1800000000E+00	0.000E+00	0.0
	5	1	9	9	501	0	-6.6090012881E+01	1.4831242300E+01	1.6177621852E+01	6.9764198551E+01	4.1800000000E+00	0.000E+00	0.0
</event>
<event>
    11  -1  1.0000000E+00  1.0000000E+00  -1.0000000E+00  -1.0000000E+00
	2212	-1	0	0	0	0	0.0000000000E+00	0.0000000000E+00	6.5000000000E+03	6.5000000000E+03	9.3827000000E-01	0.000E+00	0.0
	2212	-1	0	0	0	0	0.0000000000E+00	0.0000000000E+00	-6.5000000000E+03	6.5000000000E+03	9.3827000000E-01	0.000E+00	0.0
	2212	1	0	0	0	0	0.0000000000E+00	0.0000000000E+00	6.0056214905E+03	6.0056214905E+03	9.3827000000E-01	0.000E+00	0.0
	2212	1	0	0	0	0	0.0000000000E+00	0.0000000000E+00	-5.9421735366E+03	5.9421735366E+03	9.3827000000E-01	0.000E+00	0.0
	51	2	1	2	0	0	1.1571065278E+02	-2.9822234763E+01	-1.0447249744E+02	1.0622158377E+03	1.0502902752E+03	0.000E+00	0.0
	1000022	2	5	5	0	0	-1.1571065278E+02	2.9822234763E+01	-1.2142833287E+01	8.7170359347E+02	8.6338947505E+02	0.000E+00	0.0
	14	1	6	6	0	0	1.2245556517E+02	1.3295794962E+02	1.8046081881E+02	4.1335733806E+02	3.2500000000E+02	0.000E+00	0.0
	-14	1	6	6	0	0	-2.3816621794E+02	-1.0313571485E+02	-1.9260365210E+02	4.5834625541E+02	3.2500000000E+02	0.000E+00	0.0
	25	2	5	5	0	0	1.1571065278E+02	-2.9822234763E+01	-5.1305120613E+01	1.8050137947E+02	1.2518071632E+02	0.000E+00	0.0
	-5	1	9	9	0	501	2.5377700860E+01	-2.9057678758E+01	3.7350781937E+01	5.3860279492E+01	4.1800000000E+00	0.000E+00	0.0
	5	1	9	9	501	0	9.0332951916E+01	-7.6455600547E-01	-8.8655902550E+01	1.2664109998E+02	4.1800000000E+00	0.000E+00	0.0
</event>
<event>
    11  -1  1.0000000E+00  1.0000000E+00  -1.0000000E+00  -1.0000000E+00
	2212	-1	0	0	0	0	0.0000000000E+00	0.0000000000E+00	6.5000000000E+03	6.5000000000E+03	9.3827000000E-01	0.000E+00	0.0
	2212	-1	0	0	0	0	0.0000000000E+00	0.0000000000E+00	-6.5000000000E+03	6.5000000000E+03	9.3827000000E-01	0.000E+00	0.0
	2212	1	0	0	0	0	0.0000000000E+00	0.0000000000E+00	4.8526854145E+03	4.8526854145E+03	9.3827000000E-01	0.000E+00	0.0
	2212	1	0	0	0	0	0.0000000000E+00	0.0000000000E+00	-6.3298156334E+03	6.3298156334E+03	9.3827000000E-01	0.000E+00	0.0
	51	2	1	2	0	0	-5.7652666298E+01	1.3853213654E+02	1.5252891108E+03	1.8629038118E+03	1.0589564475E+03	0.000E+00	0.0
	1000022	2	5	5	0	0	5.7652666298E+01	-1.3853213654E+02	1.1700654039E+03	1.4535295964E+03	8.4922332488E+02	0.000E+00	0.0
	14	1	6	6	0	0	1.3364747342E+02	-9.7104810697E+01	1.0237951753E+03	1.0867716193E+03	3.2500000000E+02	0.000E+00	0.0
	-14	1	6	6	0	0	-7.5994807121E+01	-4.1427325840E+01	1.4627022852E+02	3.6675797713E+02	3.2500000000E+02	0.000E+00	0.0
	25	2	5	5	0	0	-5.7652666298E+01	1.3853213654E+02	3.0706481502E+02	3.6396935578E+02	1.2517950525E+02	0.000E+00	0.0
	-5	1	9	9	0	501	-1.4048398268E+01	-1.6793397194E+01	7.1812017495E+00	2.3418320644E+01	4.1800000000E+00	0.000E+00	0.0
	5	1	9	9	501	0	-4.3604268030E+01	1.5532553373E+02	2.9988361327E+02	3.4055103513E+02	4.1800000000E+00	0.000E+00	0.0
</event>
<event>
    11  -1  1.0000000E+00  1.0000000E+00  -1.0000000E+00  -1.0000000E+00
	2212	-1	0	0	0	0	0.0000000000E+00	0.0000000000E+00	6.5000000000E+03	6.5000000000E+03	9.3827000000E-01	0.000E+00	0.0
	2212	-1	0	0	0	0	0.0000000000E+00	0.0000000000E+00	-6.5000000000E+03	6.5000000000E+03	9.3827000000E-01	0.000E+00	0.0
	2212	1	0	0	0	0	0.0000000000E+00	0.0000000000E+00	5.3130600772E+03	5.3130600772E+03	9.3827000000E-01	0.000E+00	0.0
	2212	1	0	0	0	0	0.0000000000E+00	0.0000000000E+00	-6.2592536894E+03	6.2592536894E+03	9.3827000000E-01	0.000E+00	0.0
	51	2	1	2	0	0	9.2143400099E+01	-1.0955107480E+02	8.9070246405E+02	1.3988739590E+03	1.0691144136E+03	0.000E+00	0.0
	1000022	2	5	5	0	0	-9.2143400099E+01	1.0955107480E+02	8.3739075569E+02	1.2085996787E+03	8.5964996457E+02	0.000E+00	0.0
	14	1	6	6	0	0	2.1681094105E+02	6.1340232438E+01	5.3624516124E+02	6.6629834250E+02	3.2500000000E+02	0.000E+00	0.0
	-14	1	6	6	0	0	-3.0895434114E+02	4.8210842360E+01	3.0114559446E+02	5.4230133624E+02	3.2500000000E+02	0.000E+00	0.0
	25	2	5	5	0	0	9.2143400099E+01	-1.0955107480E+02	1.0880285649E+02	2.1908655469E+02	1.2517592698E+02	0.000E+00	0.0
	-5	1	9	9	0	501	9.8188411772E+01	-5.9348289445E+01	1.2110926808E+02	1.6687753258E+02	4.1800000000E+00	0.000E+00	0.0
	5	1	9	9	501	0	-6.0450116730E+00	-5.0202785353E+01	-1.2306411590E+01	5.2209022109E+01	4.1800000000E+00	0.000E+00	0.0
</event>
<event>
    11  -1  1.0000000E+00  1.0000000E+00  -1.0000000E+00  -1.0000000E+00
	2212	-1	0	0	0	0	0.0000000000E+00	0.0000000000E+00	6.5000000000E+03	6.5000000000E+03	9.3827000000E-01	0.000E+00	0.0
	2212	-1	0	0	0	0	0.0000000000E+00	0.0000000000E+00	-6.5000000000E+03	6.5000000000E+03	9.3827000000E-01	0.000E+00	0.0
	2212	1	0	0	0	0	0.0000000000E+00	0.0000000000E+00	6.1313225643E+03	6.1313225643E+03	9.3827000000E-01	0.000E+00	0.0
	2212	1	0	0	0	0	0.0000000000E+00	0.0000000000E+00	-5.7508316067E+03	5.7508316067E+03	9.3827000000E-01	0.000E+00	0.0
	51	2	1	2	0	0	2.8208634805E+01	8.0041921282E+01	-5.0977160151E+02	1.1712708699E+03	1.0510974877E+03	0.000E+00	0.0
	1000022	2	5	5	0	0	-2.8208634805E+01	-8.0041921282E+01	-1.8537193907E+02	8.7099397775E+02	8.4679709331E+02	0.000E+00	0.0
	14	1	6	6	0	0	1.4737482812E+02	1.0278643369E+02	-2.5839027650E+02	4.5241013020E+02	3.2500000000E+02	0.000E+00	0.0
	-14	1	6	6	0	0	-1.7558346293E+02	-1.8282835497E+02	7.3018337431E+01	4.1858384756E+02	3.2500000000E+02	0.000E+00	0.0
	25	2	5	5	0	0	2.8208634805E+01	8.0041921282E+01	-1.9511901846E+02	2.4685185124E+02	1.2514778807E+02	0.000E+00	0.0
	-5	1	9	9	0	501	4.0200068062E+01	1.1077708645E+02	-1.4998230205E+02	1.9078724193E+02	4.1800000000E+00	0.000E+00	0.0
	5	1	9	9	501	0	-1.1991433257E+01	-3.0735165168E+01	-4.5136716409E+01	5.6064609315E+01	4.1800000000E+00	0.000E+00	0.0
</event>
<event>
    11  -1  1.0000000E+00  1.0000000E+00  -1.0000000E+00  -1.0000000E+00
	2212	-1	0	0	0	0	0.0000000000E+00	0.0000000000E+00	6.5000000000E+03	6.5000000000E+03	9.3827000000E-01	0.000E+00	0.0
	2212	-1	0	0	0	0	0.0000000000E+00	0.0000000000E+00	-6.5000000000E+03	6.5000000000E+03	9.3827000000E-01	0.000E+00	0.0
	2212	1	0	0	0	0	0.0000000000E+00	0.0000000000E+00	6.2940764315E+03	6.2940764315E+03	9.3827000000E-01	0.000E+00	0.0
	2212	1	0	0	0	0	0.0000000000E+00	0.0000000000E+00	-5.1317754040E+03	5.1317754040E+03	9.3827000000E-01	0.000E+00	0.0
	51	2	1	2	0	0	-7.3860579955E+00	-7.2586035878E+01	-9.7262981013E+02	1.4416417029E+03	1.0616019807E+03	0.000E+00	0.0
	1000022	2	5	5	0	0	7.3860579955E+00	7.2586035878E+01	-1.1465197120E+03	1.4284025041E+03	8.4882446788E+02	0.000E+00	0.0
	14	1	6	6	0	0	5.5656216108E+01	2.3235706173E+02	-9.0392130800E+02	9.8984147700E+02	3.2500000000E+02	0.000E+00	0.0
	-14	1	6	6	0	0	-4.8270158113E+01	-1.5977102585E+02	-2.4259840395E+02	4.3856102707E+02	3.2500000000E+02	0.000E+00	0.0
	25	2	5	5	0	0	-7.3860579955E+00	-7.2586035878E+01	-1.5781315495E+01	1.4574566047E+02	1.2517771835E+02	0.000E+00	0.0
	-5	1	9	9	0	501	4.7531532868E+01	-1.3284392242E+00	-2.7238591802E+01	5.4958390177E+01	4.1800000000E+00	0.000E+00	0.0
	5	1	9	9	501	0	-5.4917590863E+01	-7.1257596654E+01	1.1457276307E+01	9.0787270295E+01	4.1800000000E+00	0.000E+00	0.0
</event>
<event>
    11  -1  1.0000000E+00  1.0000000E+00  -1.0000000E+00  -1.0000000E+00
	2212	-1	0	0	0	0	0.0000000000E+00	0.0000000000E+00	6.5000000000E+03	6.5000000000E+03	9.3827000000E-01	0.000E+00	0.0
	2212	-1	0	0	0	0	0.0000000000E+00	0.0000000000E+00	-6.5000000000E+03	6.5000000000E+03	9.3827000000E-01	0.000E+00	0.0
	2212	1	0	0	0	0	0.0000000000E+00	0.0000000000E+00	5.2187093693E+03	5.2187093693E+03	9.3827000000E-01	0.000E+00	0.0
	2212	1	0	0	0	0	0.0000000000E+00	0.0000000000E+00	-6.2846531261E+03	6.2846531261E+03	9.3827000000E-01	0.000E+00	0.0
	51	2	1	2	0	0	-3.2193409171E+01	-5.5939417945E+01	8.9058891216E+02	1.3787682808E+03	1.0505654323E+03	0.000E+00	0.0
	1000022	2	5	5	0	0	3.2193409171E+01	5.5939417945E+01	1.0568163485E+03	1.3554845643E+03	8.4635215810E+02	0.000E+00	0.0
	14	1	6	6	0	0	-4.9729311376E+01	2.5685732822E+02	7.5161236054E+02	8.5964808613E+02	3.2500000000E+02	0.000E+00	0.0
	-14	1	6	6	0	0	8.1922720546E+01	-2.0091791028E+02	3.0520398795E+02	4.9583647816E+02	3.2500000000E+02	0.000E+00	0.0
	25	2	5	5	0	0	-3.2193409171E+01	-5.5939417945E+01	9.1274083458E+00	1.4115294035E+02	1.2520067457E+02	0.000E+00	0.0
	-5	1	9	9	0	501	-1.8120962527E+01	-3.5459905952E+01	-5.7415832148E+01	6.9998745662E+01	4.1800000000E+00	0.000E+00	0.0
	5	1	9	9	501	0	-1.4072446644E+01	-2.0479511993E+01	6.6543240494E+01	7.1154194686E+01	4.1800000000E+00	0.000E+00	0.0
</event>
<event>
    11  -1  1.0000000E+00  1.0000000E+00  -1.0000000E+00  -1.0000000E+00
	2212	-1	0	0	0	0	0.0000000000E+00	0.0000000000E+00	6.5000000000E+03	6.5000000000E+03	9.3827000000E-01	0.000E+00	0.0
	2212	-1	0	0	0	0	0.0000000000E+00	0.0000000000E+00	-6.5000000000E+03	6.5000000000E+03	9.3827000000E-01	0.000E+00	0.0
	2212	1	0	0	0	0	0.0000000000E+00	0.0000000000E+00	6.0635016027E+03	6.0635016027E+03	9.3827000000E-01	0.000E+00	0.0
	2212	1	0	0	0	0	0.0000000000E+00	0.0000000000E+00	-5.8502301394E+03	5.8502301394E+03	9.3827000000E-01	0.000E+00	0.0
	51	2	1	2	0	0	-1.4631850090E+02	-2.5100102315E-01	-2.7123513085E+02	1.1088154373E+03	1.0651262888E+03	0.000E+00	0.0
	1000022	2	5	5	0	0	1.4631850090E+02	2.5100102315E-01	-1.1751386593E+02	8.7122300282E+02	8.5077073601E+02	0.000E+00	0.0
	14	1	6	6	0	0	3.4807004777E+02	3.4488036587E+01	-9.2612596987E+01	4.8635817660E+02	3.2500000000E+02	0.000E+00	0.0
	-14	1	6	6	0	0	-2.0175154687E+02	-3.4237035564E+01	-2.4901268942E+01	3.8486482622E+02	3.2500000000E+02	0.000E+00	0.0
	25	2	5	5	0	0	-1.4631850090E+02	-2.5100102315E-01	-9.5757597361E+01	2.1504525511E+02	1.2516300406E+02	0.000E+00	0.0
	-5	1	9	9	0	501	-4.4715576181E+01	-1.3686731245E+01	2.7719413784E+01	5.4521992498E+01	4.1800000000E+00	0.000E+00	0.0
	5	1	9	9	501	0	-1.0160292472E+02	1.3435730222E+01	-1.2347701115E+02	1.6052326261E+02	4.1800000000E+00	0.000E+00	0.0
</event>
<event>
    11  -1  1.0000000E+00  1.0000000E+00  -1.0000000E+00  -1.0000000E+00
	2212	-1	0	0	0	0	0.0000000000E+00	0.0000000000E+00	6.5000000000E+03	6.5000000000E+03	9.3827000000E-01	0.000E+00	0.0
	2212	-1	0	0	0	0	0.0000000000E+00	0.0000000000E+00	-6.5000000000E+03	6.5000000000E+03	9.3827000000E-01	0.000E+00	0.0
	2212	1	0	0	0	0	0.0000000000E+00	0.0000000000E+00	5.8909033600E+03	5.8909033600E+03	9.3827000000E-01	0.000E+00	0.0
	2212	1	0	0	0	0	0.0000000000E+00	0.0000000000E+00	-6.0484162199E+03	6.0484162199E+03	9.3827000000E-01	0.000E+00	0.0
	51	2	1	2	0	0	1.3814508342E+02	-2.5925268850E+01	1.4094497402E+02	1.0676396030E+03	1.0489197550E+03	0.000E+00	0.0
	1000022	2	5	5	0	0	-1.3814508342E+02	2.5925268850E+01	1.4711854448E+02	8.7215968703E+02	8.4809343230E+02	0.000E+00	0.0
	14	1	6	6	0	0	-1.3023814553E+02	-1.1705084251E+02	-1.6027004618E+02	4.0246038561E+02	3.2500000000E+02	0.000E+00	0.0
	-14	1	6	6	0	0	-7.9069378885E+00	1.4297611136E+02	3.0738859066E+02	4.6969930142E+02	3.2500000000E+02	0.000E+00	0.0
	25	2	5	5	0	0	1.3814508342E+02	-2.5925268850E+01	1.0394315427E+01	1.8852073304E+02	1.2520320026E+02	0.000E+00	0.0
	-5	1	9	9	0	501	3.4153656934E+00	3.7042776913E+01	-8.9569998111E+00	3.8490677961E+01	4.1800000000E+00	0.000E+00	0.0
	5	1	9	9	501	0	1.3472971773E+02	-6.2968045763E+01	1.9351315238E+01	1.5003005508E+02	4.1800000000E+00	0.000E+00	0.0
</event>
<event>
    11  -1  1.0000000E+00  1.0000000E+00  -1.0000000E+00  -1.0000000E+00
	2212	-1	0	0	0	0	0.0000000000E+00	0.0000000000E+00	6.5000000000E+03	6.5000000000E+03	9.3827000000E-01	0.000E+00	0.0
	2212	-1	0	0	0	0	0.0000000000E+00	0.0000000000E+00	-6.5000000000E+03	6.5000000000E+03	9.3827000000E-01	0.000E+00	0.0
	2212	1	0	0	0	0	0.0000000000E+00	0.0000000000E+00	5.6091636752E+03	5.6091636752E+03	9.3827000000E-01	0.000E+00	0.0
	2212	1	0	0	0	0	0.0000000000E+00	0.0000000000E+00	-6.1939604079E+03	6.1939604079E+03	9.3827000000E-01	0.000E+00	0.0
	51	2	1	2	0	0	-6.9847056857E+01	1.1192433473E+02	6.3149326908E+02	1.2274828548E+03	1.0442819264E+03	0.000E+00	0.0
	1000022	2	5	5	0	0	6.9847056857E+01	-1.1192433473E+02	4.3916370253E+02	9.6378031891E+02	8.4770400344E+02	0.000E+00	0.0
	14	1	6	6	0	0	2.7177109038E+02	6.2378142350E+01	2.9205719256E+02	5.1833672640E+02	3.2500000000E+02	0.000E+00	0.0
	-14	1	6	6	0	0	-2.0192403353E+02	-1.7430247708E+02	1.4710650997E+02	4.4544359251E+02	3.2500000000E+02	0.000E+00	0.0
	25	2	5	5	0	0	-6.9847056857E+01	1.1192433473E+02	1.4563303022E+02	2.3309559798E+02	1.2537507826E+02	0.000E+00	0.0
	-5	1	9	9	0	501	1.6846521847E+01	6.6383776314E+01	1.5786943176E+01	7.0408174461E+01	4.1800000000E+00	0.000E+00	0.0
	5	1	9	9	501	0	-8.6693578704E+01	4.5540558413E+01	1.2984608705E+02	1.6268742352E+02	4.1800000000E+00	0.000E+00	0.0
</event>
<event>
    11  -1  1.0000000E+00  1.0000000E+00  -1.0000000E+00  -1.0000000E+00
	2212	-1	0	0	0	0	0.0000000000E+00	0.0000000000E+00	6.5000000000E+03	6.5000000000E+03	9.3827000000E-01	0.000E+00	0.0
	2212	-1	0	0	0	0	0.0000000000E+00	0.0000000000E+00	-6.5000000000E+03	6.5000000000E+03	9.3827000000E-01	0.000E+00	0.0
	2212	1	0	0	0	0	0.0000000000E+00	0.0000000000E+00	5.7755202318E+03	5.7755202318E+03	9.3827000000E-01	0.000E+00	0.0
	2212	1	0	0	0	0	0.0000000000E+00	0.0000000000E+00	-6.1113836939E+03	6.1113836939E+03	9.3827000000E-01	0.000E+00	0.0
	51	2	1	2	0	0	5.0704609827E+01	-3.1785141497E+00	4.8996763658E+02	1.1699692093E+03	1.0612156263E+03	0.000E+00	0.0
	1000022	2	5	5	0	0	-5.0704609827E+01	3.1785141497E+00	1.2279917705E+02	8.6082130981E+02	8.5050139867E+02	0.000E+00	0.0
	14	1	6	6	0	0	-3.2413985287E+01	-1.2339830755E+02	-1.8513947562E+02	3.9519543795E+02	3.2500000000E+02	0.000E+00	0.0
	-14	1	6	6	0	0	-1.8290624541E+01	1.2657682170E+02	3.0793865267E+02	4.6562587186E+02	3.2500000000E+02	0.000E+00	0.0
	25	2	5	5	0	0	5.0704609827E+01	-3.1785141497E+00	2.1306428513E+02	2.5227476449E+02	1.2516032434E+02	0.000E+00	0.0
	-5	1	9	9	0	501	2.8224571918E+01	5.3657592506E+01	1.6025900658E+02	1.7139482281E+02	4.1800000000E+00	0.000E+00	0.0
	5	1	9	9	501	0	2.2480037909E+01	-5.6836106656E+01	5.2805278548E+01	8.0879941683E+01	4.1800000000E+00	0.000E+00	0.0
</event>
<event>
    11  -1  1.0000000E+00  1.0000000E+00  -1.0000000E+00  -1.0000000E+00
	2212	-1	0	0	0	0	0.0000000000E+00	0.0000000000E+00	6.5000000000E+03	6.5000000000E+03	9.3827000000E-01	0.000E+00	0.0
	2212	-1	0	0	0	0	0.0000000000E+00	0.0000000000E+00	-6.5000000000E+03	6.5000000000E+03	9.3827000000E-01	0.000E+00	0.0
	2212	1	0	0	0	0	0.0000000000E+00	0.0000000000E+00	5.4040016001E+03	5.4040016001E+03	9.3827000000E-01	0.000E+00	0.0
	2212	1	0	0	0	0	0.0000000000E+00	0.0000000000E+00	-6.2483349170E+03	6.2483349170E+03	9.3827000000E-01	0.000E+00	0.0
	51	2	1	2	0	0	1.0999585177E+01	1.1195712985E+02	9.5105286313E+02	1.4214271179E+03	1.0503799852E+03	0.000E+00	0.0
	1000022	2	5	5	0	0	-1.0999585177E+01	-1.1195712985E+02	5.9569896416E+02	1.0473857468E+03	8.5411021354E+02	0.000E+00	0.0
	14	1	6	6	0	0	5.8997303572E+01	-7.7925494904E+01	-2.7235335376E+01	3.4047001054E+02	3.2500000000E+02	0.000E+00	0.0
	-14	1	6	6	0	0	-6.9996888750E+01	-3.4031634944E+01	6.2293429954E+02	7.0691573624E+02	3.2500000000E+02	0.000E+00	0.0
	25	2	5	5	0	0	1.0999585177E+01	1.1195712985E+02	2.4863435274E+02	3.0027773619E+02	1.2526886162E+02	0.000E+00	0.0
	-5	1	9	9	0	501	-1.9955290729E+01	1.2637971381E+02	1.5811210607E+02	2.0343784352E+02	4.1800000000E+00	0.000E+00	0.0
	5	1	9	9	501	0	3.0954875907E+01	-1.4422583961E+01	9.0522246669E+01	9.6839892670E+01	4.1800000000E+00	0.000E+00	0.0
</event>
<event>
    11  -1  1.0000000E+00  1.0000000E+00  -1.0000000E+00  -1.0000000E+00
	2212	-1	0	0	0	0	0.0000000000E+00	0.0000000000E+00	6.5000000000E+03	6.5000000000E+03	9.3827000000E-01	0.000E+00	0.0
	2212	-1	0	0	0	0	0.0000000000E+00	0.0000000000E+00	-6.5000000000E+03	6.5000000000E+03	9.3827000000E-01	0.000E+00	0.0
	2212	1	0	0	0	0	0.0000000000E+00	0.0000000000E+00	5.3300174767E+03	5.3300174767E+03	9.3827000000E-01	0.000E+00	0.0
	2212	1	0	0	0	0	0.0000000000E+00	0.0000000000E+00	-6.2639276445E+03	6.2639276445E+03	9.3827000000E-01	0.000E+00	0.0
	51	2	1	2	0	0	6.4861308687E+01	8.3361900842E+01	1.0624515082E+03	1.4982528237E+03	1.0510956763E+03	0.000E+00	0.0
	1000022	2	5	5	0	0	-6.4861308687E+01	-8.3361900842E+01	6.4740974878E+02	1.0760405563E+03	8.5297579101E+02	0.000E+00	0.0
	14	1	6	6	0	0	-2.4322561839E+02	-2.0707181277E+02	2.5493151293E+02	5.2216138632E+02	3.2500000000E+02	0.000E+00	0.0
	-14	1	6	6	0	0	1.7836430970E+02	1.2370991193E+02	3.9247823585E+02	5.5387916995E+02	3.2500000000E+02	0.000E+00	0.0
	25	2	5	5	0	0	6.4861308687E+01	8.3361900842E+01	2.8650041900E+02	3.3001432251E+02	1.2518293454E+02	0.000E+00	0.0
	-5	1	9	9	0	501	8.3823424074E+01	1.0477095972E+02	2.2381526864E+02	2.6098671863E+02	4.1800000000E+00	0.000E+00	0.0
	5	1	9	9	501	0	-1.8962115387E+01	-2.1409058883E+01	6.2685150358E+01	6.9027603881E+01	4.1800000000E+00	0.000E+00	0.0
</event>
<event>
    11  -1  1.0000000E+00  1.0000000E+00  -1.0000000E+00  -1.0000000E+00
	2212	-1	0	0	0	0	0.0000000000E+00	0.0000000000E+00	6.5000000000E+03	6.5000000000E+03	9.3827000000E-01	0.000E+00	0.0
	2212	-1	0	0	0	0	0.0000000000E+00	0.0000000000E+00	-6.5000000000E+03	6.5000000000E+03	9.3827000000E-01	0.000E+00	0.0
	2212	1	0	0	0	0	0.0000000000E+00	0.0000000000E+00	5.9650492492E+03	5.9650492492E+03	9.3827000000E-01	0.000E+00	0.0
	2212	1	0	0	0	0	0.0000000000E+00	0.0000000000E+00	-5.9883438440E+03	5.9883438440E+03	9.3827000000E-01	0.000E+00	0.0
	51	2	1	2	0	0	-7.7246850473E+01	-4.5427518026E+01	6.2635089612E+01	1.0520443284E+03	1.0463476378E+03	0.000E+00	0.0
	1000022	2	5	5	0	0	7.7246850473E+01	4.5427518026E+01	-1.9481380993E+01	8.8681615868E+02	8.8206158504E+02	0.000E+00	0.0
	14	1	6	6	0	0	2.0206955034E+02	-1.4647566846E+02	1.7341458339E+02	4.4495487676E+02	3.2500000000E+02	0.000E+00	0.0
	-14	1	6	6	0	0	-1.2482269986E+02	1.9190318648E+02	-1.9289596438E+02	4.4186128192E+02	3.2500000000E+02	0.000E+00	0.0
	25	2	5	5	0	0	-7.7246850473E+01	-4.5427518026E+01	4.2775975831E+01	1.5979074806E+02	1.2519011046E+02	0.000E+00	0.0
	-5	1	9	9	0	501	1.8279834731E+01	-2.2471295321E+01	-2.6517358031E+01	3.9493722895E+01	4.1800000000E+00	0.000E+00	0.0
	5	1	9	9	501	0	-9.5526685204E+01	-2.2956222705E+01	6.9293333861E+01	1.2029702517E+02	4.1800000000E+00	0.000E+00	0.0
</event>
<event>
    11  -1  1.0000000E+00  1.0000000E+00  -1.0000000E+00  -1.0000000E+00
	2212	-1	0	0	0	0	0.0000000000E+00	0.0000000000E+00	6.5000000000E+03	6.5000000000E+03	9.3827000000E-01	0.000E+00	0.0
	2212	-1	0	0	0	0	0.0000000000E+00	0.0000000000E+00	-6.5000000000E+03	6.5000000000E+03	9.3827000000E-01	0.000E+00	0.0
	2212	1	0	0	0	0	0.0000000000E+00	0.0000000000E+00	6.2009066902E+03	6.2009066902E+03	9.3827000000E-01	0.000E+00	0.0
	2212	1	0	0	0	0	0.0000000000E+00	0.0000000000E+00	-5.5868501053E+03	5.5868501053E+03	9.3827000000E-01	0.000E+00	0.0
	51	2	1	2	0	0	8.9705475832E+01	-6.5841918701E+01	-5.3589299742E+02	1.1798439019E+03	1.0452119869E+03	0.000E+00	0.0
	1000022	2	5	5	0	0	-8.9705475832E+01	6.5841918701E+01	-5.9010229020E+02	1.0430459251E+03	8.5284339614E+02	0.000E+00	0.0
	14	1	6	6	0	0	-8.6138648948E+01	3.0466858534E+02	-2.6872729028E+02	5.2733496971E+02	3.2500000000E+02	0.000E+00	0.0
	-14	1	6	6	0	0	-3.5668268838E+00	-2.3882666664E+02	-3.2137499992E+02	5.1571095540E+02	3.2500000000E+02	0.000E+00	0.0
	25	2	5	5	0	0	8.9705475832E+01	-6.5841918701E+01	-2.3954294688E+01	1.6919727943E+02	1.2518658267E+02	0.000E+00	0.0
	-5	1	9	9	0	501	1.7148256418E+01	-8.7694388076E+01	-2.6396197892E+01	9.3266285770E+01	4.1800000000E+00	0.000E+00	0.0
	5	1	9	9	501	0	7.2557219414E+01	2.1852469374E+01	2.4419032041E+00	7.5930993659E+01	4.1800000000E+00	0.000E+00	0.0
</event>
<event>
    11  -1  1.0000000E+00  1.0000000E+00  -1.0000000E+00  -1.0000000E+00
	2212	-1	0	0	0	0	0.0000000000E+00	0.0000000000E+00	6.5000000000E+03	6.5000000000E+03	9.3827000000E-01	0.000E+00	0.0
	2212	-1	0	0	0	0	0.0000000000E+00	0.0000000000E+00	-6.5000000000E+03	6.5000000000E+03	9.3827000000E-01	0.000E+00	0.0
	2212	1	0	0	0	0	0.0000000000E+00	0.0000000000E+00	5.7312020989E+03	5.7312020989E+03	9.3827000000E-01	0.000E+00	0.0
	2212	1	0	0	0	0	0.0000000000E+00	0.0000000000E+00	-6.1414588186E+03	6.1414588186E+03	9.3827000000E-01	0.000E+00	0.0
	51	2	1	2	0	0	-6.6232583061E+01	1.1406423430E+02	3.4747063438E+02	1.1138743543E+03	1.0500394425E+03	0.000E+00	0.0
	1000022	2	5	5	0	0	6.6232583061E+01	-1.1406423430E+02	4.0190295589E+02	9.4531954833E+02	8.4540266021E+02	0.000E+00	0.0
	14	1	6	6	0	0	1.3592596118E+02	1.3910442253E+02	3.6478460720E+02	5.2585047014E+02	3.2500000000E+02	0.000E+00	0.0
	-14	1	6	6	0	0	-6.9693378120E+01	-2.5316865682E+02	3.7118348686E+01	4.1946907819E+02	3.2500000000E+02	0.000E+00	0.0
	25	2	5	5	0	0	-6.6232583061E+01	1.1406423430E+02	8.3537637925E+00	1.8201953414E+02	1.2515558650E+02	0.000E+00	0.0
	-5	1	9	9	0	501	-4.4527326997E+01	1.0437794177E+02	5.7488057675E+01	1.2727838290E+02	4.1800000000E+00	0.000E+00	0.0
	5	1	9	9	501	0	-2.1705256063E+01	9.6862925279E+00	-4.9134293882E+01	5.4741151240E+01	4.1800000000E+00	0.000E+00	0.0
</event>
<event>
    11  -1  1.0000000E+00  1.0000000E+00  -1.0000000E+00  -1.0000000E+00
	2212	-1	0	0	0	0	0.0000000000E+00	0.0000000000E+00	6.5000000000E+03	6.5000000000E+03	9.3827000000E-01	0.000E+00	0.0
	2212	-1	0	0	0	0	0.0000000000E+00	0.0000000000E+00	-6.5000000000E+03	6.5000000000E+03	9.3827000000E-01	0.000E+00	0.0
	2212	1	0	0	0	0	0.0000000000E+00	0.0000000000E+00	5.9240397037E+03	5.9240397037E+03	9.3827000000E-01	0.000E+00	0.0
	2212	1	0	0	0	0	0.0000000000E+00	0.0000000000E+00	-6.0232227835E+03	6.0232227835E+03	9.3827000000E-01	0.000E+00	0.0
	51	2	1	2	0	0	1.2634711611E+02	9.0534162852E+00	1.6206568062E+02	1.0680495450E+03	1.0480548591E+03	0.000E+00	0.0
	1000022	2	5	5	0	0	-1.2634711611E+02	-9.0534162852E+00	1.9356567789E+01	8.5758138900E+02	8.4795377465E+02	0.000E+00	0.0
	14	1	6	6	0	0	-3.2012791588E+02	-1.0234484310E+02	1.7674952152E+01	4.6786082692E+02	3.2500000000E+02	0.000E+00	0.0
	-14	1	6	6	0	0	1.9378079977E+02	9.3291426817E+01	1.6816156365E+00	3.8972056208E+02	3.2500000000E+02	0.000E+00	0.0
	25	2	5	5	0	0	1.2634711611E+02	9.0534162852E+00	7.9826511998E+01	1.9515612388E+02	1.2517221166E+02	0.000E+00	0.0
	-5	1	9	9	0	501	1.0907293079E+02	5.7727608213E+00	-4.0244217950E+00	1.0937960217E+02	4.1800000000E+00	0.000E+00	0.0
	5	1	9	9	501	0	1.7274185322E+01	3.2806554639E+00	8.3850933793E+01	8.5776521711E+01	4.1800000000E+00	0.000E+00	0.0
</event>
<event>
    11  -1  1.0000000E+00  1.0000000E+00  -1.0000000E+00  -1.0000000E+00
	2212	-1	0	0	0	0	0.0000000000E+00	0.0000000000E+00	6.5000000000E+03	6.5000000000E+03	9.3827000000E-01	0.000E+00	0.0
	2212	-1	0	0	0	0	0.0000000000E+00	0.0000000000E+00	-6.5000000000E+03	6.5000000000E+03	9.3827000000E-01	0.000E+00	0.0
	2212	1	0	0	0	0	0.0000000000E+00	0.0000000000E+00	6.3155318495E+03	6.3155318495E+03	9.3827000000E-01	0.000E+00	0.0
	2212	1	0	0	0	0	0.0000000000E+00	0.0000000000E+00	-5.1212682986E+03	5.1212682986E+03	9.3827000000E-01	0.000E+00	0.0
	51	2	1	2	0	0	-3.5356061470E+01	7.3799259916E+01	-1.1862923680E+03	1.5592672356E+03	1.0086269617E+03	0.000E+00	0.0
	1000022	2	5	5	0	0	3.5356061470E+01	-7.3799259916E+01	-1.0288833864E+03	1.3402287831E+03	8.5493612998E+02	0.000E+00	0.0
	14	1	6	6	0	0	1.2041692395E+02	1.5715766623E+02	-2.3358013978E+02	4.4652373882E+02	3.2500000000E+02	0.000E+00	0.0
	-14	1	6	6	0	0	-8.5060862477E+01	-2.3095692615E+02	-7.9530324663E+02	8.9370504427E+02	3.2500000000E+02	0.000E+00	0.0
	25	2	5	5	0	0	-3.5356061470E+01	7.3799259916E+01	-1.6538016452E+02	2.2297106880E+02	1.2517634305E+02	0.000E+00	0.0
	-5	1	9	9	0	501	-1.9788611895E+01	7.6595008472E+01	-1.8270637514E+02	1.9914184995E+02	4.1800000000E+00	0.000E+00	0.0
	5	1	9	9	501	0	-1.5567449575E+01	-2.7957485562E+00	1.7326210629E+01	2.3829218850E+01	4.1800000000E+00	0.000E+00	0.0
</event>
<event>
    11  -1  1.0000000E+00  1.0000000E+00  -1.0000000E+00  -1.0000000E+00
	2212	-1	0	0	0	0	0.0000000000E+00	0.0000000000E+00	6.5000000000E+03	6.5000000000E+03	9.3827000000E-01	0.000E+00	0.0
	2212	-1	0	0	0	0	0.0000000000E+00	0.0000000000E+00	-6.5000000000E+03	6.5000000000E+03	9.3827000000E-01	0.000E+00	0.0
	2212	1	0	0	0	0	0.0000000000E+00	0.0000000000E+00	6.1746339929E+03	6.1746339929E+03	9.3827000000E-01	0.000E+00	0.0
	2212	1	0	0	0	0	0.0000000000E+00	0.0000000000E+00	-5.6586829187E+03	5.6586829187E+03	9.3827000000E-01	0.000E+00	0.0
	51	2	1	2	0	0	8.1029088048E+01	1.0077909280E+02	-4.6894228376E+02	1.1539380061E+03	1.0463956793E+03	0.000E+00	0.0
	1000022	2	5	5	0	0	-8.1029088048E+01	-1.0077909280E+02	-4.7580643385E+02	9.8235438037E+02	8.4965065026E+02	0.000E+00	0.0
	14	1	6	6	0	0	-1.3655657757E+02	-4.8079094019E+01	5.0212063475E+01	3.5931260690E+02	3.2500000000E+02	0.000E+00	0.0
	-14	1	6	6	0	0	5.5527489522E+01	-5.2699998782E+01	-5.2601849732E+02	6.2304177347E+02	3.2500000000E+02	0.000E+00	0.0
	25	2	5	5	0	0	8.1029088048E+01	1.0077909280E+02	-4.0144640346E+01	1.8432870796E+02	1.2507334559E+02	0.000E+00	0.0
	-5	1	9	9	0	501	8.1939089782E+01	1.2375394154E+02	-1.3812481391E+01	1.4912179426E+02	4.1800000000E+00	0.000E+00	0.0
	5	1	9	9	501	0	-9.1000173424E-01	-2.2974848736E+01	-2.6332158955E+01	3.5206913708E+01	4.1800000000E+00	0.000E+00	0.0
</event>
<event>
    11  -1  1.0000000E+00  1.0000000E+00  -1.0000000E+00  -1.0000000E+00
	2212	-1	0	0	0	0	0.0000000000E+00	0.0000000000E+00	6.5000000000E+03	6.5000000000E+03	9.3827000000E-01	0.000E+00	0.0
	2212	-1	0	0	0	0	0.0000000000E+00	0.0000000000E+00	-6.5000000000E+03	6.5000000000E+03	9.3827000000E-01	0.000E+00	0.0
	2212	1	0	0	0	0	0.0000000000E+00	0.0000000000E+00	5.9427866735E+03	5.9427866735E+03	9.3827000000E-01	0.000E+00	0.0
	2212	1	0	0	0	0	0.0000000000E+00	0.0000000000E+00	-6.0018219403E+03	6.0018219403E+03	9.3827000000E-01	0.000E+00	0.0
	51	2	1	2	0	0	1.3820617482E+02	4.0793433794E+01	5.8116934816E+01	1.0651330642E+03	1.0537389693E+03	0.000E+00	0.0
	1000022	2	5	5	0	0	-1.3820617482E+02	-4.0793433794E+01	4.9809571399E+01	8.6430185286E+02	8.5074769964E+02	0.000E+00	0.0
	14	1	6	6	0	0	-5.4550923992E+01	-1.2322517938E+02	-2.2941704810E+02	4.2002074961E+02	3.2500000000E+02	0.000E+00	0.0
	-14	1	6	6	0	0	-8.3655250823E+01	8.2431745588E+01	2.7922661950E+02	4.4428110325E+02	3.2500000000E+02	0.000E+00	0.0
	25	2	5	5	0	0	1.3820617482E+02	4.0793433794E+01	9.2256953504E+00	1.9108953338E+02	1.2516007876E+02	0.000E+00	0.0
	-5	1	9	9	0	501	6.2804445776E+01	2.9486943397E+01	-5.7094349768E+01	8.9950627655E+01	4.1800000000E+00	0.000E+00	0.0
	5	1	9	9	501	0	7.5401729039E+01	1.1306490397E+01	6.6320045119E+01	1.0113890573E+02	4.1800000000E+00	0.000E+00	0.0
</event>
<event>
    11  -1  1.0000000E+00  1.0000000E+00  -1.0000000E+00  -1.0000000E+00
	2212	-1	0	0	0	0	0.0000000000E+00	0.0000000000E+00	6.5000000000E+03	6.5000000000E+03	9.3827000000E-01	0.000E+00	0.0
	2212	-1	0	0	0	0	0.0000000000E+00	0.0000000000E+00	-6.5000000000E+03	6.5000000000E+03	9.3827000000E-01	0.000E+00	0.0
	2212	1	0	0	0	0	0.0000000000E+00	0.0000000000E+00	5.2656190488E+03	5.2656190488E+03	9.3827000000E-01	0.000E+00	0.0
	2212	1	0	0	0	0	0.0000000000E+00	0.0000000000E+00	-6.2695893584E+03	6.2695893584E+03	9.3827000000E-01	0.000E+00	0.0
	51	2	1	2	0	0	1.3590524967E+02	-2.5129677308E+01	1.1191219145E+03	1.5521577320E+03	1.0666105324E+03	0.000E+00	0.0
	1000022	2	5	5	0	0	-1.3590524967E+02	2.5129677308E+01	7.1023014500E+02	1.1168649387E+03	8.5079885689E+02	0.000E+00	0.0
	14	1	6	6	0	0	-1.2348798858E+02	7.8124110944E+01	2.5840370482E+01	3.5727494284E+02	3.2500000000E+02	0.000E+00	0.0
	-14	1	6	6	0	0	-1.2417261092E+01	-5.2994433636E+01	6.8438977452E+02	7.5958999587E+02	3.2500000000E+02	0.000E+00	0.0
	25	2	5	5	0	0	1.3590524967E+02	-2.5129677308E+01	2.9374016463E+02	3.4792665413E+02	1.2517162125E+02	0.000E+00	0.0
	-5	1	9	9	0	501	8.5373954815E+01	-1.6480314174E+01	5.3356319518E+01	1.0210133275E+02	4.1800000000E+00	0.000E+00	0.0
	5	1	9	9	501	0	5.0531294859E+01	-8.6493631336E+00	2.4038384511E+02	2.4582532138E+02	4.1800000000E+00	0.000E+00	0.0
</event>
<event>
    11  -1  1.0000000E+00  1.0000000E+00  -1.0000000E+00  -1.0000000E+00
	2212	-1	0	0	0	0	0.0000000000E+00	0.0000000000E+00	6.5000000000E+03	6.5000000000E+03	9.3827000000E-01	0.000E+00	0.0
	2212	-1	0	0	0	0	0.0000000000E+00	0.0000000000E+00	-6.5000000000E+03	6.5000000000E+03	9.3827000000E-01	0.000E+00	0.0
	2212	1	0	0	0	0	0.0000000000E+00	0.0000000000E+00	5.6134983122E+03	5.6134983122E+03	9.3827000000E-01	0.000E+00	0.0
	2212	1	0	0	0	0	0.0000000000E+00	0.0000000000E+00	-6.1932689534E+03	6.1932689534E+03	9.3827000000E-01	0.000E+00	0.0
	51	2	1	2	0	0	-9.6332068874E+00	1.1497372543E+02	5.4422501991E+02	1.1820164934E+03	1.0429143599E+03	0.000E+00	0.0
	1000022	2	5	5	0	0	9.6332068874E+00	-1.1497372543E+02	5.2261879522E+02	1.0136672345E+03	8.6085951291E+02	0.000E+00	0.0
	14	1	6	6	0	0	8.8879375539E+01	-2.0814161060E+01	5.7046926782E+02	6.6286722518E+02	3.2500000000E+02	0.000E+00	0.0
	-14	1	6	6	0	0	-7.9246168652E+01	-9.4159564370E+01	-4.7850472600E+01	3.5080000932E+02	3.2500000000E+02	0.000E+00	0.0
	25	2	5	5	0	0	-9.6332068874E+00	1.1497372543E+02	5.7151845953E+01	1.7956549992E+02	1.2516261044E+02	0.000E+00	0.0
	-5	1	9	9	0	501	-2.9899046752E+01	1.2214652798E+02	8.3783393509E+00	1.2610073856E+02	4.1800000000E+00	0.000E+00	0.0
	5	1	9	9	501	0	2.0265839864E+01	-7.1728025493E+00	4.8773506602E+01	5.3464761367E+01	4.1800000000E+00	0.000E+00	0.0
</event>
<event>
    11  -1  1.0000000E+00  1.0000000E+00  -1.0000000E+00  -1.0000000E+00
	2212	-1	0	0	0	0	0.0000000000E+00	0.0000000000E+00	6.5000000000E+03	6.5000000000E+03	9.3827000000E-01	0.000E+00	0.0
	2212	-1	0	0	0	0	0.0000000000E+00	0.0000000000E+00	-6.5000000000E+03	6.5000000000E+03	9.3827000000E-01	0.000E+00	0.0
	2212	1	0	0	0	0	0.0000000000E+00	0.0000000000E+00	6.3291341823E+03	6.3291341823E+03	9.3827000000E-01	0.000E+00	0.0
	2212	1	0	0	0	0	0.0000000000E+00	0.0000000000E+00	-4.8985009997E+03	4.8985009997E+03	9.3827000000E-01	0.000E+00	0.0
	51	2	1	2	0	0	6.3133929915E+01	7.2819954387E+01	-1.6713682506E+03	1.9741646873E+03	1.0462149611E+03	0.000E+00	0.0
	1000022	2	5	5	0	0	-6.3133929915E+01	-7.2819954387E+01	-9.2582236024E+02	1.2434101041E+03	8.2439857194E+02	0.000E+00	0.0
	14	1	6	6	0	0	-1.6057949554E+02	-2.2270392043E+02	-6.6690463979E+02	7.9105600885E+02	3.2500000000E+02	0.000E+00	0.0
	-14	1	6	6	0	0	9.7445565623E+01	1.4988396604E+02	-2.5891772045E+02	4.5235409526E+02	3.2500000000E+02	0.000E+00	0.0
	25	2	5	5	0	0	6.3133929915E+01	7.2819954387E+01	-5.0481082240E+02	5.2895471389E+02	1.2518180409E+02	0.000E+00	0.0
	-5	1	9	9	0	501	-9.7580764112E+00	-1.4789771695E+00	-2.9021086855E+02	2.9040872585E+02	4.1800000000E+00	0.000E+00	0.0
	5	1	9	9	501	0	7.2892006327E+01	7.4298931556E+01	-2.1459995385E+02	2.3854598804E+02	4.1800000000E+00	0.000E+00	0.0
</event>
<event>
    11  -1  1.0000000E+00  1.0000000E+00  -1.0000000E+00  -1.0000000E+00
	2212	-1	0	0	0	0	0.0000000000E+00	0.0000000000E+00	6.5000000000E+03	6.5000000000E+03	9.3827000000E-01	0.000E+00	0.0
	2212	-1	0	0	0	0	0.0000000000E+00	0.0000000000E+00	-6.5000000000E+03	6.5000000000E+03	9.3827000000E-01	0.000E+00	0.0
	2212	1	0	0	0	0	0.0000000000E+00	0.0000000000E+00	6.2352445848E+03	6.2352445848E+03	9.3827000000E-01	0.000E+00	0.0
	2212	1	0	0	0	0	0.0000000000E+00	0.0000000000E+00	-5.4657926092E+03	5.4657926092E+03	9.3827000000E-01	0.000E+00	0.0
	51	2	1	2	0	0	2.7000269647E+01	-1.1580924790E+02	-8.3338207406E+02	1.3430988447E+03	1.0465409828E+03	0.000E+00	0.0
	1000022	2	5	5	0	0	-2.7000269647E+01	1.1580924790E+02	-5.7968825414E+02	1.0423987002E+03	8.5814671338E+02	0.000E+00	0.0
	14	1	6	6	0	0	2.5755650981E+02	1.2860685513E+02	-2.8681830838E+02	5.2035067114E+02	3.2500000000E+02	0.000E+00	0.0
	-14	1	6	6	0	0	-2.8455677946E+02	-1.2797607231E+01	-2.9286994576E+02	5.2204802904E+02	3.2500000000E+02	0.000E+00	0.0
	25	2	5	5	0	0	2.7000269647E+01	-1.1580924790E+02	-1.8976372145E+02	2.5656410586E+02	1.2519614203E+02	0.000E+00	0.0
	-5	1	9	9	0	501	-1.9770782106E+01	-9.5721702054E+00	-1.1784858635E+02	1.1995112326E+02	4.1800000000E+00	0.000E+00	0.0
	5	1	9	9	501	0	4.6771051753E+01	-1.0623707769E+02	-7.1915135099E+01	1.3661298260E+02	4.1800000000E+00	0.000E+00	0.0
</event>
<event>
    11  -1  1.0000000E+00  1.0000000E+00  -1.0000000E+00  -1.0000000E+00
	2212	-1	0	0	0	0	0.0000000000E+00	0.0000000000E+00	6.5000000000E+03	6.5000000000E+03	9.3827000000E-01	0.000E+00	0.0
	2212	-1	0	0	0	0	0.0000000000E+00	0.0000000000E+00	-6.5000000000E+03	6.5000000000E+03	9.3827000000E-01	0.000E+00	0.0
	2212	1	0	0	0	0	0.0000000000E+00	0.0000000000E+00	6.2184985390E+03	6.2184985390E+03	9.3827000000E-01	0.000E+00	0.0
	2212	1	0	0	0	0	0.0000000000E+00	0.0000000000E+00	-5.5042274294E+03	5.5042274294E+03	9.3827000000E-01	0.000E+00	0.0
	51	2	1	2	0	0	9.3534883599E-02	-1.1688314614E+02	-6.0181394163E+02	1.2235552431E+03	1.0588889148E+03	0.000E+00	0.0
	1000022	2	5	5	0	0	-9.3534883599E-02	1.1688314614E+02	-7.0060697016E+02	1.1054601499E+03	8.4707162488E+02	0.000E+00	0.0
	14	1	6	6	0	0	1.2950753778E+02	-1.4153639817E+01	-4.7922516444E+01	3.5340358720E+02	3.2500000000E+02	0.000E+00	0.0
	-14	1	6	6	0	0	-1.2960107266E+02	1.3103678596E+02	-6.5268445371E+02	7.5205656265E+02	3.2500000000E+02	0.000E+00	0.0
	25	2	5	5	0	0	9.3534883599E-02	-1.1688314614E+02	-1.3664139393E+01	1.7181388177E+02	1.2518635174E+02	0.000E+00	0.0
	-5	1	9	9	0	501	-3.4918399903E+01	-9.6069135221E+01	-5.2841617434E+01	1.1514461484E+02	4.1800000000E+00	0.000E+00	0.0
	5	1	9	9	501	0	3.5011934787E+01	-2.0814010919E+01	3.9177478041E+01	5.6669266924E+01	4.1800000000E+00	0.000E+00	0.0
</event>
<event>
    11  -1  1.0000000E+00  1.0000000E+00  -1.0000000E+00  -1.0000000E+00
	2212	-1	0	0	0	0	0.0000000000E+00	0.0000000000E+00	6.5000000000E+03	6.5000000000E+03	9.3827000000E-01	0.000E+00	0.0
	2212	-1	0	0	0	0	0.0000000000E+00	0.0000000000E+00	-6.5000000000E+03	6.5000000000E+03	9.3827000000E-01	0.000E+00	0.0
	2212	1	0	0	0	0	0.0000000000E+00	0.0000000000E+00	5.5046744744E+03	5.5046744744E+03	9.3827000000E-01	0.000E+00	0.0
	2212	1	0	0	0	0	0.0000000000E+00	0.0000000000E+00	-6.2222524787E+03	6.2222524787E+03	9.3827000000E-01	0.000E+00	0.0
	51	2	1	2	0	0	5.4415242084E+01	-1.3822197503E+00	8.9034478628E+02	1.3789392873E+03	1.0515687283E+03	0.000E+00	0.0
	1000022	2	5	5	0	0	-5.4415242084E+01	1.3822197503E+00	4.1988887033E+02	9.4557894387E+02	8.4548799315E+02	0.000E+00	0.0
	14	1	6	6	0	0	1.4955917488E+02	-9.7717094252E+01	3.6885972040E+00	3.7088432570E+02	3.2500000000E+02	0.000E+00	0.0
	-14	1	6	6	0	0	-2.0397441696E+02	9.9099314003E+01	4.1620027312E+02	5.7469461817E+02	3.2500000000E+02	0.000E+00	0.0
	25	2	5	5	0	0	5.4415242084E+01	-1.3822197503E+00	2.9768913402E+02	3.2749410304E+02	1.2518241852E+02	0.000E+00	0.0
	-5	1	9	9	0	501	7.7103764625E+01	1.3323807193E+01	2.8800122816E+02	2.9847059182E+02	4.1800000000E+00	0.000E+00	0.0
	5	1	9	9	501	0	-2.2688522541E+01	-1.4706026943E+01	9.6879058615E+00	2.9023511220E+01	4.1800000000E+00	0.000E+00	0.0
</event>
<event>
    11  -1  1.0000000E+00  1.0000000E+00  -1.0000000E+00  -1.0000000E+00
	2212	-1	0	0	0	0	0.0000000000E+00	0.0000000000E+00	6.5000000000E+03	6.5000000000E+03	9.3827000000E-01	0.000E+00	0.0
	2212	-1	0	0	0	0	0.0000000000E+00	0.0000000000E+00	-6.5000000000E+03	6.5000000000E+03	9.3827000000E-01	0.000E+00	0.0
	2212	1	0	0	0	0	0.0000000000E+00	0.0000000000E+00	5.5289812282E+03	5.5289812282E+03	9.3827000000E-01	0.000E+00	0.0
	2212	1	0	0	0	0	0.0000000000E+00	0.0000000000E+00	-6.2229041488E+03	6.2229041488E+03	9.3827000000E-01	0.000E+00	0.0
	51	2	1	2	0	0	-1.0960118370E+01	-1.2374361306E+02	7.5484912346E+02	1.2889883233E+03	1.0374300422E+03	0.000E+00	0.0
	1000022	2	5	5	0	0	1.0960118370E+01	1.2374361306E+02	5.1673508929E+02	9.9812859298E+02	8.4487450527E+02	0.000E+00	0.0
	14	1	6	6	0	0	-2.2932699824E+02	-7.2536231931E+01	2.3122024808E+02	4.6576837611E+02	3.2500000000E+02	0.000E+00	0.0
	-14	1	6	6	0	0	2.4028711661E+02	1.9627984500E+02	2.8551484120E+02	5.3236021687E+02	3.2500000000E+02	0.000E+00	0.0
	25	2	5	5	0	0	-1.0960118370E+01	-1.2374361306E+02	1.7718783133E+02	2.4998603005E+02	1.2515942505E+02	0.000E+00	0.0
	-5	1	9	9	0	501	1.0850174941E+01	-1.3453196393E+01	1.2448657344E+02	1.2575012587E+02	4.1800000000E+00	0.000E+00	0.0
	5	1	9	9	501	0	-2.1810293311E+01	-1.1029041667E+02	5.2701257891E+01	1.2423590418E+02	4.1800000000E+00	0.000E+00	0.0
</event>
<event>
    11  -1  1.0000000E+00  1.0000000E+00  -1.0000000E+00  -1.0000000E+00
	2212	-1	0	0	0	0	0.0000000000E+00	0.0000000000E+00	6.5000000000E+03	6.5000000000E+03	9.3827000000E-01	0.000E+00	0.0
	2212	-1	0	0	0	0	0.0000000000E+00	0.0000000000E+00	-6.5000000000E+03	6.5000000000E+03	9.3827000000E-01	0.000E+00	0.0
	2212	1	0	0	0	0	0.0000000000E+00	0.0000000000E+00	5.7191590585E+03	5.7191590585E+03	9.3827000000E-01	0.000E+00	0.0
	2212	1	0	0	0	0	0.0000000000E+00	0.0000000000E+00	-6.1446523075E+03	6.1446523075E+03	9.3827000000E-01	0.000E+00	0.0
	51	2	1	2	0	0	3.9182159425E+01	-6.4245337149E+01	4.5085256389E+02	1.1483949000E+03	1.0535084750E+03	0.000E+00	0.0
	1000022	2	5	5	0	0	-3.9182159425E+01	6.4245337149E+01	3.4163153052E+02	9.6776422318E+02	9.0232631794E+02	0.000E+00	0.0
	14	1	6	6	0	0	2.2853621709E+02	2.2256516977E+02	1.8230206611E+02	4.9053348574E+02	3.2500000000E+02	0.000E+00	0.0
	-14	1	6	6	0	0	-2.6771837652E+02	-1.5831983262E+02	1.5932946440E+02	4.7723073744E+02	3.2500000000E+02	0.000E+00	0.0
	25	2	5	5	0	0	3.9182159425E+01	-6.4245337149E+01	8.3861718453E+01	1.6842441078E+02	1.2518502051E+02	0.000E+00	0.0
	-5	1	9	9	0	501	6.7589498412E+01	-1.4485344536E+00	1.2043696372E+01	6.8796522950E+01	4.1800000000E+00	0.000E+00	0.0
	5	1	9	9	501	0	-2.8407338988E+01	-6.2796802696E+01	7.1818022081E+01	9.9627887826E+01	4.1800000000E+00	0.000E+00	0.0
</event>
<event>
    11  -1  1.0000000E+00  1.0000000E+00  -1.0000000E+00  -1.0000000E+00
	2212	-1	0	0	0	0	0.0000000000E+00	0.0000000000E+00	6.5000000000E+03	6.5000000000E+03	9.3827000000E-01	0.000E+00	0.0
	2212	-1	0	0	0	0	0.0000000000E+00	0.0000000000E+00	-6.5000000000E+03	6.5000000000E+03	9.3827000000E-01	0.000E+00	0.0
	2212	1	0	0	0	0	0.0000000000E+00	0.0000000000E+00	5.6003969178E+03	5.6003969178E+03	9.3827000000E-01	0.000E+00	0.0
	2212	1	0	0	0	0	0.0000000000E+00	0.0000000000E+00	-6.1897235014E+03	6.1897235014E+03	9.3827000000E-01	0.000E+00	0.0
	51	2	1	2	0	0	-7.3225584000E+01	-1.3803434162E+02	8.1212475902E+02	1.3418140213E+03	1.0566469504E+03	0.000E+00	0.0
	1000022	2	5	5	0	0	7.3225584000E+01	1.3803434162E+02	2.3074757256E+02	7.9918890401E+02	7.4902803448E+02	0.000E+00	0.0
	14	1	6	6	0	0	-4.2385853982E+01	-5.3691828156E+01	-1.8131399356E+01	3.3261557491E+02	3.2500000000E+02	0.000E+00	0.0
	-14	1	6	6	0	0	1.1561143798E+02	1.9172616977E+02	2.4887897192E+02	4.6657332910E+02	3.2500000000E+02	0.000E+00	0.0
	25	2	5	5	0	0	-7.3225584000E+01	-1.3803434162E+02	3.5857901099E+02	4.1069067675E+02	1.2518969300E+02	0.000E+00	0.0
	-5	1	9	9	0	501	-2.8402185962E+00	-4.7506662354E+00	-1.0166555245E+01	1.2307189642E+01	4.1800000000E+00	0.000E+00	0.0
	5	1	9	9	501	0	-7.0385365404E+01	-1.3328367538E+02	3.6874556623E+02	3.9838348711E+02	4.1800000000E+00	0.000E+00	0.0
</event>
<event>
    11  -1  1.0000000E+00  1.0000000E+00  -1.0000000E+00  -1.0000000E+00
	2212	-1	0	0	0	0	0.0000000000E+00	0.0000000000E+00	6.5000000000E+03	6.5000000000E+03	9.3827000000E-01	0.000E+00	0.0
	2212	-1	0	0	0	0	0.0000000000E+00	0.0000000000E+00	-6.5000000000E+03	6.5000000000E+03	9.3827000000E-01	0.000E+00	0.0
	2212	1	0	0	0	0	0.0000000000E+00	0.0000000000E+00	5.7886135408E+03	5.7886135408E+03	9.3827000000E-01	0.000E+00	0.0
	2212	1	0	0	0	0	0.0000000000E+00	0.0000000000E+00	-6.1111066395E+03	6.1111066395E+03	9.3827000000E-01	0.000E+00	0.0
	51	2	1	2	0	0	4.2821823816E+01	-9.7145395080E+01	2.1665904420E+02	1.0792710322E+03	1.0519571679E+03	0.000E+00	0.0
	1000022	2	5	5	0	0	-4.2821823816E+01	9.7145395080E+01	3.7192768780E+02	9.2886528469E+02	8.4450552145E+02	0.000E+00	0.0
	14	1	6	6	0	0	-2.6800976718E+02	-5.0374652023E+00	8.5026782746E+01	4.2977804172E+02	3.2500000000E+02	0.000E+00	0.0
	-14	1	6	6	0	0	2.2518794337E+02	1.0218286028E+02	2.8690090506E+02	4.9908724297E+02	3.2500000000E+02	0.000E+00	0.0
	25	2	5	5	0	0	4.2821823816E+01	-9.7145395080E+01	-4.9434589125E+01	1.7141453505E+02	1.2517279195E+02	0.000E+00	0.0
	-5	1	9	9	0	501	5.3078875291E+01	-4.6544640825E+01	-8.3495856370E+01	1.0942029530E+02	4.1800000000E+00	0.000E+00	0.0
	5	1	9	9	501	0	-1.0257051475E+01	-5.0600754255E+01	3.4061267245E+01	6.1994239752E+01	4.1800000000E+00	0.000E+00	0.0
</event>
<event>
    11  -1  1.0000000E+00  1.0000000E+00  -1.0000000E+00  -1.0000000E+00
	2212	-1	0	0	0	0	0.0000000000E+00	0.0000000000E+00	6.5000000000E+03	6.5000000000E+03	9.3827000000E-01	0.000E+00	0.0
	2212	-1	0	0	0	0	0.0000000000E+00	0.0000000000E+00	-6.5000000000E+03	6.5000000000E+03	9.3827000000E-01	0.000E+00	0.0
	2212	1	0	0	0	0	0.0000000000E+00	0.0000000000E+00	5.6093427100E+03	5.6093427100E+03	9.3827000000E-01	0.000E+00	0.0
	2212	1	0	0	0	0	0.0000000000E+00	0.0000000000E+00	-6.1915783383E+03	6.1915783383E+03	9.3827000000E-01	0.000E+00	0.0
	51	2	1	2	0	0	-3.9564202679E-01	-2.0917758410E+01	4.2650262210E+02	1.1318719899E+03	1.0482328013E+03	0.000E+00	0.0
	1000022	2	5	5	0	0	3.9564202679E-01	2.0917758410E+01	6.3802043329E+02	1.0604486573E+03	8.4678425367E+02	0.000E+00	0.0
	14	1	6	6	0	0	2.9402420628E+00	-1.7774240670E+02	7.0723706253E+01	3.7713107905E+02	3.2500000000E+02	0.000E+00	0.0
	-14	1	6	6	0	0	-2.5446000360E+00	1.9866016511E+02	5.6729672704E+02	6.8331757821E+02	3.2500000000E+02	0.000E+00	0.0
	25	2	5	5	0	0	-3.9564202679E-01	-2.0917758410E+01	-5.5784805016E+01	1.3863029450E+02	1.2517469766E+02	0.000E+00	0.0
	-5	1	9	9	0	501	-2.3937022448E+01	-2.3424093932E+01	3.2666193140E+01	4.6970435324E+01	4.1800000000E+00	0.000E+00	0.0
	5	1	9	9	501	0	2.3541380422E+01	2.5063355219E+00	-8.8450998156E+01	9.1659859179E+01	4.1800000000E+00	0.000E+00	0.0
</event>
<event>
    11  -1  1.0000000E+00  1.0000000E+00  -1.0000000E+00  -1.0000000E+00
	2212	-1	0	0	0	0	0.0000000000E+00	0.0000000000E+00	6.5000000000E+03	6.5000000000E+03	9.3827000000E-01	0.000E+00	0.0
	2212	-1	0	0	0	0	0.0000000000E+00	0.0000000000E+00	-6.5000000000E+03	6.5000000000E+03	9.3827000000E-01	0.000E+00	0.0
	2212	1	0	0	0	0	0.0000000000E+00	0.0000000000E+00	5.1890233116E+03	5.1890233116E+03	9.3827000000E-01	0.000E+00	0.0
	2212	1	0	0	0	0	0.0000000000E+00	0.0000000000E+00	-6.3102293619E+03	6.3102293619E+03	9.3827000000E-01	0.000E+00	0.0
	51	2	1	2	0	0	3.8353663571E+01	4.1911302875E+01	1.1951769283E+03	1.5578237966E+03	9.9756680509E+02	0.000E+00	0.0
	1000022	2	5	5	0	0	-3.8353663571E+01	-4.1911302875E+01	8.8719482996E+02	1.2294549984E+03	8.4924517429E+02	0.000E+00	0.0
	14	1	6	6	0	0	1.3989857236E+02	1.7306261159E+01	1.1771852152E+02	3.7330117537E+02	3.2500000000E+02	0.000E+00	0.0
	-14	1	6	6	0	0	-1.7825223593E+02	-5.9217564034E+01	7.6947630843E+02	8.5615382306E+02	3.2500000000E+02	0.000E+00	0.0
	25	2	5	5	0	0	3.8353663571E+01	4.1911302875E+01	2.3401122032E+02	2.7129232800E+02	1.2494284764E+02	0.000E+00	0.0
	-5	1	9	9	0	501	7.5111186544E+01	5.7599250488E+01	1.3992893173E+02	1.6898799465E+02	4.1800000000E+00	0.000E+00	0.0
	5	1	9	9	501	0	-3.6757522972E+01	-1.5687947613E+01	9.4082288586E+01	1.0230433334E+02	4.1800000000E+00	0.000E+00	0.0
</event>
<event>
    11  -1  1.0000000E+00  1.0000000E+00  -1.0000000E+00  -1.0000000E+00
	2212	-1	0	0	0	0	0.0000000000E+00	0.0000000000E+00	6.5000000000E+03	6.5000000000E+03	9.3827000000E-01	0.000E+00	0.0
	2212	-1	0	0	0	0	0.0000000000E+00	0.0000000000E+00	-6.5000000000E+03	6.5000000000E+03	9.3827000000E-01	0.000E+00	0.0
	2212	1	0	0	0	0	0.0000000000E+00	0.0000000000E+00	5.4159431494E+03	5.4159431494E+03	9.3827000000E-01	0.000E+00	0.0
	2212	1	0	0	0	0	0.0000000000E+00	0.0000000000E+00	-6.2417516759E+03	6.2417516759E+03	9.3827000000E-01	0.000E+00	0.0
	51	2	1	2	0	0	4.9709152901E+01	9.3371950229E+01	8.9375164704E+02	1.3891741385E+03	1.0582171136E+03	0.000E+00	0.0
	1000022	2	5	5	0	0	-4.9709152901E+01	-9.3371950229E+01	6.2926149180E+02	1.0863978032E+03	8.7926153147E+02	0.000E+00	0.0
	14	1	6	6	0	0	-8.9606224670E+01	1.9585860662E+02	4.9343610456E+02	6.2888318356E+02	3.2500000000E+02	0.000E+00	0.0
	-14	1	6	6	0	0	3.9897071768E+01	-2.8923055684E+02	1.3582538724E+02	4.5751461962E+02	3.2500000000E+02	0.000E+00	0.0
	25	2	5	5	0	0	4.9709152901E+01	9.3371950229E+01	1.9654703468E+02	2.5590737150E+02	1.2517397883E+02	0.000E+00	0.0
	-5	1	9	9	0	501	-1.0607483918E+01	1.0188653967E+02	1.1556460852E+02	1.5448636452E+02	4.1800000000E+00	0.000E+00	0.0
	5	1	9	9	501	0	6.0316636819E+01	-8.5145894382E+00	8.0982426165E+01	1.0142100699E+02	4.1800000000E+00	0.000E+00	0.0
</event>
<event>
    11  -1  1.0000000E+00  1.0000000E+00  -1.0000000E+00  -1.0000000E+00
	2212	-1	0	0	0	0	0.0000000000E+00	0.0000000000E+00	6.5000000000E+03	6.5000000000E+03	9.3827000000E-01	0.000E+00	0.0
	2212	-1	0	0	0	0	0.0000000000E+00	0.0000000000E+00	-6.5000000000E+03	6.5000000000E+03	9.3827000000E-01	0.000E+00	0.0
	2212	1	0	0	0	0	0.0000000000E+00	0.0000000000E+00	6.1433554871E+03	6.1433554871E+03	9.3827000000E-01	0.000E+00	0.0
	2212	1	0	0	0	0	0.0000000000E+00	0.0000000000E+00	-5.7322304973E+03	5.7322304973E+03	9.3827000000E-01	0.000E+00	0.0
	51	2	1	2	0	0	-2.7605786218E+01	-1.3277711852E+02	-3.7378453682E+02	1.1195489466E+03	1.0465577486E+03	0.000E+00	0.0
	1000022	2	5	5	0	0	2.7605786218E+01	1.3277711852E+02	-3.7813034025E+02	9.3691477412E+02	8.4642477345E+02	0.000E+00	0.0
	14	1	6	6	0	0	2.6116204722E+02	9.1929535619E+01	-7.5662948014E+01	4.3359720494E+02	3.2500000000E+02	0.000E+00	0.0
	-14	1	6	6	0	0	-2.3355626101E+02	4.0847582904E+01	-3.0246739223E+02	5.0331756918E+02	3.2500000000E+02	0.000E+00	0.0
	25	2	5	5	0	0	-2.7605786218E+01	-1.3277711852E+02	-3.2994649607E+01	1.8749924149E+02	1.2520174129E+02	0.000E+00	0.0
	-5	1	9	9	0	501	-1.7138339552E+01	9.6320314901E+00	2.6067855374E+01	3.2916624934E+01	4.1800000000E+00	0.000E+00	0.0
	5	1	9	9	501	0	-1.0467446666E+01	-1.4240915001E+02	-5.9062504981E+01	1.5458261656E+02	4.1800000000E+00	0.000E+00	0.0
</event>
<event>
    11  -1  1.0000000E+00  1.0000000E+00  -1.0000000E+00  -1.0000000E+00
	2212	-1	0	0	0	0	0.0000000000E+00	0.0000000000E+00	6.5000000000E+03	6.5000000000E+03	9.3827000000E-01	0.000E+00	0.0
	2212	-1	0	0	0	0	0.0000000000E+00	0.0000000000E+00	-6.5000000000E+03	6.5000000000E+03	9.3827000000E-01	0.000E+00	0.0
	2212	1	0	0	0	0	0.0000000000E+00	0.0000000000E+00	6.2972605349E+03	6.2972605349E+03	9.3827000000E-01	0.000E+00	0.0
	2212	1	0	0	0	0	0.0000000000E+00	0.0000000000E+00	-5.1570612897E+03	5.1570612897E+03	9.3827000000E-01	0.000E+00	0.0
	51	2	1	2	0	0	3.4363149536E+01	9.9300846767E+01	-1.0008110759E+03	1.4497348024E+03	1.0435835872E+03	0.000E+00	0.0
	1000022	2	5	5	0	0	-3.4363149536E+01	-9.9300846767E+01	-1.0804305224E+03	1.3716402599E+03	8.3846610224E+02	0.000E+00	0.0
	14	1	6	6	0	0	5.3288545277E+01	2.0230541277E+02	-4.1375841639E+02	5.6620506552E+02	3.2500000000E+02	0.000E+00	0.0
	-14	1	6	6	0	0	-8.7651694813E+01	-3.0160625953E+02	-6.6667210602E+02	8.0543519437E+02	3.2500000000E+02	0.000E+00	0.0
	25	2	5	5	0	0	3.4363149536E+01	9.9300846767E+01	-5.9768722780E+01	1.7403791557E+02	1.2520148410E+02	0.000E+00	0.0
	-5	1	9	9	0	501	5.6146961663E+00	1.1201947051E+02	-7.8721811806E+01	1.3709297079E+02	4.1800000000E+00	0.000E+00	0.0
	5	1	9	9	501	0	2.8748453370E+01	-1.2718623746E+01	1.8953089026E+01	3.6944944780E+01	4.1800000000E+00	0.000E+00	0.0
</event>
<event>
    11  -1  1.0000000E+00  1.0000000E+00  -1.0000000E+00  -1.0000000E+00
	2212	-1	0	0	0	0	0.0000000000E+00	0.0000000000E+00	6.5000000000E+03	6.5000000000E+03	9.3827000000E-01	0.000E+00	0.0
	2212	-1	0	0	0	0	0.0000000000E+00	0.0000000000E+00	-6.5000000000E+03	6.5000000000E+03	9.3827000000E-01	0.000E+00	0.0
	2212	1	0	0	0	0	0.0000000000E+00	0.0000000000E+00	5.7623906215E+03	5.7623906215E+03	9.3827000000E-01	0.000E+00	0.0
	2212	1	0	0	0	0	0.0000000000E+00	0.0000000000E+00	-6.1284671168E+03	6.1284671168E+03	9.3827000000E-01	0.000E+00	0.0
	51	2	1	2	0	0	1.0209297071E+02	-2.0417394974E+01	4.5887100481E+02	1.1478619255E+03	1.0469883267E+03	0.000E+00	0.0
	1000022	2	5	5	0	0	-1.0209297071E+02	2.0417394974E+01	2.1209947462E+02	8.8505120797E+02	8.5293001407E+02	0.000E+00	0.0
	14	1	6	6	0	0	1.6948932929E+02	-1.5321786266E+02	5.4822880847E+01	4.0103976666E+02	3.2500000000E+02	0.000E+00	0.0
	-14	1	6	6	0	0	-2.7158230000E+02	1.7363525763E+02	1.5727659377E+02	4.8401144131E+02	3.2500000000E+02	0.000E+00	0.0
	25	2	5	5	0	0	1.0209297071E+02	-2.0417394974E+01	1.5397702065E+02	2.2409105371E+02	1.2517201275E+02	0.000E+00	0.0
	-5	1	9	9	0	501	4.4743313092E+01	3.7930102944E+01	1.2331847363E+02	1.3662201548E+02	4.1800000000E+00	0.000E+00	0.0
	5	1	9	9	501	0	5.7349657622E+01	-5.8347497917E+01	3.0658547015E+01	8.7469038223E+01	4.1800000000E+00	0.000E+00	0.0
</event>
<event>
    11  -1  1.0000000E+00  1.0000000E+00  -1.0000000E+00  -1.0000000E+00
	2212	-1	0	0	0	0	0.0000000000E+00	0.0000000000E+00	6.5000000000E+03	6.5000000000E+03	9.3827000000E-01	0.000E+00	0.0
	2212	-1	0	0	0	0	0.0000000000E+00	0.0000000000E+00	-6.5000000000E+03	6.5000000000E+03	9.3827000000E-01	0.000E+00	0.0
	2212	1	0	0	0	0	0.0000000000E+00	0.0000000000E+00	5.7118362669E+03	5.7118362669E+03	9.3827000000E-01	0.000E+00	0.0
	2212	1	0	0	0	0	0.0000000000E+00	0.0000000000E+00	-6.1486669905E+03	6.1486669905E+03	9.3827000000E-01	0.000E+00	0.0
	51	2	1	2	0	0	1.0717099036E+02	2.3183210463E+01	5.2561042742E+02	1.1814910703E+03	1.0524408512E+03	0.000E+00	0.0
	1000022	2	5	5	0	0	-1.0717099036E+02	-2.3183210463E+01	2.7522207672E+02	9.0752414870E+02	8.5780522646E+02	0.000E+00	0.0
	14	1	6	6	0	0	3.9422108014E+01	2.4945111783E+01	4.0829802839E+02	5.2393572238E+02	3.2500000000E+02	0.000E+00	0.0
	-14	1	6	6	0	0	-1.4659309837E+02	-4.8128322246E+01	-1.3307595167E+02	3.8358842632E+02	3.2500000000E+02	0.000E+00	0.0
	25	2	5	5	0	0	1.0717099036E+02	2.3183210463E+01	1.6160864694E+02	2.3197259391E+02	1.2518325421E+02	0.000E+00	0.0
	-5	1	9	9	0	501	8.6813065356E+01	2.4753916469E+01	1.8175722431E+02	2.0298380646E+02	4.1800000000E+00	0.000E+00	0.0
	5	1	9	9	501	0	2.0357925004E+01	-1.5707060059E+00	-2.0148577365E+01	2.8988787447E+01	4.1800000000E+00	0.000E+00	0.0
</event>
<event>
    11  -1  1.0000000E+00  1.0000000E+00  -1.0000000E+00  -1.0000000E+00
	2212	-1	0	0	0	0	0.0000000000E+00	0.0000000000E+00	6.5000000000E+03	6.5000000000E+03	9.3827000000E-01	0.000E+00	0.0
	2212	-1	0	0	0	0	0.0000000000E+00	0.0000000000E+00	-6.5000000000E+03	6.5000000000E+03	9.3827000000E-01	0.000E+00	0.0
	2212	1	0	0	0	0	0.0000000000E+00	0.0000000000E+00	5.9653977846E+03	5.9653977846E+03	9.3827000000E-01	0.000E+00	0.0
	2212	1	0	0	0	0	0.0000000000E+00	0.0000000000E+00	-5.9980729172E+03	5.9980729172E+03	9.3827000000E-01	0.000E+00	0.0
	51	2	1	2	0	0	-1.0006366720E+02	-3.5022436221E+01	7.0907862886E+01	1.0438355020E+03	1.0360141513E+03	0.000E+00	0.0
	1000022	2	5	5	0	0	1.0006366720E+02	3.5022436221E+01	-1.0676339125E+01	8.6684500777E+02	8.6027145410E+02	0.000E+00	0.0
	14	1	6	6	0	0	-1.8687460457E+02	-7.2337086375E+01	1.2215182739E+02	4.0087509381E+02	3.2500000000E+02	0.000E+00	0.0
	-14	1	6	6	0	0	2.8693827177E+02	1.0735952260E+02	-1.3282816651E+02	4.6596991396E+02	3.2500000000E+02	0.000E+00	0.0
	25	2	5	5	0	0	-1.0006366720E+02	-3.5022436221E+01	4.3351471746E+01	1.6968429044E+02	1.2519624510E+02	0.000E+00	0.0
	-5	1	9	9	0	501	-6.8929964645E+01	3.7785508269E+01	4.4410556931E+01	9.0381716226E+01	4.1800000000E+00	0.000E+00	0.0
	5	1	9	9	501	0	-3.1133702556E+01	-7.2807944491E+01	-1.0590851844E+00	7.9302574215E+01	4.1800000000E+00	0.000E+00	0.0
</event>
<event>
    11  -1  1.0000000E+00  1.0000000E+00  -1.0000000E+00  -1.0000000E+00
	2212	-1	0	0	0	0	0.0000000000E+00	0.0000000000E+00	6.5000000000E+03	6.5000000000E+03	9.3827000000E-01	0.000E+00	0.0
	2212	-1	0	0	0	0	0.0000000000E+00	0.0000000000E+00	-6.5000000000E+03	6.5000000000E+03	9.3827000000E-01	0.000E+00	0.0
	2212	1	0	0	0	0	0.0000000000E+00	0.0000000000E+00	5.7847526724E+03	5.7847526724E+03	9.3827000000E-01	0.000E+00	0.0
	2212	1	0	0	0	0	0.0000000000E+00	0.0000000000E+00	-6.1084505000E+03	6.1084505000E+03	9.3827000000E-01	0.000E+00	0.0
	51	2	1	2	0	0	-3.2197424317E+01	7.8870530488E+01	4.3760083825E+02	1.1484644803E+03	1.0584039560E+03	0.000E+00	0.0
	1000022	2	5	5	0	0	3.2197424317E+01	-7.8870530488E+01	1.5586961057E+02	8.8074657455E+02	8.6264822400E+02	0.000E+00	0.0
	14	1	6	6	0	0	1.1473361188E+02	-2.8739261913E+02	1.8370135154E+02	4.8490154236E+02	3.2500000000E+02	0.000E+00	0.0
	-14	1	6	6	0	0	-8.2536187563E+01	2.0852208864E+02	-2.7831740971E+01	3.9584503220E+02	3.2500000000E+02	0.000E+00	0.0
	25	2	5	5	0	0	-3.2197424317E+01	7.8870530488E+01	1.6782821696E+02	2.2605025305E+02	1.2520052630E+02	0.000E+00	0.0
	-5	1	9	9	0	501	1.6002019365E+01	3.9147609503E+01	-4.4705506228E+00	4.2732401950E+01	4.1800000000E+00	0.000E+00	0.0
	5	1	9	9	501	0	-4.8199443682E+01	3.9722920984E+01	1.7229876758E+02	1.8331785110E+02	4.1800000000E+00	0.000E+00	0.0
</event>
<event>
    11  -1  1.0000000E+00  1.0000000E+00  -1.0000000E+00  -1.0000000E+00
	2212	-1	0	0	0	0	0.0000000000E+00	0.0000000000E+00	6.5000000000E+03	6.5000000000E+03	9.3827000000E-01	0.000E+00	0.0
	2212	-1	0	0	0	0	0.0000000000E+00	0.0000000000E+00	-6.5000000000E+03	6.5000000000E+03	9.3827000000E-01	0.000E+00	0.0
	2212	1	0	0	0	0	0.0000000000E+00	0.0000000000E+00	6.0464538785E+03	6.0464538785E+03	9.3827000000E-01	0.000E+00	0.0
	2212	1	0	0	0	0	0.0000000000E+00	0.0000000000E+00	-5.9099048003E+03	5.9099048003E+03	9.3827000000E-01	0.000E+00	0.0
	51	2	1	2	0	0	-2.3305572027E+02	3.1696673567E+01	2.3472099990E+01	1.0613256540E+03	1.0346697814E+03	0.000E+00	0.0
	1000022	2	5	5	0	0	2.3305572027E+02	-3.1696673567E+01	-2.6043904938E+02	7.4980704249E+02	6.6261787982E+02	0.000E+00	0.0
	14	1	6	6	0	0	7.6393386327E+01	-4.5604655633E+01	-1.7087459804E+02	3.7780797020E+02	3.2500000000E+02	0.000E+00	0.0
	-14	1	6	6	0	0	1.5666233394E+02	1.3907982066E+01	-8.9564451337E+01	3.7199907229E+02	3.2500000000E+02	0.000E+00	0.0
	25	2	5	5	0	0	-2.3305572027E+02	3.1696673567E+01	1.2388997122E+02	2.9383427868E+02	1.2518071134E+02	0.000E+00	0.0
	-5	1	9	9	0	501	-1.2370289206E+02	4.2109846951E+01	1.2916014063E+02	1.8378100838E+02	4.1800000000E+00	0.000E+00	0.0
	5	1	9	9	501	0	-1.0935282821E+02	-1.0413173383E+01	-5.2701694114E+00	1.1005327030E+02	4.1800000000E+00	0.000E+00	0.0
</event>
<event>
    11  -1  1.0000000E+00  1.0000000E+00  -1.0000000E+00  -1.0000000E+00
	2212	-1	0	0	0	0	0.0000000000E+00	0.0000000000E+00	6.5000000000E+03	6.5000000000E+03	9.3827000000E-01	0.000E+00	0.0
	2212	-1	0	0	0	0	0.0000000000E+00	0.0000000000E+00	-6.5000000000E+03	6.5000000000E+03	9.3827000000E-01	0.000E+00	0.0
	2212	1	0	0	0	0	0.0000000000E+00	0.0000000000E+00	6.0756968872E+03	6.0756968872E+03	9.3827000000E-01	0.000E+00	0.0
	2212	1	0	0	0	0	0.0000000000E+00	0.0000000000E+00	-5.8426734118E+03	5.8426734118E+03	9.3827000000E-01	0.000E+00	0.0
	51	2	1	2	0	0	-7.9853717861E+01	-5.6437037522E+01	-1.2249168981E+02	1.0677962537E+03	1.0562305003E+03	0.000E+00	0.0
	1000022	2	5	5	0	0	7.9853717861E+01	5.6437037522E+01	-3.0316390898E+02	9.0797780618E+02	8.5026677305E+02	0.000E+00	0.0
	14	1	6	6	0	0	2.7686085731E+02	-8.0303695319E+00	-3.0109702291E+02	5.2249482136E+02	3.2500000000E+02	0.000E+00	0.0
	-14	1	6	6	0	0	-1.9700713945E+02	6.4467407054E+01	-2.0668860615E+00	3.8548298482E+02	3.2500000000E+02	0.000E+00	0.0
	25	2	5	5	0	0	-7.9853717861E+01	-5.6437037522E+01	7.0140433586E+01	1.7365189475E+02	1.2519402807E+02	0.000E+00	0.0
	-5	1	9	9	0	501	-3.7707796025E+01	-7.2636692789E+01	9.2091355763E+01	1.2327310018E+02	4.1800000000E+00	0.000E+00	0.0
	5	1	9	9	501	0	-4.2145921835E+01	1.6199655267E+01	-2.1950922177E+01	5.0378794572E+01	4.1800000000E+00	0.000E+00	0.0
</event>
<event>
    11  -1  1.0000000E+00  1.0000000E+00  -1.0000000E+00  -1.0000000E+00
	2212	-1	0	0	0	0	0.0000000000E+00	0.0000000000E+00	6.5000000000E+03	6.5000000000E+03	9.3827000000E-01	0.000E+00	0.0
	2212	-1	0	0	0	0	0.0000000000E+00	0.0000000000E+00	-6.5000000000E+03	6.5000000000E+03	9.3827000000E-01	0.000E+00	0.0
	2212	1	0	0	0	0	0.0000000000E+00	0.0000000000E+00	5.7566104500E+03	5.7566104500E+03	9.3827000000E-01	0.000E+00	0.0
	2212	1	0	0	0	0	0.0000000000E+00	0.0000000000E+00	-6.1325151647E+03	6.1325151647E+03	9.3827000000E-01	0.000E+00	0.0
	51	2	1	2	0	0	7.0860237257E+01	4.0892878162E+01	5.3570113843E+02	1.1774577088E+03	1.0453408753E+03	0.000E+00	0.0
	1000022	2	5	5	0	0	-7.0860237257E+01	-4.0892878162E+01	1.4576242784E+02	8.3640482271E+02	8.1953214786E+02	0.000E+00	0.0
	14	1	6	6	0	0	-2.1832004059E+02	-1.5857255464E+02	-2.6016774123E+01	4.2321480095E+02	3.2500000000E+02	0.000E+00	0.0
	-14	1	6	6	0	0	1.4745980333E+02	1.1767967648E+02	1.7177920196E+02	4.1319002176E+02	3.2500000000E+02	0.000E+00	0.0
	25	2	5	5	0	0	7.0860237257E+01	4.0892878162E+01	2.3014228685E+02	2.7446956263E+02	1.2519851398E+02	0.000E+00	0.0
	-5	1	9	9	0	501	5.3888817123E+01	5.4589126896E+01	4.7153202065E+01	9.0138084354E+01	4.1800000000E+00	0.000E+00	0.0
	5	1	9	9	501	0	1.6971420135E+01	-1.3696248734E+01	1.8298908479E+02	1.8433147827E+02	4.1800000000E+00	0.000E+00	0.0
</event>
<event>
    11  -1  1.0000000E+00  1.0000000E+00  -1.0000000E+00  -1.0000000E+00
	2212	-1	0	0	0	0	0.0000000000E+00	0.0000000000E+00	6.5000000000E+03	6.5000000000E+03	9.3827000000E-01	0.000E+00	0.0
	2212	-1	0	0	0	0	0.0000000000E+00	0.0000000000E+00	-6.5000000000E+03	6.5000000000E+03	9.3827000000E-01	0.000E+00	0.0
	2212	1	0	0	0	0	0.0000000000E+00	0.0000000000E+00	5.2433627229E+03	5.2433627229E+03	9.3827000000E-01	0.000E+00	0.0
	2212	1	0	0	0	0	0.0000000000E+00	0.0000000000E+00	-6.2787595989E+03	6.2787595989E+03	9.3827000000E-01	0.000E+00	0.0
	51	2	1	2	0	0	-1.2694527053E+02	-3.5958788303E+01	9.0250792128E+02	1.3942755914E+03	1.0545500181E+03	0.000E+00	0.0
	1000022	2	5	5	0	0	1.2694527053E+02	3.5958788303E+01	9.7558221181E+02	1.2864235197E+03	8.2808011926E+02	0.000E+00	0.0
	14	1	6	6	0	0	2.4201838849E+02	9.7649427157E+01	2.6419611827E+02	4.9349052666E+02	3.2500000000E+02	0.000E+00	0.0
	-14	1	6	6	0	0	-1.1507311796E+02	-6.1690638854E+01	7.1138609354E+02	7.9293299305E+02	3.2500000000E+02	0.000E+00	0.0
	25	2	5	5	0	0	-1.2694527053E+02	-3.5958788303E+01	5.9814664240E+01	1.9145415847E+02	1.2517493587E+02	0.000E+00	0.0
	-5	1	9	9	0	501	-9.4004712299E+01	2.7688769936E+01	1.1641814054E-01	9.8086899575E+01	4.1800000000E+00	0.000E+00	0.0
	5	1	9	9	501	0	-3.2940558231E+01	-6.3647558239E+01	5.9698246099E+01	9.3367258896E+01	4.1800000000E+00	0.000E+00	0.0
</event>
<event>
    11  -1  1.0000000E+00  1.0000000E+00  -1.0000000E+00  -1.0000000E+00
	2212	-1	0	0	0	0	0.0000000000E+00	0.0000000000E+00	6.5000000000E+03	6.5000000000E+03	9.3827000000E-01	0.000E+00	0.0
	2212	-1	0	0	0	0	0.0000000000E+00	0.0000000000E+00	-6.5000000000E+03	6.5000000000E+03	9.3827000000E-01	0.000E+00	0.0
	2212	1	0	0	0	0	0.0000000000E+00	0.0000000000E+00	6.2814369335E+03	6.2814369335E+03	9.3827000000E-01	0.000E+00	0.0
	2212	1	0	0	0	0	0.0000000000E+00	0.0000000000E+00	-5.2378388108E+03	5.2378388108E+03	9.3827000000E-01	0.000E+00	0.0
	51	2	1	2	0	0	-3.2739310748E+01	1.2337354997E+02	-1.1188163393E+03	1.5399643426E+03	1.0504509888E+03	0.000E+00	0.0
	1000022	2	5	5	0	0	3.2739310748E+01	-1.2337354997E+02	-7.9340337537E+02	1.1732161935E+03	8.5478326218E+02	0.000E+00	0.0
	14	1	6	6	0	0	-3.5371112327E+01	-1.6661198216E+02	-7.5078473382E+02	8.3565147323E+02	3.2500000000E+02	0.000E+00	0.0
	-14	1	6	6	0	0	6.8110423075E+01	4.3238432189E+01	-4.2618641554E+01	3.3756472025E+02	3.2500000000E+02	0.000E+00	0.0
	25	2	5	5	0	0	-3.2739310748E+01	1.2337354997E+02	-2.5019474729E+02	3.0750806227E+02	1.2518347130E+02	0.000E+00	0.0
	-5	1	9	9	0	501	-4.0332475176E+01	1.1623523305E+02	-1.0477614583E+02	1.6165658382E+02	4.1800000000E+00	0.000E+00	0.0
	5	1	9	9	501	0	7.5931644274E+00	7.1383169148E+00	-1.4541860147E+02	1.4585147845E+02	4.1800000000E+00	0.000E+00	0.0
</event>
<event>
    11  -1  1.0000000E+00  1.0000000E+00  -1.0000000E+00  -1.0000000E+00
	2212	-1	0	0	0	0	0.0000000000E+00	0.0000000000E+00	6.5000000000E+03	6.5000000000E+03	9.3827000000E-01	0.000E+00	0.0
	2212	-1	0	0	0	0	0.0000000000E+00	0.0000000000E+00	-6.5000000000E+03	6.5000000000E+03	9.3827000000E-01	0.000E+00	0.0
	2212	1	0	0	0	0	0.0000000000E+00	0.0000000000E+00	5.6244530776E+03	5.6244530776E+03	9.3827000000E-01	0.000E+00	0.0
	2212	1	0	0	0	0	0.0000000000E+00	0.0000000000E+00	-6.1826173741E+03	6.1826173741E+03	9.3827000000E-01	0.000E+00	0.0
	51	2	1	2	0	0	-5.6800502717E+01	-1.3117128702E+01	6.9334002976E+02	1.2631913072E+03	1.0542929031E+03	0.000E+00	0.0
	1000022	2	5	5	0	0	5.6800502717E+01	1.3117128702E+01	3.3179292953E+02	9.2776108070E+02	8.6443954016E+02	0.000E+00	0.0
	14	1	6	6	0	0	2.9470223404E+02	-5.0304425111E+01	2.6383278238E+02	5.1440517006E+02	3.2500000000E+02	0.000E+00	0.0
	-14	1	6	6	0	0	-2.3790173132E+02	6.3421553813E+01	6.7960147156E+01	4.1335591063E+02	3.2500000000E+02	0.000E+00	0.0
	25	2	5	5	0	0	-5.6800502717E+01	-1.3117128702E+01	2.2637136690E+02	2.6516846762E+02	1.2518771622E+02	0.000E+00	0.0
	-5	1	9	9	0	501	1.4043592160E+01	2.6337597521E+01	1.5232512060E+02	1.5527815780E+02	4.1800000000E+00	0.000E+00	0.0
	5	1	9	9	501	0	-7.0844094878E+01	-3.9454726223E+01	7.4046246301E+01	1.0989030982E+02	4.1800000000E+00	0.000E+00	0.0
</event>
<event>
    11  -1  1.0000000E+00  1.0000000E+00  -1.0000000E+00  -1.0000000E+00
	2212	-1	0	0	0	0	0.0000000000E+00	0.0000000000E+00	6.5000000000E+03	6.5000000000E+03	9.3827000000E-01	0.000E+00	0.0
	2212	-1	0	0	0	0	0.0000000000E+00	0.0000000000E+00	-6.5000000000E+03	6.5000000000E+03	9.3827000000E-01	0.000E+00	0.0
	2212	1	0	0	0	0	0.0000000000E+00	0.0000000000E+00	6.2815693578E+03	6.2815693578E+03	9.3827000000E-01	0.000E+00	0.0
	2212	1	0	0	0	0	0.0000000000E+00	0.0000000000E+00	-5.2522445126E+03	5.2522445126E+03	9.3827000000E-01	0.000E+00	0.0
	51	2	1	2	0	0	6.3269844484E+01	9.6962577193E+01	-9.4890287325E+02	1.4156318756E+03	1.0441226603E+03	0.000E+00	0.0
	1000022	2	5	5	0	0	-6.3269844484E+01	-9.6962577193E+01	-9.3868043665E+02	1.2730708021E+03	8.5216400445E+02	0.000E+00	0.0
	14	1	6	6	0	0	8.9933243167E+01	-2.5016977493E+02	-2.7165286632E+02	5.0009317561E+02	3.2500000000E+02	0.000E+00	0.0
	-14	1	6	6	0	0	-1.5320308765E+02	1.5320719773E+02	-6.6702757034E+02	7.7297762651E+02	3.2500000000E+02	0.000E+00	0.0
	25	2	5	5	0	0	6.3269844484E+01	9.6962577193E+01	-9.0644408526E+01	1.9311532751E+02	1.2518908228E+02	0.000E+00	0.0
	-5	1	9	9	0	501	-3.4744088938E+01	3.4045438684E+01	-4.9484087814E+01	6.9515400870E+01	4.1800000000E+00	0.000E+00	0.0
	5	1	9	9	501	0	9.8013933422E+01	6.2917138510E+01	-4.1160320712E+01	1.2359992664E+02	4.1800000000E+00	0.000E+00	0.0
</event>
<event>
    11  -1  1.0000000E+00  1.0000000E+00  -1.0000000E+00  -1.0000000E+00
	2212	-1	0	0	0	0	0.0000000000E+00	0.0000000000E+00	6.5000000000E+03	6.5000000000E+03	9.3827000000E-01	0.000E+00	0.0
	2212	-1	0	0	0	0	0.0000000000E+00	0.0000000000E+00	-6.5000000000E+03	6.5000000000E+03	9.3827000000E-01	0.000E+00	0.0
	2212	1	0	0	0	0	0.0000000000E+00	0.0000000000E+00	6.0769049116E+03	6.0769049116E+03	9.3827000000E-01	0.000E+00	0.0
	2212	1	0	0	0	0	0.0000000000E+00	0.0000000000E+00	-5.8169257581E+03	5.8169257581E+03	9.3827000000E-01	0.000E+00	0.0
	51	2	1	2	0	0	-1.0549622764E+01	1.0423536965E+02	-4.0169902795E+02	1.1525449419E+03	1.0751843689E+03	0.000E+00	0.0
	1000022	2	5	5	0	0	1.0549622764E+01	-1.0423536965E+02	-7.0353861364E+01	8.5596389969E+02	8.4660984222E+02	0.000E+00	0.0
	14	1	6	6	0	0	-8.6576198620E+01	-1.7160058259E+02	1.9037907103E+02	4.2286095682E+02	3.2500000000E+02	0.000E+00	0.0
	-14	1	6	6	0	0	9.7125821383E+01	6.7365212949E+01	-2.6073293239E+02	4.3310294288E+02	3.2500000000E+02	0.000E+00	0.0
	25	2	5	5	0	0	-1.0549622764E+01	1.0423536965E+02	-1.8962529215E+02	2.5020543064E+02	1.2517467504E+02	0.000E+00	0.0
	-5	1	9	9	0	501	-2.5165198735E+01	1.7306858396E+00	8.2261178642E+00	2.6859335732E+01	4.1800000000E+00	0.000E+00	0.0
	5	1	9	9	501	0	1.4615575972E+01	1.0250468381E+02	-1.9785141002E+02	2.2334609490E+02	4.1800000000E+00	0.000E+00	0.0
</event>
<event>
    11  -1  1.0000000E+00  1.0000000E+00  -1.0000000E+00  -1.0000000E+00
	2212	-1	0	0	0	0	0.0000000000E+00	0.0000000000E+00	6.5000000000E+03	6.5000000000E+03	9.3827000000E-01	0.000E+00	0.0
	2212	-1	0	0	0	0	0.0000000000E+00	0.0000000000E+00	-6.5000000000E+03	6.5000000000E+03	9.3827000000E-01	0.000E+00	0.0
	2212	1	0	0	0	0	0.0000000000E+00	0.0000000000E+00	6.2067261146E+03	6.2067261146E+03	9.3827000000E-01	0.000E+00	0.0
	2212	1	0	0	0	0	0.0000000000E+00	0.0000000000E+00	-5.5664153037E+03	5.5664153037E+03	9.3827000000E-01	0.000E+00	0.0
	51	2	1	2	0	0	6.7709985549E+01	1.1932759826E+02	-6.3536050492E+02	1.2319459136E+03	1.0465104132E+03	0.000E+00	0.0
	1000022	2	5	5	0	0	-6.7709985549E+01	-1.1932759826E+02	-5.3693339704E+02	1.0142114360E+03	8.4941370735E+02	0.000E+00	0.0
	14	1	6	6	0	0	2.1234719807E+02	-4.6942048408E+01	-3.9682380184E+02	5.5712567536E+02	3.2500000000E+02	0.000E+00	0.0
	-14	1	6	6	0	0	-2.8005718362E+02	-7.2385549856E+01	-1.4010959520E+02	4.5708576066E+02	3.2500000000E+02	0.000E+00	0.0
	25	2	5	5	0	0	6.7709985549E+01	1.1932759826E+02	-1.0337741384E+02	2.1264714567E+02	1.2533236222E+02	0.000E+00	0.0
	-5	1	9	9	0	501	8.2325725115E+01	8.1650914697E+01	-1.7094921695E+01	1.1727789917E+02	4.1800000000E+00	0.000E+00	0.0
	5	1	9	9	501	0	-1.4615739566E+01	3.7676683566E+01	-8.6282492140E+01	9.5369246497E+01	4.1800000000E+00	0.000E+00	0.0
</event>
<event>
    11  -1  1.0000000E+00  1.0000000E+00  -1.0000000E+00  -1.0000000E+00
	2212	-1	0	0	0	0	0.0000000000E+00	0.0000000000E+00	6.5000000000E+03	6.5000000000E+03	9.3827000000E-01	0.000E+00	0.0
	2212	-1	0	0	0	0	0.0000000000E+00	0.0000000000E+00	-6.5000000000E+03	6.5000000000E+03	9.3827000000E-01	0.000E+00	0.0
	2212	1	0	0	0	0	0.0000000000E+00	0.0000000000E+00	6.2063380762E+03	6.2063380762E+03	9.3827000000E-01	0.000E+00	0.0
	2212	1	0	0	0	0	0.0000000000E+00	0.0000000000E+00	-5.4017971356E+03	5.4017971356E+03	9.3827000000E-01	0.000E+00	0.0
	51	2	1	2	0	0	8.7562265609E+01	1.3225884730E+02	-6.1641088137E+02	1.3019690439E+03	1.1357823134E+03	0.000E+00	0.0
	1000022	2	5	5	0	0	-8.7562265609E+01	-1.3225884730E+02	-8.2339983531E+02	1.1889195326E+03	8.4284210455E+02	0.000E+00	0.0
	14	1	6	6	0	0	2.1331883278E+02	1.9742374492E+01	-3.8415302564E+02	5.4689416972E+02	3.2500000000E+02	0.000E+00	0.0
	-14	1	6	6	0	0	-3.0088109839E+02	-1.5200122179E+02	-4.3924680967E+02	6.4202536289E+02	3.2500000000E+02	0.000E+00	0.0
	25	2	5	5	0	0	8.7562265609E+01	1.3225884730E+02	1.8858894751E+01	2.0294525553E+02	1.2518612456E+02	0.000E+00	0.0
	-5	1	9	9	0	501	1.1906368613E+02	9.3459786083E+01	8.0048443215E+00	1.5163259182E+02	4.1800000000E+00	0.000E+00	0.0
	5	1	9	9	501	0	-3.1501420520E+01	3.8799061213E+01	1.0854050430E+01	5.1312663705E+01	4.1800000000E+00	0.000E+00	0.0
</event>
<event>
    11  -1  1.0000000E+00  1.0000000E+00  -1.0000000E+00  -1.0000000E+00
	2212	-1	0	0	0	0	0.0000000000E+00	0.0000000000E+00	6.5000000000E+03	6.5000000000E+03	9.3827000000E-01	0.000E+00	0.0
	2212	-1	0	0	0	0	0.0000000000E+00	0.0000000000E+00	-6.5000000000E+03	6.5000000000E+03	9.3827000000E-01	0.000E+00	0.0
	2212	1	0	0	0	0	0.0000000000E+00	0.0000000000E+00	6.0311478089E+03	6.0311478089E+03	9.3827000000E-01	0.000E+00	0.0
	2212	1	0	0	0	0	0.0000000000E+00	0.0000000000E+00	-5.9246106205E+03	5.9246106205E+03	9.3827000000E-01	0.000E+00	0.0
	51	2	1	2	0	0	1.2949484886E+02	-1.4005937320E+01	-1.0613362707E+02	1.0522925992E+03	1.0387927056E+03	0.000E+00	0.0
	1000022	2	5	5	0	0	-1.2949484886E+02	1.4005937320E+01	-8.9248212351E+01	8.6277426085E+02	8.4820345414E+02	0.000E+00	0.0
	14	1	6	6	0	0	5.6483556361E+01	1.3979683357E+01	2.0317152001E+02	3.8767188475E+02	3.2500000000E+02	0.000E+00	0.0
	-14	1	6	6	0	0	-1.8597840522E+02	2.6253962911E-02	-2.9241973236E+02	4.7510237610E+02	3.2500000000E+02	0.000E+00	0.0
	25	2	5	5	0	0	1.2949484886E+02	-1.4005937320E+01	-1.7288976053E+01	1.8146730977E+02	1.2516546512E+02	0.000E+00	0.0
	-5	1	9	9	0	501	-4.6171556704E+00	-1.5606861104E+01	-4.1808332079E+01	4.5058864514E+01	4.1800000000E+00	0.000E+00	0.0
	5	1	9	9	501	0	1.3411200453E+02	1.6009237837E+00	2.4519356027E+01	1.3640844525E+02	4.1800000000E+00	0.000E+00	0.0
</event>
<event>
    11  -1  1.0000000E+00  1.0000000E+00  -1.0000000E+00  -1.0000000E+00
	2212	-1	0	0	0	0	0.0000000000E+00	0.0000000000E+00	6.5000000000E+03	6.5000000000E+03	9.3827000000E-01	0.000E+00	0.0
	2212	-1	0	0	0	0	0.0000000000E+00	0.0000000000E+00	-6.5000000000E+03	6.5000000000E+03	9.3827000000E-01	0.000E+00	0.0
	2212	1	0	0	0	0	0.0000000000E+00	0.0000000000E+00	6.2207579149E+03	6.2207579149E+03	9.3827000000E-01	0.000E+00	0.0
	2212	1	0	0	0	0	0.0000000000E+00	0.0000000000E+00	-5.4937118678E+03	5.4937118678E+03	9.3827000000E-01	0.000E+00	0.0
	51	2	1	2	0	0	1.3634720012E+02	-5.9068268455E+01	-7.9864757744E+02	1.3356307713E+03	1.0601848824E+03	0.000E+00	0.0
	1000022	2	5	5	0	0	-1.3634720012E+02	5.9068268455E+01	-5.2541809074E+02	1.0055227676E+03	8.4435315284E+02	0.000E+00	0.0
	14	1	6	6	0	0	-3.0424466957E+02	-5.1989003023E+01	-4.0668624039E+02	6.0521597263E+02	3.2500000000E+02	0.000E+00	0.0
	-14	1	6	6	0	0	1.6789746945E+02	1.1105727148E+02	-1.1873185035E+02	4.0030679495E+02	3.2500000000E+02	0.000E+00	0.0
	25	2	5	5	0	0	1.3634720012E+02	-5.9068268455E+01	-2.0162795636E+02	2.8000744968E+02	1.2518274549E+02	0.000E+00	0.0
	-5	1	9	9	0	501	1.0010526652E+02	-3.6804307934E+01	-2.1081092351E+02	2.3629291005E+02	4.1800000000E+00	0.000E+00	0.0
	5	1	9	9	501	0	3.6241933603E+01	-2.2263960522E+01	9.1829671491E+00	4.3714539630E+01	4.1800000000E+00	0.000E+00	0.0
</event>
<event>
    11  -1  1.0000000E+00  1.0000000E+00  -1.0000000E+00  -1.0000000E+00
	2212	-1	0	0	0	0	0.0000000000E+00	0.0000000000E+00	6.5000000000E+03	6.5000000000E+03	9.3827000000E-01	0.000E+00	0.0
	2212	-1	0	0	0	0	0.0000000000E+00	0.0000000000E+00	-6.5000000000E+03	6.5000000000E+03	9.3827000000E-01	0.000E+00	0.0
	2212	1	0	0	0	0	0.0000000000E+00	0.0000000000E+00	6.1067753069E+03	6.1067753069E+03	9.3827000000E-01	0.000E+00	0.0
	2212	1	0	0	0	0	0.0000000000E+00	0.0000000000E+00	-5.8004503385E+03	5.8004503385E+03	9.3827000000E-01	0.000E+00	0.0
	51	2	1	2	0	0	1.3704556752E+01	-1.0922392413E+02	-3.6914763632E+02	1.1174562460E+03	1.0489617742E+03	0.000E+00	0.0
	1000022	2	5	5	0	0	-1.3704556752E+01	1.0922392413E+02	-1.9408733263E+02	8.9181101355E+02	8.6344618287E+02	0.000E+00	0.0
	14	1	6	6	0	0	-1.4727108555E+02	-1.3538394800E+02	-2.5554622286E+02	4.5928907894E+02	3.2500000000E+02	0.000E+00	0.0
	-14	1	6	6	0	0	1.3356652880E+02	2.4460787213E+02	6.1458890236E+01	4.3252193460E+02	3.2500000000E+02	0.000E+00	0.0
	25	2	5	5	0	0	1.3704556752E+01	-1.0922392413E+02	-1.1223763572E+02	2.0096334105E+02	1.2518505140E+02	0.000E+00	0.0
	-5	1	9	9	0	501	3.5123849833E+01	-1.3030542026E+02	-1.0095811412E+02	1.6859181648E+02	4.1800000000E+00	0.000E+00	0.0
	5	1	9	9	501	0	-2.1419293081E+01	2.1081496134E+01	-1.1279521599E+01	3.2371524568E+01	4.1800000000E+00	0.000E+00	0.0
</event>
<event>
    11  -1  1.0000000E+00  1.0000000E+00  -1.0000000E+00  -1.0000000E+00
	2212	-1	0	0	0	0	0.0000000000E+00	0.0000000000E+00	6.5000000000E+03	6.5000000000E+03	9.3827000000E-01	0.000E+00	0.0
	2212	-1	0	0	0	0	0.0000000000E+00	0.0000000000E+00	-6.5000000000E+03	6.5000000000E+03	9.3827000000E-01	0.000E+00	0.0
	2212	1	0	0	0	0	0.0000000000E+00	0.0000000000E+00	6.2095627621E+03	6.2095627621E+03	9.3827000000E-01	0.000E+00	0.0
	2212	1	0	0	0	0	0.0000000000E+00	0.0000000000E+00	-5.4876573788E+03	5.4876573788E+03	9.3827000000E-01	0.000E+00	0.0
	51	2	1	2	0	0	1.4548057134E+02	1.6970148712E+01	-8.5640908321E+02	1.3895960129E+03	1.0844759005E+03	0.000E+00	0.0
	1000022	2	5	5	0	0	-1.4548057134E+02	-1.6970148712E+01	-4.5155302952E+02	9.7080569113E+02	8.4682404836E+02	0.000E+00	0.0
	14	1	6	6	0	0	-3.4624614414E+02	-1.2695772417E+00	-2.1565919531E+02	5.2155718064E+02	3.2500000000E+02	0.000E+00	0.0
	-14	1	6	6	0	0	2.0076557279E+02	-1.5700571470E+01	-2.3589383421E+02	4.4924851049E+02	3.2500000000E+02	0.000E+00	0.0
	25	2	5	5	0	0	1.4548057134E+02	1.6970148712E+01	-2.7035235376E+02	3.3197416791E+02	1.2515538498E+02	0.000E+00	0.0
	-5	1	9	9	0	501	9.2645514097E+01	2.6581182105E+00	-2.6006682371E+02	2.7612041227E+02	4.1800000000E+00	0.000E+00	0.0
	5	1	9	9	501	0	5.2835057246E+01	1.4312030502E+01	-1.0285530051E+01	5.5853755645E+01	4.1800000000E+00	0.000E+00	0.0
</event>
<event>
    11  -1  1.0000000E+00  1.0000000E+00  -1.0000000E+00  -1.0000000E+00
	2212	-1	0	0	0	0	0.0000000000E+00	0.0000000000E+00	6.5000000000E+03	6.5000000000E+03	9.3827000000E-01	0.000E+00	0.0
	2212	-1	0	0	0	0	0.0000000000E+00	0.0000000000E+00	-6.5000000000E+03	6.5000000000E+03	9.3827000000E-01	0.000E+00	0.0
	2212	1	0	0	0	0	0.0000000000E+00	0.0000000000E+00	5.8543533673E+03	5.8543533673E+03	9.3827000000E-01	0.000E+00	0.0
	2212	1	0	0	0	0	0.0000000000E+00	0.0000000000E+00	-6.0713797569E+03	6.0713797569E+03	9.3827000000E-01	0.000E+00	0.0
	51	2	1	2	0	0	-1.3085585975E+02	-2.2205204111E+01	1.7220746466E+02	1.0743465943E+03	1.0521163750E+03	0.000E+00	0.0
	1000022	2	5	5	0	0	1.3085585975E+02	2.2205204111E+01	2.2497119630E+02	8.9166260807E+02	8.5254550632E+02	0.000E+00	0.0
	14	1	6	6	0	0	6.8167763192E+01	1.0868286393E+02	3.7987193049E+02	5.1612643066E+02	3.2500000000E+02	0.000E+00	0.0
	-14	1	6	6	0	0	6.2688096556E+01	-8.6477659823E+01	-1.5490073418E+02	3.7553617742E+02	3.2500000000E+02	0.000E+00	0.0
	25	2	5	5	0	0	-1.3085585975E+02	-2.2205204111E+01	-7.9448066327E+00	1.8260426773E+02	1.2515938447E+02	0.000E+00	0.0
	-5	1	9	9	0	501	-1.3791922331E+02	-4.5938156229E+01	1.7950539244E+01	1.4653231936E+02	4.1800000000E+00	0.000E+00	0.0
	5	1	9	9	501	0	7.0633635664E+00	2.3732952118E+01	-2.5895345877E+01	3.6071948369E+01	4.1800000000E+00	0.000E+00	0.0
</event>
<event>
    11  -1  1.0000000E+00  1.0000000E+00  -1.0000000E+00  -1.0000000E+00
	2212	-1	0	0	0	0	0.0000000000E+00	0.0000000000E+00	6.5000000000E+03	6.5000000000E+03	9.3827000000E-01	0.000E+00	0.0
	2212	-1	0	0	0	0	0.0000000000E+00	0.0000000000E+00	-6.5000000000E+03	6.5000000000E+03	9.3827000000E-01	0.000E+00	0.0
	2212	1	0	0	0	0	0.0000000000E+00	0.0000000000E+00	5.1449641553E+03	5.1449641553E+03	9.3827000000E-01	0.000E+00	0.0
	2212	1	0	0	0	0	0.0000000000E+00	0.0000000000E+00	-6.2957721609E+03	6.2957721609E+03	9.3827000000E-01	0.000E+00	0.0
	51	2	1	2	0	0	1.3237125028E+02	-3.9072647713E+01	1.1159186248E+03	1.5398919984E+03	1.0521141430E+03	0.000E+00	0.0
	1000022	2	5	5	0	0	-1.3237125028E+02	3.9072647713E+01	9.8951014431E+02	1.3128154928E+03	8.5164862049E+02	0.000E+00	0.0
	14	1	6	6	0	0	-4.6130967514E+01	-3.0013270613E+01	8.9941901625E+02	9.5791880103E+02	3.2500000000E+02	0.000E+00	0.0
	-14	1	6	6	0	0	-8.6240282764E+01	6.9085918327E+01	9.0091128059E+01	3.5489669178E+02	3.2500000000E+02	0.000E+00	0.0
	25	2	5	5	0	0	1.3237125028E+02	-3.9072647713E+01	1.6129786128E+02	2.4644819098E+02	1.2518342975E+02	0.000E+00	0.0
	-5	1	9	9	0	501	-2.3914139657E+00	-3.7524356878E+01	8.1287620464E+01	8.9660168752E+01	4.1800000000E+00	0.000E+00	0.0
	5	1	9	9	501	0	1.3476266424E+02	-1.5482908353E+00	8.0010240819E+01	1.5678802223E+02	4.1800000000E+00	0.000E+00	0.0
</event>
<event>
    11  -1  1.0000000E+00  1.0000000E+00  -1.0000000E+00  -1.0000000E+00
	2212	-1	0	0	0	0	0.0000000000E+00	0.0000000000E+00	6.5000000000E+03	6.5000000000E+03	9.3827000000E-01	0.000E+00	0.0
	2212	-1	0	0	0	0	0.0000000000E+00	0.0000000000E+00	-6.5000000000E+03	6.5000000000E+03	9.3827000000E-01	0.000E+00	0.0
	2212	1	0	0	0	0	0.0000000000E+00	0.0000000000E+00	5.7359585528E+03	5.7359585528E+03	9.3827000000E-01	0.000E+00	0.0
	2212	1	0	0	0	0	0.0000000000E+00	0.0000000000E+00	-6.1401955314E+03	6.1401955314E+03	9.3827000000E-01	0.000E+00	0.0
	51	2	1	2	0	0	-8.1808926131E+00	8.1213859260E+01	3.0605565108E+02	1.0954244780E+03	1.0486286795E+03	0.000E+00	0.0
	1000022	2	5	5	0	0	8.1808926131E+00	-8.1213859260E+01	4.3715297548E+02	9.7081889827E+02	8.6297392273E+02	0.000E+00	0.0
	14	1	6	6	0	0	2.6923048611E+02	5.5833342158E+01	2.5067546571E+02	4.9402996453E+02	3.2500000000E+02	0.000E+00	0.0
	-14	1	6	6	0	0	-2.6104959350E+02	-1.3704720142E+02	1.8647750977E+02	4.7678893373E+02	3.2500000000E+02	0.000E+00	0.0
	25	2	5	5	0	0	-8.1808926131E+00	8.1213859260E+01	-3.2915996863E+01	1.5302701748E+02	1.2518461283E+02	0.000E+00	0.0
	-5	1	9	9	0	501	-3.6952153918E+00	5.4103758371E+00	-6.8587018467E+01	6.9025924736E+01	4.1800000000E+00	0.000E+00	0.0
	5	1	9	9	501	0	-4.4856772213E+00	7.5803483423E+01	3.5671021604E+01	8.4001092740E+01	4.1800000000E+00	0.000E+00	0.0
</event>
<event>
    11  -1  1.0000000E+00  1.0000000E+00  -1.0000000E+00  -1.0000000E+00
	2212	-1	0	0	0	0	0.0000000000E+00	0.0000000000E+00	6.5000000000E+03	6.5000000000E+03	9.3827000000E-01	0.000E+00	0.0
	2212	-1	0	0	0	0	0.0000000000E+00	0.0000000000E+00	-6.5000000000E+03	6.5000000000E+03	9.3827000000E-01	0.000E+00	0.0
	2212	1	0	0	0	0	0.0000000000E+00	0.0000000000E+00	6.0243321773E+03	6.0243321773E+03	9.3827000000E-01	0.000E+00	0.0
	2212	1	0	0	0	0	0.0000000000E+00	0.0000000000E+00	-5.9220790243E+03	5.9220790243E+03	9.3827000000E-01	0.000E+00	0.0
	51	2	1	2	0	0	-1.0634786402E+02	8.4474352369E+01	-9.0558003985E+01	1.0612446396E+03	1.0486151099E+03	0.000E+00	0.0
	1000022	2	5	5	0	0	1.0634786402E+02	-8.4474352369E+01	-9.6757859340E+01	8.6880729110E+02	8.5265364676E+02	0.000E+00	0.0
	14	1	6	6	0	0	-2.0240855727E+02	3.0593885352E+01	4.0096705158E+01	3.8618383659E+02	3.2500000000E+02	0.000E+00	0.0
	-14	1	6	6	0	0	3.0875642129E+02	-1.1506823772E+02	-1.3685456450E+02	4.8262345451E+02	3.2500000000E+02	0.000E+00	0.0
	25	2	5	5	0	0	-1.0634786402E+02	8.4474352369E+01	-5.4952936492E+00	1.8478150724E+02	1.2517277170E+02	0.000E+00	0.0
	-5	1	9	9	0	501	2.6735268638E+01	3.0226946037E+01	3.5294512512E+00	4.0723117293E+01	4.1800000000E+00	0.000E+00	0.0
	5	1	9	9	501	0	-1.3308313266E+02	5.4247406332E+01	-9.0247449004E+00	1.4405838995E+02	4.1800000000E+00	0.000E+00	0.0
</event>
<event>
    11  -1  1.0000000E+00  1.0000000E+00  -1.0000000E+00  -1.0000000E+00
	2212	-1	0	0	0	0	0.0000000000E+00	0.0000000000E+00	6.5000000000E+03	6.5000000000E+03	9.3827000000E-01	0.000E+00	0.0
	2212	-1	0	0	0	0	0.0000000000E+00	0.0000000000E+00	-6.5000000000E+03	6.5000000000E+03	9.3827000000E-01	0.000E+00	0.0
	2212	1	0	0	0	0	0.0000000000E+00	0.0000000000E+00	5.8461039298E+03	5.8461039298E+03	9.3827000000E-01	0.000E+00	0.0
	2212	1	0	0	0	0	0.0000000000E+00	0.0000000000E+00	-6.0807547664E+03	6.0807547664E+03	9.3827000000E-01	0.000E+00	0.0
	51	2	1	2	0	0	1.3744158657E+02	-6.6882992430E+00	2.1752848843E+02	1.0783435488E+03	1.0471729766E+03	0.000E+00	0.0
	1000022	2	5	5	0	0	-1.3744158657E+02	6.6882992430E+00	2.1193263924E+02	8.8573414749E+02	8.4892556410E+02	0.000E+00	0.0
	14	1	6	6	0	0	1.7831951560E+01	9.8610582865E+01	-1.4561284859E+02	3.6995962918E+02	3.2500000000E+02	0.000E+00	0.0
	-14	1	6	6	0	0	-1.5527353813E+02	-9.1922283622E+01	3.5754548783E+02	5.1577451831E+02	3.2500000000E+02	0.000E+00	0.0
	25	2	5	5	0	0	1.3744158657E+02	-6.6882992430E+00	2.2718197314E+01	1.8740715634E+02	1.2518147904E+02	0.000E+00	0.0
	-5	1	9	9	0	501	2.8867015569E+01	-4.1424046923E+01	-3.2991660703E+01	6.0458070820E+01	4.1800000000E+00	0.000E+00	0.0
	5	1	9	9	501	0	1.0857457100E+02	3.4735747680E+01	5.5709858017E+01	1.2694908552E+02	4.1800000000E+00	0.000E+00	0.0
</event>
<event>
    11  -1  1.0000000E+00  1.0000000E+00  -1.0000000E+00  -1.0000000E+00
	2212	-1	0	0	0	0	0.0000000000E+00	0.0000000000E+00	6.5000000000E+03	6.5000000000E+03	9.3827000000E-01	0.000E+00	0.0
	2212	-1	0	0	0	0	0.0000000000E+00	0.0000000000E+00	-6.5000000000E+03	6.5000000000E+03	9.3827000000E-01	0.000E+00	0.0
	2212	1	0	0	0	0	0.0000000000E+00	0.0000000000E+00	5.8412338104E+03	5.8412338104E+03	9.3827000000E-01	0.000E+00	0.0
	2212	1	0	0	0	0	0.0000000000E+00	0.0000000000E+00	-6.0791018226E+03	6.0791018226E+03	9.3827000000E-01	0.000E+00	0.0
	51	2	1	2	0	0	5.7289090801E+01	9.4526691748E+01	3.2033803869E+02	1.1063126812E+03	1.0531352972E+03	0.000E+00	0.0
	1000022	2	5	5	0	0	-5.7289090801E+01	-9.4526691748E+01	1.1568001897E+02	8.7273929790E+02	8.5794794710E+02	0.000E+00	0.0
	14	1	6	6	0	0	-1.8888540030E+02	1.1457115651E+02	-1.0757886657E+02	4.0743399083E+02	3.2500000000E+02	0.000E+00	0.0
	-14	1	6	6	0	0	1.3159630950E+02	-2.0909784825E+02	2.2325888554E+02	4.6530530707E+02	3.2500000000E+02	0.000E+00	0.0
	25	2	5	5	0	0	5.7289090801E+01	9.4526691748E+01	1.2218799319E+02	2.0692506915E+02	1.2518283902E+02	0.000E+00	0.0
	-5	1	9	9	0	501	1.7909663908E+01	1.1393817063E+02	1.1370299633E+02	1.6201390855E+02	4.1800000000E+00	0.000E+00	0.0
	5	1	9	9	501	0	3.9379426893E+01	-1.9411478883E+01	8.4849968575E+00	4.4911160601E+01	4.1800000000E+00	0.000E+00	0.0
</event>
<event>
    11  -1  1.0000000E+00  1.0000000E+00  -1.0000000E+00  -1.0000000E+00
	2212	-1	0	0	0	0	0.0000000000E+00	0.0000000000E+00	6.5000000000E+03	6.5000000000E+03	9.3827000000E-01	0.000E+00	0.0
	2212	-1	0	0	0	0	0.0000000000E+00	0.0000000000E+00	-6.5000000000E+03	6.5000000000E+03	9.3827000000E-01	0.000E+00	0.0
	2212	1	0	0	0	0	0.0000000000E+00	0.0000000000E+00	5.5916377564E+03	5.5916377564E+03	9.3827000000E-01	0.000E+00	0.0
	2212	1	0	0	0	0	0.0000000000E+00	0.0000000000E+00	-6.1916746863E+03	6.1916746863E+03	9.3827000000E-01	0.000E+00	0.0
	51	2	1	2	0	0	1.7336707172E+02	1.8433958418E+02	5.0465522547E+02	1.1995826005E+03	1.0584348327E+03	0.000E+00	0.0
	1000022	2	5	5	0	0	-1.7336707172E+02	-1.8433958418E+02	5.4513803257E+02	9.2907037288E+02	7.0849069109E+02	0.000E+00	0.0
	14	1	6	6	0	0	5.5408987812E+01	-5.5661799243E+01	2.3133962196E+02	4.0658506184E+02	3.2500000000E+02	0.000E+00	0.0
	-14	1	6	6	0	0	-2.2877605953E+02	-1.2867778493E+02	3.1379841062E+02	5.2248531104E+02	3.2500000000E+02	0.000E+00	0.0
	25	2	5	5	0	0	1.7336707172E+02	1.8433958418E+02	5.4898897253E+01	2.8761718443E+02	1.2518998367E+02	0.000E+00	0.0
	-5	1	9	9	0	501	1.0424983467E+02	1.3050734809E+02	9.3861963258E+01	1.9164481855E+02	4.1800000000E+00	0.000E+00	0.0
	5	1	9	9	501	0	6.9117237050E+01	5.3832236092E+01	-3.8963066004E+01	9.5972365879E+01	4.1800000000E+00	0.000E+00	0.0
</event>
<event>
    11  -1  1.0000000E+00  1.0000000E+00  -1.0000000E+00  -1.0000000E+00
	2212	-1	0	0	0	0	0.0000000000E+00	0.0000000000E+00	6.5000000000E+03	6.5000000000E+03	9.3827000000E-01	0.000E+00	0.0
	2212	-1	0	0	0	0	0.0000000000E+00	0.0000000000E+00	-6.5000000000E+03	6.5000000000E+03	9.3827000000E-01	0.000E+00	0.0
	2212	1	0	0	0	0	0.0000000000E+00	0.0000000000E+00	6.1925560662E+03	6.1925560662E+03	9.3827000000E-01	0.000E+00	0.0
	2212	1	0	0	0	0	0.0000000000E+00	0.0000000000E+00	-5.6005943541E+03	5.6005943541E+03	9.3827000000E-01	0.000E+00	0.0
	51	2	1	2	0	0	9.3201417092E+01	7.1840334460E+01	-7.0391942728E+02	1.2709906912E+03	1.0516973135E+03	0.000E+00	0.0
	1000022	2	5	5	0	0	-9.3201417092E+01	-7.1840334460E+01	-3.7616719807E+02	9.3101336260E+02	8.4346700151E+02	0.000E+00	0.0
	14	1	6	6	0	0	-1.7228715726E+02	1.9992407588E+02	-2.1728597428E+02	4.7168919353E+02	3.2500000000E+02	0.000E+00	0.0
	-14	1	6	6	0	0	7.9085740165E+01	-2.7176441034E+02	-1.5888122379E+02	4.5932416908E+02	3.2500000000E+02	0.000E+00	0.0
	25	2	5	5	0	0	9.3201417092E+01	7.1840334460E+01	-2.1579451404E+02	2.7583621703E+02	1.2518310003E+02	0.000E+00	0.0
	-5	1	9	9	0	501	7.5339879185E+01	1.4152861172E+01	-3.3515421815E+01	8.3768471244E+01	4.1800000000E+00	0.000E+00	0.0
	5	1	9	9	501	0	1.7861537907E+01	5.7687473287E+01	-1.8227909222E+02	1.9206774579E+02	4.1800000000E+00	0.000E+00	0.0
</event>
<event>
    11  -1  1.0000000E+00  1.0000000E+00  -1.0000000E+00  -1.0000000E+00
	2212	-1	0	0	0	0	0.0000000000E+00	0.0000000000E+00	6.5000000000E+03	6.5000000000E+03	9.3827000000E-01	0.000E+00	0.0
	2212	-1	0	0	0	0	0.0000000000E+00	0.0000000000E+00	-6.5000000000E+03	6.5000000000E+03	9.3827000000E-01	0.000E+00	0.0
	2212	1	0	0	0	0	0.0000000000E+00	0.0000000000E+00	6.2116924732E+03	6.2116924732E+03	9.3827000000E-01	0.000E+00	0.0
	2212	1	0	0	0	0	0.0000000000E+00	0.0000000000E+00	-5.5403101784E+03	5.5403101784E+03	9.3827000000E-01	0.000E+00	0.0
	51	2	1	2	0	0	-7.2349330113E+01	4.1973386157E+01	-8.4563326260E+02	1.3523442614E+03	1.0520186291E+03	0.000E+00	0.0
	1000022	2	5	5	0	0	7.2349330113E+01	-4.1973386157E+01	-3.7390338828E+02	9.1458848092E+02	8.3046502332E+02	0.000E+00	0.0
	14	1	6	6	0	0	1.1248333141E+02	2.1034019611E+02	-8.9915712977E+01	4.1304398481E+02	3.2500000000E+02	0.000E+00	0.0
	-14	1	6	6	0	0	-4.0134001300E+01	-2.5231358227E+02	-2.8398767531E+02	5.0154449612E+02	3.2500000000E+02	0.000E+00	0.0
	25	2	5	5	0	0	-7.2349330113E+01	4.1973386157E+01	-2.9747890645E+02	3.3340886747E+02	1.2518619098E+02	0.000E+00	0.0
	-5	1	9	9	0	501	-6.3552788835E-01	4.6962089920E+01	-2.8808867333E+01	5.5256357303E+01	4.1800000000E+00	0.000E+00	0.0
	5	1	9	9	501	0	-7.1713802224E+01	-4.9887037626E+00	-2.6867003912E+02	2.7815251017E+02	4.1800000000E+00	0.000E+00	0.0
</event>
<event>
    11  -1  1.0000000E+00  1.0000000E+00  -1.0000000E+00  -1.0000000E+00
	2212	-1	0	0	0	0	0.0000000000E+00	0.0000000000E+00	6.5000000000E+03	6.5000000000E+03	9.3827000000E-01	0.000E+00	0.0
	2212	-1	0	0	0	0	0.0000000000E+00	0.0000000000E+00	-6.5000000000E+03	6.5000000000E+03	9.3827000000E-01	0.000E+00	0.0
	2212	1	0	0	0	0	0.0000000000E+00	0.0000000000E+00	6.1333741420E+03	6.1333741420E+03	9.3827000000E-01	0.000E+00	0.0
	2212	1	0	0	0	0	0.0000000000E+00	0.0000000000E+00	-5.7444169782E+03	5.7444169782E+03	9.3827000000E-01	0.000E+00	0.0
	51	2	1	2	0	0	1.3647168850E+02	1.2408851136E+02	-4.0983367884E+02	1.1445746893E+03	1.0526467094E+03	0.000E+00	0.0
	1000022	2	5	5	0	0	-1.3647168850E+02	-1.2408851136E+02	-2.9151184688E+02	8.7892879661E+02	8.0840224655E+02	0.000E+00	0.0
	14	1	6	6	0	0	7.3415419597E+01	7.2068640146E+01	-2.8623466132E+02	4.4512806480E+02	3.2500000000E+02	0.000E+00	0.0
	-14	1	6	6	0	0	-2.0988710810E+02	-1.9615715150E+02	-5.2771855519E+00	4.3380073181E+02	3.2500000000E+02	0.000E+00	0.0
	25	2	5	5	0	0	1.3647168850E+02	1.2408851136E+02	-9.7445316908E+01	2.4328008325E+02	1.2516840139E+02	0.000E+00	0.0
	-5	1	9	9	0	501	6.6292431658E+01	-6.4319822015E+00	-1.6166367995E+00	6.6754346710E+01	4.1800000000E+00	0.000E+00	0.0
	5	1	9	9	501	0	7.0179256843E+01	1.3052049356E+02	-9.5828680109E+01	1.7652573654E+02	4.1800000000E+00	0.000E+00	0.0
</event>
<event>
    11  -1  1.0000000E+00  1.0000000E+00  -1.0000000E+00  -1.0000000E+00
	2212	-1	0	0	0	0	0.0000000000E+00	0.0000000000E+00	6.5000000000E+03	6.5000000000E+03	9.3827000000E-01	0.000E+00	0.0
	2212	-1	0	0	0	0	0.0000000000E+00	0.0000000000E+00	-6.5000000000E+03	6.5000000000E+03	9.3827000000E-01	0.000E+00	0.0
	2212	1	0	0	0	0	0.0000000000E+00	0.0000000000E+00	5.0071194920E+03	5.0071194920E+03	9.3827000000E-01	0.000E+00	0.0
	2212	1	0	0	0	0	0.0000000000E+00	0.0000000000E+00	-6.3164924309E+03	6.3164924309E+03	9.3827000000E-01	0.000E+00	0.0
	51	2	1	2	0	0	5.9889015540E+01	8.5923600178E+01	1.2735738951E+03	1.6519017880E+03	1.0468139719E+03	0.000E+00	0.0
	1000022	2	5	5	0	0	-5.9889015540E+01	-8.5923600178E+01	1.1452616179E+03	1.4449294460E+03	8.7477275418E+02	0.000E+00	0.0
	14	1	6	6	0	0	-1.0572879674E+02	-3.2139922684E+02	5.1822679770E+02	6.9904224145E+02	3.2500000000E+02	0.000E+00	0.0
	-14	1	6	6	0	0	4.5839781200E+01	2.3547562666E+02	6.2703482016E+02	7.4588720460E+02	3.2500000000E+02	0.000E+00	0.0
	25	2	5	5	0	0	5.9889015540E+01	8.5923600178E+01	1.6411132108E+02	2.3145863105E+02	1.2518391643E+02	0.000E+00	0.0
	-5	1	9	9	0	501	-1.8325194073E+01	6.2806337615E+00	-1.1809521485E+01	2.3069380052E+01	4.1800000000E+00	0.000E+00	0.0
	5	1	9	9	501	0	7.8214209613E+01	7.9642966417E+01	1.7592084256E+02	2.0838925100E+02	4.1800000000E+00	0.000E+00	0.0
</event>
<event>
    11  -1  1.0000000E+00  1.0000000E+00  -1.0000000E+00  -1.0000000E+00
	2212	-1	0	0	0	0	0.0000000000E+00	0.0000000000E+00	6.5000000000E+03	6.5000000000E+03	9.3827000000E-01	0.000E+00	0.0
	2212	-1	0	0	0	0	0.0000000000E+00	0.0000000000E+00	-6.5000000000E+03	6.5000000000E+03	9.3827000000E-01	0.000E+00	0.0
	2212	1	0	0	0	0	0.0000000000E+00	0.0000000000E+00	6.0207426815E+03	6.0207426815E+03	9.3827000000E-01	0.000E+00	0.0
	2212	1	0	0	0	0	0.0000000000E+00	0.0000000000E+00	-5.9196423860E+03	5.9196423860E+03	9.3827000000E-01	0.000E+00	0.0
	51	2	1	2	0	0	-1.2168321207E+02	5.2281886992E+01	-1.2474652892E+02	1.0703571515E+03	1.0547807997E+03	0.000E+00	0.0
	1000022	2	5	5	0	0	1.2168321207E+02	-5.2281886992E+01	-6.0668517733E+01	8.7294628879E+02	8.6070573035E+02	0.000E+00	0.0
	14	1	6	6	0	0	1.3033560133E+02	2.4562584233E+02	-6.0536104756E+01	4.3198268874E+02	3.2500000000E+02	0.000E+00	0.0
	-14	1	6	6	0	0	-8.6523892563E+00	-2.9790772932E+02	-1.3241297662E-01	4.4096360004E+02	3.2500000000E+02	0.000E+00	0.0
	25	2	5	5	0	0	-1.2168321207E+02	5.2281886992E+01	-4.0431777816E+01	1.8666864375E+02	1.2518088550E+02	0.000E+00	0.0
	-5	1	9	9	0	501	-2.7822096522E+01	7.8070330325E+01	-3.1757698412E+01	8.8854202716E+01	4.1800000000E+00	0.000E+00	0.0
	5	1	9	9	501	0	-9.3861115550E+01	-2.5788443333E+01	-8.6740794039E+00	9.7814441037E+01	4.1800000000E+00	0.000E+00	0.0
</event>
<event>
    11  -1  1.0000000E+00  1.0000000E+00  -1.0000000E+00  -1.0000000E+00
	2212	-1	0	0	0	0	0.0000000000E+00	0.0000000000E+00	6.5000000000E+03	6.5000000000E+03	9.3827000000E-01	0.000E+00	0.0
	2212	-1	0	0	0	0	0.0000000000E+00	0.0000000000E+00	-6.5000000000E+03	6.5000000000E+03	9.3827000000E-01	0.000E+00	0.0
	2212	1	0	0	0	0	0.0000000000E+00	0.0000000000E+00	6.0141763082E+03	6.0141763082E+03	9.3827000000E-01	0.000E+00	0.0
	2212	1	0	0	0	0	0.0000000000E+00	0.0000000000E+00	-5.9306828289E+03	5.9306828289E+03	9.3827000000E-01	0.000E+00	0.0
	51	2	1	2	0	0	4.6110176051E+01	1.3874975549E+02	-1.6263549776E+02	1.0743272442E+03	1.0518322487E+03	0.000E+00	0.0
	1000022	2	5	5	0	0	-4.6110176051E+01	-1.3874975549E+02	1.1100790394E+01	8.4067813400E+02	8.2779155254E+02	0.000E+00	0.0
	14	1	6	6	0	0	4.0086549886E+01	-2.0912040314E+02	-2.0049324437E+02	4.3721941349E+02	3.2500000000E+02	0.000E+00	0.0
	-14	1	6	6	0	0	-8.6196725937E+01	7.0370647652E+01	2.1159403476E+02	4.0345872052E+02	3.2500000000E+02	0.000E+00	0.0
	25	2	5	5	0	0	4.6110176051E+01	1.3874975549E+02	-9.4594269689E+01	2.1446272890E+02	1.2517405181E+02	0.000E+00	0.0
	-5	1	9	9	0	501	-1.4581661762E+01	5.9576092603E+01	1.7918302766E+01	6.4034940802E+01	4.1800000000E+00	0.000E+00	0.0
	5	1	9	9	501	0	6.0691837813E+01	7.9173662889E+01	-1.1251257246E+02	1.5042778810E+02	4.1800000000E+00	0.000E+00	0.0
</event>
<event>
    11  -1  1.0000000E+00  1.0000000E+00  -1.0000000E+00  -1.0000000E+00
	2212	-1	0	0	0	0	0.0000000000E+00	0.0000000000E+00	6.5000000000E+03	6.5000000000E+03	9.3827000000E-01	0.000E+00	0.0
	2212	-1	0	0	0	0	0.0000000000E+00	0.0000000000E+00	-6.5000000000E+03	6.5000000000E+03	9.3827000000E-01	0.000E+00	0.0
	2212	1	0	0	0	0	0.0000000000E+00	0.0000000000E+00	5.2217182318E+03	5.2217182318E+03	9.3827000000E-01	0.000E+00	0.0
	2212	1	0	0	0	0	0.0000000000E+00	0.0000000000E+00	-6.2773223739E+03	6.2773223739E+03	9.3827000000E-01	0.000E+00	0.0
	51	2	1	2	0	0	-4.0370650629E+01	5.8640404899E+01	8.4770737193E+02	1.3646447425E+03	1.0670421727E+03	0.000E+00	0.0
	1000022	2	5	5	0	0	4.0370650629E+01	-5.8640404899E+01	1.0660700775E+03	1.3565479154E+03	8.3585187093E+02	0.000E+00	0.0
	14	1	6	6	0	0	2.0313289322E+02	-1.9420878324E+02	7.1050298017E+02	8.3031289803E+02	3.2500000000E+02	0.000E+00	0.0
	-14	1	6	6	0	0	-1.6276224259E+02	1.3556837835E+02	3.5556709734E+02	5.2623501739E+02	3.2500000000E+02	0.000E+00	0.0
	25	2	5	5	0	0	-4.0370650629E+01	5.8640404899E+01	-1.0465935375E+01	1.4441147885E+02	1.2520644113E+02	0.000E+00	0.0
	-5	1	9	9	0	501	-7.1269807634E+01	2.9330790574E+01	3.2522076043E+01	8.3754633221E+01	4.1800000000E+00	0.000E+00	0.0
	5	1	9	9	501	0	3.0899157005E+01	2.9309614325E+01	-4.2988011418E+01	6.0656845625E+01	4.1800000000E+00	0.000E+00	0.0
</event>
<event>
    11  -1  1.0000000E+00  1.0000000E+00  -1.0000000E+00  -1.0000000E+00
	2212	-1	0	0	0	0	0.0000000000E+00	0.0000000000E+00	6.5000000000E+03	6.5000000000E+03	9.3827000000E-01	0.000E+00	0.0
	2212	-1	0	0	0	0	0.0000000000E+00	0.0000000000E+00	-6.5000000000E+03	6.5000000000E+03	9.3827000000E-01	0.000E+00	0.0
	2212	1	0	0	0	0	0.0000000000E+00	0.0000000000E+00	6.0769968618E+03	6.0769968618E+03	9.3827000000E-01	0.000E+00	0.0
	2212	1	0	0	0	0	0.0000000000E+00	0.0000000000E+00	-5.8454373919E+03	5.8454373919E+03	9.3827000000E-01	0.000E+00	0.0
	51	2	1	2	0	0	8.9417671473E+01	-6.0679087113E+01	-1.9783246288E+02	1.0762635850E+03	1.0523916331E+03	0.000E+00	0.0
	1000022	2	5	5	0	0	-8.9417671473E+01	6.0679087113E+01	-2.2946588761E+02	9.1217621522E+02	8.7620396167E+02	0.000E+00	0.0
	14	1	6	6	0	0	1.2796374756E+02	-2.4400655651E+01	-3.4919309259E+02	4.9450068615E+02	3.2500000000E+02	0.000E+00	0.0
	-14	1	6	6	0	0	-2.1738141904E+02	8.5079742764E+01	1.1972720498E+02	4.1767552907E+02	3.2500000000E+02	0.000E+00	0.0
	25	2	5	5	0	0	8.9417671473E+01	-6.0679087113E+01	-2.0935822203E+00	1.6538953106E+02	1.2518722903E+02	0.000E+00	0.0
	-5	1	9	9	0	501	2.5055764276E+01	3.7102942528E+01	1.4130737665E+01	4.7133531744E+01	4.1800000000E+00	0.000E+00	0.0
	5	1	9	9	501	0	6.4361907196E+01	-9.7782029641E+01	-1.6224319885E+01	1.1825599932E+02	4.1800000000E+00	0.000E+00	0.0
</event>
<event>
    11  -1  1.0000000E+00  1.0000000E+00  -1.0000000E+00  -1.0000000E+00
	2212	-1	0	0	0	0	0.0000000000E+00	0.0000000000E+00	6.5000000000E+03	6.5000000000E+03	9.3827000000E-01	0.000E+00	0.0
	2212	-1	0	0	0	0	0.0000000000E+00	0.0000000000E+00	-6.5000000000E+03	6.5000000000E+03	9.3827000000E-01	0.000E+00	0.0
	2212	1	0	0	0	0	0.0000000000E+00	0.0000000000E+00	5.9025372214E+03	5.9025372214E+03	9.3827000000E-01	0.000E+00	0.0
	2212	1	0	0	0	0	0.0000000000E+00	0.0000000000E+00	-6.0424284388E+03	6.0424284388E+03	9.3827000000E-01	0.000E+00	0.0
	51	2	1	2	0	0	4.0505233580E+01	5.8732783832E+01	2.6101748856E+02	1.0801612142E+03	1.0457188463E+03	0.000E+00	0.0
	1000022	2	5	5	0	0	-4.0505233580E+01	-5.8732783832E+01	-4.9968240380E+00	8.5070047724E+02	8.4768869278E+02	0.000E+00	0.0
	14	1	6	6	0	0	-2.2272153899E+02	1.0009791773E+02	-1.3003846085E+02	4.2680145075E+02	3.2500000000E+02	0.000E+00	0.0
	-14	1	6	6	0	0	1.8221630541E+02	-1.5883070156E+02	1.2504163681E+02	4.2389902648E+02	3.2500000000E+02	0.000E+00	0.0
	25	2	5	5	0	0	4.0505233580E+01	5.8732783832E+01	1.4488804150E+02	2.0433386255E+02	1.2517814894E+02	0.000E+00	0.0
	-5	1	9	9	0	501	1.7698901923E+01	5.6935772661E+01	1.6379673845E+02	1.7436105432E+02	4.1800000000E+00	0.000E+00	0.0
	5	1	9	9	501	0	2.2806331657E+01	1.7970111709E+00	-1.8908696950E+01	2.9972808229E+01	4.1800000000E+00	0.000E+00	0.0
</event>
<event>
    11  -1  1.0000000E+00  1.0000000E+00  -1.0000000E+00  -1.0000000E+00
	2212	-1	0	0	0	0	0.0000000000E+00	0.0000000000E+00	6.5000000000E+03	6.5000000000E+03	9.3827000000E-01	0.000E+00	0.0
	2212	-1	0	0	0	0	0.0000000000E+00	0.0000000000E+00	-6.5000000000E+03	6.5000000000E+03	9.3827000000E-01	0.000E+00	0.0
	2212	1	0	0	0	0	0.0000000000E+00	0.0000000000E+00	6.3115156960E+03	6.3115156960E+03	9.3827000000E-01	0.000E+00	0.0
	2212	1	0	0	0	0	0.0000000000E+00	0.0000000000E+00	-5.0369520011E+03	5.0369520011E+03	9.3827000000E-01	0.000E+00	0.0
	51	2	1	2	0	0	1.0779502141E+02	-1.7987070602E+01	-1.1398998380E+03	1.5538215075E+03	1.0502601274E+03	0.000E+00	0.0
	1000022	2	5	5	0	0	-1.0779502141E+02	1.7987070602E+01	-1.1898793993E+03	1.4650199082E+03	8.4765974610E+02	0.000E+00	0.0
	14	1	6	6	0	0	-1.9593774593E+02	2.1845518664E+02	-4.5074511532E+02	6.2841899067E+02	3.2500000000E+02	0.000E+00	0.0
	-14	1	6	6	0	0	8.8142724518E+01	-2.0046811603E+02	-7.3913428402E+02	8.3660091755E+02	3.2500000000E+02	0.000E+00	0.0
	25	2	5	5	0	0	1.0779502141E+02	-1.7987070602E+01	-8.4684295498E+01	1.8651239464E+02	1.2518842639E+02	0.000E+00	0.0
	-5	1	9	9	0	501	1.2479022196E+02	-3.9076963422E+01	-4.5141896639E+01	1.3840112644E+02	4.1800000000E+00	0.000E+00	0.0
	5	1	9	9	501	0	-1.6995200550E+01	2.1089892819E+01	-3.9542398859E+01	4.8111268206E+01	4.1800000000E+00	0.000E+00	0.0
</event>
<event>
    11  -1  1.0000000E+00  1.0000000E+00  -1.0000000E+00  -1.0000000E+00
	2212	-1	0	0	0	0	0.0000000000E+00	0.0000000000E+00	6.5000000000E+03	6.5000000000E+03	9.3827000000E-01	0.000E+00	0.0
	2212	-1	0	0	0	0	0.0000000000E+00	0.0000000000E+00	-6.5000000000E+03	6.5000000000E+03	9.3827000000E-01	0.000E+00	0.0
	2212	1	0	0	0	0	0.0000000000E+00	0.0000000000E+00	5.8943289322E+03	5.8943289322E+03	9.3827000000E-01	0.000E+00	0.0
	2212	1	0	0	0	0	0.0000000000E+00	0.0000000000E+00	-6.0457818123E+03	6.0457818123E+03	9.3827000000E-01	0.000E+00	0.0
	51	2	1	2	0	0	1.5127499957E+02	-7.5293612023E+01	1.2978710997E+02	1.0704322521E+03	1.0490125161E+03	0.000E+00	0.0
	1000022	2	5	5	0	0	-1.5127499957E+02	7.5293612023E+01	1.4455883202E+02	8.4948050202E+02	8.1985767904E+02	0.000E+00	0.0
	14	1	6	6	0	0	4.2441351735E+01	4.9816695008E+01	-1.5524597513E+02	3.6607278543E+02	3.2500000000E+02	0.000E+00	0.0
	-14	1	6	6	0	0	-1.9371635131E+02	2.5476917015E+01	2.9980480715E+02	4.8340771659E+02	3.2500000000E+02	0.000E+00	0.0
	25	2	5	5	0	0	1.5127499957E+02	-7.5293612023E+01	6.8940481022E+00	2.1040875342E+02	1.2518411285E+02	0.000E+00	0.0
	-5	1	9	9	0	501	8.2351537661E+01	-8.4547973671E+01	5.0256715081E+01	1.2834853103E+02	4.1800000000E+00	0.000E+00	0.0
	5	1	9	9	501	0	6.8923461910E+01	9.2543616483E+00	-4.3362666979E+01	8.2060222390E+01	4.1800000000E+00	0.000E+00	0.0
</event>
<event>
    11  -1  1.0000000E+00  1.0000000E+00  -1.0000000E+00  -1.0000000E+00
	2212	-1	0	0	0	0	0.0000000000E+00	0.0000000000E+00	6.5000000000E+03	6.5000000000E+03	9.3827000000E-01	0.000E+00	0.0
	2212	-1	0	0	0	0	0.0000000000E+00	0.0000000000E+00	-6.5000000000E+03	6.5000000000E+03	9.3827000000E-01	0.000E+00	0.0
	2212	1	0	0	0	0	0.0000000000E+00	0.0000000000E+00	6.0123515379E+03	6.0123515379E+03	9.3827000000E-01	0.000E+00	0.0
	2212	1	0	0	0	0	0.0000000000E+00	0.0000000000E+00	-5.9232826381E+03	5.9232826381E+03	9.3827000000E-01	0.000E+00	0.0
	51	2	1	2	0	0	-7.1295590374E+01	4.0481729154E+01	2.6362715872E+01	1.0641231897E+03	1.0606325181E+03	0.000E+00	0.0
	1000022	2	5	5	0	0	7.1295590374E+01	-4.0481729154E+01	-1.8940373913E+02	8.8420325580E+02	8.5977891901E+02	0.000E+00	0.0
	14	1	6	6	0	0	5.2881215087E+01	8.2812872614E+01	-3.6145774871E+02	4.9591440681E+02	3.2500000000E+02	0.000E+00	0.0
	-14	1	6	6	0	0	1.8414375287E+01	-1.2329460177E+02	1.7205400957E+02	3.8828884899E+02	3.2500000000E+02	0.000E+00	0.0
	25	2	5	5	0	0	-7.1295590374E+01	4.0481729154E+01	1.0033483927E+02	1.8016256823E+02	1.2517843032E+02	0.000E+00	0.0
	-5	1	9	9	0	501	-1.0703884450E+02	3.6526288266E+01	8.0459505113E+01	1.3886211985E+02	4.1800000000E+00	0.000E+00	0.0
	5	1	9	9	501	0	3.5743254127E+01	3.9554408881E+00	1.9875334156E+01	4.1300448376E+01	4.1800000000E+00	0.000E+00	0.0
</event>
<event>
    11  -1  1.0000000E+00  1.0000000E+00  -1.0000000E+00  -1.0000000E+00
	2212	-1	0	0	0	0	0.0000000000E+00	0.0000000000E+00	6.5000000000E+03	6.5000000000E+03	9.3827000000E-01	0.000E+00	0.0
	2212	-1	0	0	0	0	0.0000000000E+00	0.0000000000E+00	-6.5000000000E+03	6.5000000000E+03	9.3827000000E-01	0.000E+00	0.0
	2212	1	0	0	0	0	0.0000000000E+00	0.0000000000E+00	5.3228209935E+03	5.3228209935E+03	9.3827000000E-01	0.000E+00	0.0
	2212	1	0	0	0	0	0.0000000000E+00	0.0000000000E+00	-6.2702927419E+03	6.2702927419E+03	9.3827000000E-01	0.000E+00	0.0
	51	2	1	2	0	0	8.7670729054E+01	-2.6723506670E+01	1.0860834260E+03	1.5065204142E+03	1.0400126190E+03	0.000E+00	0.0
	1000022	2	5	5	0	0	-8.7670729054E+01	2.6723506670E+01	6.5004102791E+02	1.0714241547E+03	8.4675620980E+02	0.000E+00	0.0
	14	1	6	6	0	0	1.7244423805E+02	-1.0447619590E+02	4.5210167689E+02	5.9217667718E+02	3.2500000000E+02	0.000E+00	0.0
	-14	1	6	6	0	0	-2.6011496710E+02	1.3119970257E+02	1.9793935103E+02	4.7924747756E+02	3.2500000000E+02	0.000E+00	0.0
	25	2	5	5	0	0	8.7670729054E+01	-2.6723506670E+01	2.9743072042E+02	3.3546210987E+02	1.2517783814E+02	0.000E+00	0.0
	-5	1	9	9	0	501	-1.8823626576E+01	1.6452715430E+01	1.2622381993E+01	2.8316385533E+01	4.1800000000E+00	0.000E+00	0.0
	5	1	9	9	501	0	1.0649435563E+02	-4.3176222100E+01	2.8480833843E+02	3.0714572433E+02	4.1800000000E+00	0.000E+00	0.0
</event>
<event>
    11  -1  1.0000000E+00  1.0000000E+00  -1.0000000E+00  -1.0000000E+00
	2212	-1	0	0	0	0	0.0000000000E+00	0.0000000000E+00	6.5000000000E+03	6.5000000000E+03	9.3827000000E-01	0.000E+00	0.0
	2212	-1	0	0	0	0	0.0000000000E+00	0.0000000000E+00	-6.5000000000E+03	6.5000000000E+03	9.3827000000E-01	0.000E+00	0.0
	2212	1	0	0	0	0	0.0000000000E+00	0.0000000000E+00	6.3226309034E+03	6.3226309034E+03	9.3827000000E-01	0.000E+00	0.0
	2212	1	0	0	0	0	0.0000000000E+00	0.0000000000E+00	-4.8876122637E+03	4.8876122637E+03	9.3827000000E-01	0.000E+00	0.0
	51	2	1	2	0	0	8.3157823053E+01	-9.6583860958E+01	-1.2378155480E+03	1.6408479580E+03	1.0695564616E+03	0.000E+00	0.0
	1000022	2	5	5	0	0	-8.3157823053E+01	9.6583860958E+01	-1.3562667431E+03	1.5944943415E+03	8.2867910600E+02	0.000E+00	0.0
	14	1	6	6	0	0	-2.8707301412E+02	-2.5509102267E+01	-7.4994141641E+02	8.6665953972E+02	3.2500000000E+02	0.000E+00	0.0
	-14	1	6	6	0	0	2.0391519107E+02	1.2209296323E+02	-6.0632532670E+02	7.2783480173E+02	3.2500000000E+02	0.000E+00	0.0
	25	2	5	5	0	0	8.3157823053E+01	-9.6583860958E+01	-7.8751896666E+01	1.9526249146E+02	1.2522744751E+02	0.000E+00	0.0
	-5	1	9	9	0	501	8.0986373083E+01	-1.1037590741E+02	-9.9937282146E+01	1.6954812392E+02	4.1800000000E+00	0.000E+00	0.0
	5	1	9	9	501	0	2.1714499699E+00	1.3792046449E+01	2.1185385480E+01	2.5714367544E+01	4.1800000000E+00	0.000E+00	0.0
</event>
<event>
    11  -1  1.0000000E+00  1.0000000E+00  -1.0000000E+00  -1.0000000E+00
	2212	-1	0	0	0	0	0.0000000000E+00	0.0000000000E+00	6.5000000000E+03	6.5000000000E+03	9.3827000000E-01	0.000E+00	0.0
	2212	-1	0	0	0	0	0.0000000000E+00	0.0000000000E+00	-6.5000000000E+03	6.5000000000E+03	9.3827000000E-01	0.000E+00	0.0
	2212	1	0	0	0	0	0.0000000000E+00	0.0000000000E+00	5.7536093800E+03	5.7536093800E+03	9.3827000000E-01	0.000E+00	0.0
	2212	1	0	0	0	0	0.0000000000E+00	0.0000000000E+00	-6.1292837104E+03	6.1292837104E+03	9.3827000000E-01	0.000E+00	0.0
	51	2	1	2	0	0	-1.0371417704E+01	-1.3483547213E+02	4.1884785039E+02	1.1404027086E+03	1.0520440319E+03	0.000E+00	0.0
	1000022	2	5	5	0	0	1.0371417704E+01	1.3483547213E+02	2.6867657762E+02	9.0402307979E+02	8.5251536912E+02	0.000E+00	0.0
	14	1	6	6	0	0	1.2451164569E+02	1.3228761466E+02	-1.1376261251E+02	3.8932004175E+02	3.2500000000E+02	0.000E+00	0.0
	-14	1	6	6	0	0	-1.1414022798E+02	2.5478574688E+00	3.8243919013E+02	5.1470303804E+02	3.2500000000E+02	0.000E+00	0.0
	25	2	5	5	0	0	-1.0371417704E+01	-1.3483547213E+02	1.0699775278E+02	2.1308382989E+02	1.2517199611E+02	0.000E+00	0.0
	-5	1	9	9	0	501	5.5955930506E+01	-6.3849770779E+01	6.5718465896E+01	1.0744416479E+02	4.1800000000E+00	0.000E+00	0.0
	5	1	9	9	501	0	-6.6327348210E+01	-7.0985701346E+01	4.1279286885E+01	1.0563966510E+02	4.1800000000E+00	0.000E+00	0.0
</event>
<event>
    11  -1  1.0000000E+00  1.0000000E+00  -1.0000000E+00  -1.0000000E+00
	2212	-1	0	0	0	0	0.0000000000E+00	0.0000000000E+00	6.5000000000E+03	6.5000000000E+03	9.3827000000E-01	0.000E+00	0.0
	2212	-1	0	0	0	0	0.0000000000E+00	0.0000000000E+00	-6.5000000000E+03	6.5000000000E+03	9.3827000000E-01	0.000E+00	0.0
	2212	1	0	0	0	0	0.0000000000E+00	0.0000000000E+00	6.2234284895E+03	6.2234284895E+03	9.3827000000E-01	0.000E+00	0.0
	2212	1	0	0	0	0	0.0000000000E+00	0.0000000000E+00	-5.4921893409E+03	5.4921893409E+03	9.3827000000E-01	0.000E+00	0.0
	51	2	1	2	0	0	6.9227065387E+01	-7.7579566375E+01	-8.7190559214E+02	1.3733015701E+03	1.0559009732E+03	0.000E+00	0.0
	1000022	2	5	5	0	0	-6.9227065387E+01	7.7579566375E+01	-4.6217432406E+02	9.6993793012E+02	8.4638260070E+02	0.000E+00	0.0
	14	1	6	6	0	0	1.8904277290E+02	8.6924860536E+01	-3.8968691057E+02	5.4842865501E+02	3.2500000000E+02	0.000E+00	0.0
	-14	1	6	6	0	0	-2.5826983828E+02	-9.3452941613E+00	-7.2487413485E+01	4.2150927511E+02	3.2500000000E+02	0.000E+00	0.0
	25	2	5	5	0	0	6.9227065387E+01	-7.7579566375E+01	-2.6906482459E+02	3.1444423951E+02	1.2517317695E+02	0.000E+00	0.0
	-5	1	9	9	0	501	4.7672035639E+01	-8.0039858272E+01	-2.7596673509E+02	2.9129729344E+02	4.1800000000E+00	0.000E+00	0.0
	5	1	9	9	501	0	2.1555029748E+01	2.4602918976E+00	6.9019104957E+00	2.3146946065E+01	4.1800000000E+00	0.000E+00	0.0
</event>
<event>
    11  -1  1.0000000E+00  1.0000000E+00  -1.0000000E+00  -1.0000000E+00
	2212	-1	0	0	0	0	0.0000000000E+00	0.0000000000E+00	6.5000000000E+03	6.5000000000E+03	9.3827000000E-01	0.000E+00	0.0
	2212	-1	0	0	0	0	0.0000000000E+00	0.0000000000E+00	-6.5000000000E+03	6.5000000000E+03	9.3827000000E-01	0.000E+00	0.0
	2212	1	0	0	0	0	0.0000000000E+00	0.0000000000E+00	6.2568875464E+03	6.2568875464E+03	9.3827000000E-01	0.000E+00	0.0
	2212	1	0	0	0	0	0.0000000000E+00	0.0000000000E+00	-5.3565778350E+03	5.3565778350E+03	9.3827000000E-01	0.000E+00	0.0
	51	2	1	2	0	0	1.6578509593E+02	2.0955019380E+01	-9.3296554717E+02	1.4178396225E+03	1.0544764919E+03	0.000E+00	0.0
	1000022	2	5	5	0	0	-1.6578509593E+02	-2.0955019380E+01	-7.0019000795E+02	1.0973245326E+03	8.2820967860E+02	0.000E+00	0.0
	14	1	6	6	0	0	-3.0642400264E+02	1.1830047967E+02	-4.2407013398E+02	6.2717712922E+02	3.2500000000E+02	0.000E+00	0.0
	-14	1	6	6	0	0	1.4063890671E+02	-1.3925549905E+02	-2.7611987397E+02	4.7014740337E+02	3.2500000000E+02	0.000E+00	0.0
	25	2	5	5	0	0	1.6578509593E+02	2.0955019380E+01	-2.0011970351E+02	2.8921008602E+02	1.2518293514E+02	0.000E+00	0.0
	-5	1	9	9	0	501	6.1564947908E+01	5.5386498461E+01	-3.3038373547E+01	8.9257568583E+01	4.1800000000E+00	0.000E+00	0.0
	5	1	9	9	501	0	1.0422014802E+02	-3.4431479081E+01	-1.6708132996E+02	1.9995251743E+02	4.1800000000E+00	0.000E+00	0.0
</event>
<event>
    11  -1  1.0000000E+00  1.0000000E+00  -1.0000000E+00  -1.0000000E+00
	2212	-1	0	0	0	0	0.0000000000E+00	0.0000000000E+00	6.5000000000E+03	6.5000000000E+03	9.3827000000E-01	0.000E+00	0.0
	2212	-1	0	0	0	0	0.0000000000E+00	0.0000000000E+00	-6.5000000000E+03	6.5000000000E+03	9.3827000000E-01	0.000E+00	0.0
	2212	1	0	0	0	0	0.0000000000E+00	0.0000000000E+00	5.6865658651E+03	5.6865658651E+03	9.3827000000E-01	0.000E+00	0.0
	2212	1	0	0	0	0	0.0000000000E+00	0.0000000000E+00	-6.1609809643E+03	6.1609809643E+03	9.3827000000E-01	0.000E+00	0.0
	51	2	1	2	0	0	7.1909305228E+00	1.3766453193E+02	5.1169772775E+02	1.1763997711E+03	1.0502754991E+03	0.000E+00	0.0
	1000022	2	5	5	0	0	-7.1909305228E+00	-1.3766453193E+02	3.5619425813E+02	9.3189077958E+02	8.5002520122E+02	0.000E+00	0.0
	14	1	6	6	0	0	6.9099673492E+01	-3.3337000164E+02	2.3701863649E+02	5.2698496839E+02	3.2500000000E+02	0.000E+00	0.0
	-14	1	6	6	0	0	-7.6290604014E+01	1.9570546971E+02	1.1917562164E+02	4.0490581118E+02	3.2500000000E+02	0.000E+00	0.0
	25	2	5	5	0	0	7.1909305228E+00	1.3766453193E+02	1.1822084112E+02	2.2056239098E+02	1.2517335262E+02	0.000E+00	0.0
	-5	1	9	9	0	501	3.1145076373E+01	1.0940552655E+02	2.0089728098E+01	1.1558829784E+02	4.1800000000E+00	0.000E+00	0.0
	5	1	9	9	501	0	-2.3954145850E+01	2.8259005378E+01	9.8131113019E+01	1.0497409314E+02	4.1800000000E+00	0.000E+00	0.0
</event>
<event>
    11  -1  1.0000000E+00  1.0000000E+00  -1.0000000E+00  -1.0000000E+00
	2212	-1	0	0	0	0	0.0000000000E+00	0.0000000000E+00	6.5000000000E+03	6.5000000000E+03	9.3827000000E-01	0.000E+00	0.0
	2212	-1	0	0	0	0	0.0000000000E+00	0.0000000000E+00	-6.5000000000E+03	6.5000000000E+03	9.3827000000E-01	0.000E+00	0.0
	2212	1	0	0	0	0	0.0000000000E+00	0.0000000000E+00	5.1705131994E+03	5.1705131994E+03	9.3827000000E-01	0.000E+00	0.0
	2212	1	0	0	0	0	0.0000000000E+00	0.0000000000E+00	-6.2903446210E+03	6.2903446210E+03	9.3827000000E-01	0.000E+00	0.0
	51	2	1	2	0	0	-1.2041823054E+02	-1.8734015262E+00	1.2330922381E+03	1.6278687796E+03	1.0559054105E+03	0.000E+00	0.0
	1000022	2	5	5	0	0	1.2041823054E+02	1.8734015262E+00	8.1733831597E+02	1.1903269694E+03	8.5693191760E+02	0.000E+00	0.0
	14	1	6	6	0	0	9.3786116326E+01	6.4839686891E+01	4.2148283480E+01	3.4698919063E+02	3.2500000000E+02	0.000E+00	0.0
	-14	1	6	6	0	0	2.6632114210E+01	-6.2966285365E+01	7.7519003249E+02	8.4333777875E+02	3.2500000000E+02	0.000E+00	0.0
	25	2	5	5	0	0	-1.2041823054E+02	-1.8734015262E+00	3.0249310568E+02	3.4881521019E+02	1.2516354100E+02	0.000E+00	0.0
	-5	1	9	9	0	501	-8.7826872913E+01	-5.8356394194E+01	2.1612114919E+02	2.4050956712E+02	4.1800000000E+00	0.000E+00	0.0
	5	1	9	9	501	0	-3.2591357624E+01	5.6482992668E+01	8.6371956493E+01	1.0830564307E+02	4.1800000000E+00	0.000E+00	0.0
</event>
<event>
    11  -1  1.0000000E+00  1.0000000E+00  -1.0000000E+00  -1.0000000E+00
	2212	-1	0	0	0	0	0.0000000000E+00	0.0000000000E+00	6.5000000000E+03	6.5000000000E+03	9.3827000000E-01	0.000E+00	0.0
	2212	-1	0	0	0	0	0.0000000000E+00	0.0000000000E+00	-6.5000000000E+03	6.5000000000E+03	9.3827000000E-01	0.000E+00	0.0
	2212	1	0	0	0	0	0.0000000000E+00	0.0000000000E+00	4.9237561273E+03	4.9237561273E+03	9.3827000000E-01	0.000E+00	0.0
	2212	1	0	0	0	0	0.0000000000E+00	0.0000000000E+00	-6.3253650766E+03	6.3253650766E+03	9.3827000000E-01	0.000E+00	0.0
	51	2	1	2	0	0	-1.7583823022E+01	-1.0027598936E+02	1.2436940780E+03	1.6304012808E+03	1.0493183082E+03	0.000E+00	0.0
	1000022	2	5	5	0	0	1.7583823022E+01	1.0027598936E+02	1.3173792888E+03	1.5688712806E+03	8.4587495502E+02	0.000E+00	0.0
	14	1	6	6	0	0	-1.3420989393E+02	-7.6317031303E+01	9.8593695405E+02	1.0495395477E+03	3.2500000000E+02	0.000E+00	0.0
	-14	1	6	6	0	0	1.5179371696E+02	1.7659302066E+02	3.3144233475E+02	5.1933173282E+02	3.2500000000E+02	0.000E+00	0.0
	25	2	5	5	0	0	-1.7583823022E+01	-1.0027598936E+02	8.4229660496E+01	1.8200751558E+02	1.2517042441E+02	0.000E+00	0.0
	-5	1	9	9	0	501	5.2777857722E+01	-5.6384024546E+01	5.0574705504E+01	9.2411761841E+01	4.1800000000E+00	0.000E+00	0.0
	5	1	9	9	501	0	-7.0361680744E+01	-4.3891964815E+01	3.3654954992E+01	8.9595753739E+01	4.1800000000E+00	0.000E+00	0.0
</event>
<event>
    11  -1  1.0000000E+00  1.0000000E+00  -1.0000000E+00  -1.0000000E+00
	2212	-1	0	0	0	0	0.0000000000E+00	0.0000000000E+00	6.5000000000E+03	6.5000000000E+03	9.3827000000E-01	0.000E+00	0.0
	2212	-1	0	0	0	0	0.0000000000E+00	0.0000000000E+00	-6.5000000000E+03	6.5000000000E+03	9.3827000000E-01	0.000E+00	0.0
	2212	1	0	0	0	0	0.0000000000E+00	0.0000000000E+00	6.2019894590E+03	6.2019894590E+03	9.3827000000E-01	0.000E+00	0.0
	2212	1	0	0	0	0	0.0000000000E+00	0.0000000000E+00	-5.5482578053E+03	5.5482578053E+03	9.3827000000E-01	0.000E+00	0.0
	51	2	1	2	0	0	6.3021137521E+00	1.3130030980E+02	-5.6241000976E+02	1.2116523149E+03	1.0651369983E+03	0.000E+00	0.0
	1000022	2	5	5	0	0	-6.3021137521E+00	-1.3130030980E+02	-6.2931741097E+02	1.0665983950E+03	8.5106535859E+02	0.000E+00	0.0
	14	1	6	6	0	0	-2.0151055605E+02	-2.0281228507E+02	-1.6578844178E+02	4.6351929259E+02	3.2500000000E+02	0.000E+00	0.0
	-14	1	6	6	0	0	1.9520844229E+02	7.1511975270E+01	-4.6352896919E+02	6.0307910246E+02	3.2500000000E+02	0.000E+00	0.0
	25	2	5	5	0	0	6.3021137521E+00	1.3130030980E+02	-2.4414242733E+01	1.8315434056E+02	1.2517974766E+02	0.000E+00	0.0
	-5	1	9	9	0	501	-4.3440654526E+01	8.0279243286E+01	2.6891580457E+01	9.5249550485E+01	4.1800000000E+00	0.000E+00	0.0
	5	1	9	9	501	0	4.9742768278E+01	5.1021066516E+01	-5.1305823190E+01	8.7904790072E+01	4.1800000000E+00	0.000E+00	0.0
</event>
<event>
    11  -1  1.0000000E+00  1.0000000E+00  -1.0000000E+00  -1.0000000E+00
	2212	-1	0	0	0	0	0.0000000000E+00	0.0000000000E+00	6.5000000000E+03	6.5000000000E+03	9.3827000000E-01	0.000E+00	0.0
	2212	-1	0	0	0	0	0.0000000000E+00	0.0000000000E+00	-6.5000000000E+03	6.5000000000E+03	9.3827000000E-01	0.000E+00	0.0
	2212	1	0	0	0	0	0.0000000000E+00	0.0000000000E+00	5.3820980413E+03	5.3820980413E+03	9.3827000000E-01	0.000E+00	0.0
	2212	1	0	0	0	0	0.0000000000E+00	0.0000000000E+00	-6.2527081140E+03	6.2527081140E+03	9.3827000000E-01	0.000E+00	0.0
	51	2	1	2	0	0	8.8743908073E+01	5.1411081513E+01	9.9649704968E+02	1.4523488855E+03	1.0515666097E+03	0.000E+00	0.0
	1000022	2	5	5	0	0	-8.8743908073E+01	-5.1411081513E+01	5.9828800079E+02	1.0484155814E+03	8.5481466933E+02	0.000E+00	0.0
	14	1	6	6	0	0	-2.3352246869E+02	-2.2587040515E+02	2.6391754396E+02	5.2993174402E+02	3.2500000000E+02	0.000E+00	0.0
	-14	1	6	6	0	0	1.4477856062E+02	1.7445932364E+02	3.3437045683E+02	5.1848383738E+02	3.2500000000E+02	0.000E+00	0.0
	25	2	5	5	0	0	8.8743908073E+01	5.1411081513E+01	2.7232207195E+02	3.1677826326E+02	1.2518217397E+02	0.000E+00	0.0
	-5	1	9	9	0	501	9.1132516885E+01	8.4390546967E+01	1.8093799046E+02	2.1950610206E+02	4.1800000000E+00	0.000E+00	0.0
	5	1	9	9	501	0	-2.3886088116E+00	-3.2979465454E+01	9.1384081496E+01	9.7272161201E+01	4.1800000000E+00	0.000E+00	0.0
</event>
<event>
    11  -1  1.0000000E+00  1.0000000E+00  -1.0000000E+00  -1.0000000E+00
	2212	-1	0	0	0	0	0.0000000000E+00	0.0000000000E+00	6.5000000000E+03	6.5000000000E+03	9.3827000000E-01	0.000E+00	0.0
	2212	-1	0	0	0	0	0.0000000000E+00	0.0000000000E+00	-6.5000000000E+03	6.5000000000E+03	9.3827000000E-01	0.000E+00	0.0
	2212	1	0	0	0	0	0.0000000000E+00	0.0000000000E+00	5.1361587904E+03	5.1361587904E+03	9.3827000000E-01	0.000E+00	0.0
	2212	1	0	0	0	0	0.0000000000E+00	0.0000000000E+00	-6.3076666945E+03	6.3076666945E+03	9.3827000000E-01	0.000E+00	0.0
	51	2	1	2	0	0	4.3759643817E+01	-1.0335885096E+02	1.1216244134E+03	1.5231177352E+03	1.0243282443E+03	0.000E+00	0.0
	1000022	2	5	5	0	0	-4.3759643817E+01	1.0335885096E+02	1.0320776606E+03	1.3377560745E+03	8.4368777332E+02	0.000E+00	0.0
	14	1	6	6	0	0	-6.8825599091E+01	1.1607260623E+02	1.2440663804E+02	3.7324499273E+02	3.2500000000E+02	0.000E+00	0.0
	-14	1	6	6	0	0	2.5065955274E+01	-1.2713755268E+01	9.0767102251E+02	9.6451108174E+02	3.2500000000E+02	0.000E+00	0.0
	25	2	5	5	0	0	4.3759643817E+01	-1.0335885096E+02	1.3943024352E+02	2.1841844062E+02	1.2517133816E+02	0.000E+00	0.0
	-5	1	9	9	0	501	5.1986045863E+01	-2.9250300790E+01	-5.0924965369E-01	5.9798501620E+01	4.1800000000E+00	0.000E+00	0.0
	5	1	9	9	501	0	-8.2264020460E+00	-7.4108550168E+01	1.3993949317E+02	1.5861993900E+02	4.1800000000E+00	0.000E+00	0.0
</event>
<event>
    11  -1  1.0000000E+00  1.0000000E+00  -1.0000000E+00  -1.0000000E+00
	2212	-1	0	0	0	0	0.0000000000E+00	0.0000000000E+00	6.5000000000E+03	6.5000000000E+03	9.3827000000E-01	0.000E+00	0.0
	2212	-1	0	0	0	0	0.0000000000E+00	0.0000000000E+00	-6.5000000000E+03	6.5000000000E+03	9.3827000000E-01	0.000E+00	0.0
	2212	1	0	0	0	0	0.0000000000E+00	0.0000000000E+00	6.2146590473E+03	6.2146590473E+03	9.3827000000E-01	0.000E+00	0.0
	2212	1	0	0	0	0	0.0000000000E+00	0.0000000000E+00	-5.4999579727E+03	5.4999579727E+03	9.3827000000E-01	0.000E+00	0.0
	51	2	1	2	0	0	1.3647420398E+02	7.2901836559E+00	-8.1284936422E+02	1.3493754938E+03	1.0683687468E+03	0.000E+00	0.0
	1000022	2	5	5	0	0	-1.3647420398E+02	-7.2901836559E+00	-4.9031215394E+02	9.9434791043E+02	8.5419166674E+02	0.000E+00	0.0
	14	1	6	6	0	0	-3.4883265147E+02	-3.1922981421E+00	-2.7407038539E+02	5.4993998368E+02	3.2500000000E+02	0.000E+00	0.0
	-14	1	6	6	0	0	2.1235844749E+02	-4.0978855138E+00	-2.1624176856E+02	4.4440792675E+02	3.2500000000E+02	0.000E+00	0.0
	25	2	5	5	0	0	1.3647420398E+02	7.2901836559E+00	-2.2438892070E+02	2.9103506959E+02	1.2519053026E+02	0.000E+00	0.0
	-5	1	9	9	0	501	1.4696262974E+02	-2.3045119306E+01	-2.0494178939E+02	2.5327396530E+02	4.1800000000E+00	0.000E+00	0.0
	5	1	9	9	501	0	-1.0488425754E+01	3.0335302962E+01	-1.9447131311E+01	3.7761104285E+01	4.1800000000E+00	0.000E+00	0.0
</event>
<event>
    11  -1  1.0000000E+00  1.0000000E+00  -1.0000000E+00  -1.0000000E+00
	2212	-1	0	0	0	0	0.0000000000E+00	0.0000000000E+00	6.5000000000E+03	6.5000000000E+03	9.3827000000E-01	0.000E+00	0.0
	2212	-1	0	0	0	0	0.0000000000E+00	0.0000000000E+00	-6.5000000000E+03	6.5000000000E+03	9.3827000000E-01	0.000E+00	0.0
	2212	1	0	0	0	0	0.0000000000E+00	0.0000000000E+00	6.0186503087E+03	6.0186503087E+03	9.3827000000E-01	0.000E+00	0.0
	2212	1	0	0	0	0	0.0000000000E+00	0.0000000000E+00	-5.9569710935E+03	5.9569710935E+03	9.3827000000E-01	0.000E+00	0.0
	51	2	1	2	0	0	-1.0746970573E+02	4.6851564715E+01	-4.6597517036E+01	1.0302734207E+03	1.0225200174E+03	0.000E+00	0.0
	1000022	2	5	5	0	0	1.0746970573E+02	-4.6851564715E+01	-6.6784848276E+01	8.5279963839E+02	8.4205831183E+02	0.000E+00	0.0
	14	1	6	6	0	0	1.6081383767E+02	-6.3075050623E+01	2.0870958474E+02	4.2311256559E+02	3.2500000000E+02	0.000E+00	0.0
	-14	1	6	6	0	0	-5.3344131944E+01	1.6223485908E+01	-2.7549443302E+02	4.2968707280E+02	3.2500000000E+02	0.000E+00	0.0
	25	2	5	5	0	0	-1.0746970573E+02	4.6851564715E+01	5.1056331052E+00	1.7157895941E+02	1.2517373948E+02	0.000E+00	0.0
	-5	1	9	9	0	501	-1.0821786716E+02	3.2219642239E+01	5.0451645141E+01	1.2374188060E+02	4.1800000000E+00	0.000E+00	0.0
	5	1	9	9	501	0	7.4816142667E-01	1.4631922476E+01	-4.5346012036E+01	4.7837078803E+01	4.1800000000E+00	0.000E+00	0.0
</event>
<event>
    11  -1  1.0000000E+00  1.0000000E+00  -1.0000000E+00  -1.0000000E+00
	2212	-1	0	0	0	0	0.0000000000E+00	0.0000000000E+00	6.5000000000E+03	6.5000000000E+03	9.3827000000E-01	0.000E+00	0.0
	2212	-1	0	0	0	0	0.0000000000E+00	0.0000000000E+00	-6.5000000000E+03	6.5000000000E+03	9.3827000000E-01	0.000E+00	0.0
	2212	1	0	0	0	0	0.0000000000E+00	0.0000000000E+00	6.1634385675E+03	6.1634385675E+03	9.3827000000E-01	0.000E+00	0.0
	2212	1	0	0	0	0	0.0000000000E+00	0.0000000000E+00	-5.7249011843E+03	5.7249011843E+03	9.3827000000E-01	0.000E+00	0.0
	51	2	1	2	0	0	-5.7043851146E+01	-7.8291015634E+01	-4.1304034248E+02	1.1061009356E+03	1.0215054924E+03	0.000E+00	0.0
	1000022	2	5	5	0	0	5.7043851146E+01	7.8291015634E+01	-3.9731766564E+02	9.4809744968E+02	8.5536188983E+02	0.000E+00	0.0
	14	1	6	6	0	0	2.4430162814E+02	-3.1606325237E+01	-2.5445960861E+01	4.0860095721E+02	3.2500000000E+02	0.000E+00	0.0
	-14	1	6	6	0	0	-1.8725777700E+02	1.0989734087E+02	-3.7187170478E+02	5.3949649247E+02	3.2500000000E+02	0.000E+00	0.0
	25	2	5	5	0	0	-5.7043851146E+01	-7.8291015634E+01	-4.1219717581E+01	1.6356279858E+02	1.2518082872E+02	0.000E+00	0.0
	-5	1	9	9	0	501	1.8689458931E+01	1.1035694549E+01	-4.0771167180E+01	4.6377180839E+01	4.1800000000E+00	0.000E+00	0.0
	5	1	9	9	501	0	-7.5733310078E+01	-8.9326710183E+01	-4.4855040149E-01	1.1718561774E+02	4.1800000000E+00	0.000E+00	0.0
</event>
<event>
    11  -1  1.0000000E+00  1.0000000E+00  -1.0000000E+00  -1.0000000E+00
	2212	-1	0	0	0	0	0.0000000000E+00	0.0000000000E+00	6.5000000000E+03	6.5000000000E+03	9.3827000000E-01	0.000E+00	0.0
	2212	-1	0	0	0	0	0.0000000000E+00	0.0000000000E+00	-6.5000000000E+03	6.5000000000E+03	9.3827000000E-01	0.000E+00	0.0
	2212	1	0	0	0	0	0.0000000000E+00	0.0000000000E+00	5.1697892294E+03	5.1697892294E+03	9.3827000000E-01	0.000E+00	0.0
	2212	1	0	0	0	0	0.0000000000E+00	0.0000000000E+00	-6.2960118599E+03	6.2960118599E+03	9.3827000000E-01	0.000E+00	0.0
	51	2	1	2	0	0	5.9043744516E+01	-4.9988475756E+01	1.2926589856E+03	1.6620292262E+03	1.0418199865E+03	0.000E+00	0.0
	1000022	2	5	5	0	0	-5.9043744516E+01	4.9988475756E+01	7.7215076925E+02	1.1507617717E+03	8.4973574324E+02	0.000E+00	0.0
	14	1	6	6	0	0	-1.6710335095E+02	1.0552404160E+02	9.8362811888E+01	3.9288560169E+02	3.2500000000E+02	0.000E+00	0.0
	-14	1	6	6	0	0	1.0805960643E+02	-5.5535565845E+01	6.7378795737E+02	7.5787617004E+02	3.2500000000E+02	0.000E+00	0.0
	25	2	5	5	0	0	5.9043744516E+01	-4.9988475756E+01	3.5407186124E+02	3.8343713901E+02	1.2518843864E+02	0.000E+00	0.0
	-5	1	9	9	0	501	1.1065382888E+00	2.8964532134E+01	1.9055385072E+02	1.9279110709E+02	4.1800000000E+00	0.000E+00	0.0
	5	1	9	9	501	0	5.7937206227E+01	-7.8953007890E+01	1.6351801053E+02	1.9064603192E+02	4.1800000000E+00	0.000E+00	0.0
</event>
<event>
    11  -1  1.0000000E+00  1.0000000E+00  -1.0000000E+00  -1.0000000E+00
	2212	-1	0	0	0	0	0.0000000000E+00	0.0000000000E+00	6.5000000000E+03	6.5000000000E+03	9.3827000000E-01	0.000E+00	0.0
	2212	-1	0	0	0	0	0.0000000000E+00	0.0000000000E+00	-6.5000000000E+03	6.5000000000E+03	9.3827000000E-01	0.000E+00	0.0
	2212	1	0	0	0	0	0.0000000000E+00	0.0000000000E+00	6.2835102921E+03	6.2835102921E+03	9.3827000000E-01	0.000E+00	0.0
	2212	1	0	0	0	0	0.0000000000E+00	0.0000000000E+00	-5.2286818091E+03	5.2286818091E+03	9.3827000000E-01	0.000E+00	0.0
	51	2	1	2	0	0	4.1561682125E+01	9.0875720451E+01	-9.3319405710E+02	1.4077450527E+03	1.0492422100E+03	0.000E+00	0.0
	1000022	2	5	5	0	0	-4.1561682125E+01	-9.0875720451E+01	-9.9957957922E+02	1.3183814496E+03	8.5380591555E+02	0.000E+00	0.0
	14	1	6	6	0	0	-9.2282271218E+01	-2.7545108729E+02	-7.4555351864E+02	8.6363439500E+02	3.2500000000E+02	0.000E+00	0.0
	-14	1	6	6	0	0	5.0720589093E+01	1.8457536684E+02	-2.5402606058E+02	4.5474705459E+02	3.2500000000E+02	0.000E+00	0.0
	25	2	5	5	0	0	4.1561682125E+01	9.0875720451E+01	-5.5248903695E+01	1.6942644920E+02	1.2516832803E+02	0.000E+00	0.0
	-5	1	9	9	0	501	-2.8463601715E+01	8.3440317889E+01	-1.9699143657E+01	9.0432250513E+01	4.1800000000E+00	0.000E+00	0.0
	5	1	9	9	501	0	7.0025283840E+01	7.4354025618E+00	-3.5549760038E+01	7.8994198691E+01	4.1800000000E+00	0.000E+00	0.0
</event>
<event>
    11  -1  1.0000000E+00  1.0000000E+00  -1.0000000E+00  -1.0000000E+00
	2212	-1	0	0	0	0	0.0000000000E+00	0.0000000000E+00	6.5000000000E+03	6.5000000000E+03	9.3827000000E-01	0.000E+00	0.0
	2212	-1	0	0	0	0	0.0000000000E+00	0.0000000000E+00	-6.5000000000E+03	6.5000000000E+03	9.3827000000E-01	0.000E+00	0.0
	2212	1	0	0	0	0	0.0000000000E+00	0.0000000000E+00	6.0396520746E+03	6.0396520746E+03	9.3827000000E-01	0.000E+00	0.0
	2212	1	0	0	0	0	0.0000000000E+00	0.0000000000E+00	-5.9012965391E+03	5.9012965391E+03	9.3827000000E-01	0.000E+00	0.0
	51	2	1	2	0	0	-6.0902243855E+01	1.2183278179E+02	-1.1125465574E+02	1.0646020351E+03	1.0499750400E+03	0.000E+00	0.0
	1000022	2	5	5	0	0	6.0902243855E+01	-1.2183278179E+02	-1.4201012792E+02	8.7402961678E+02	8.5159179455E+02	0.000E+00	0.0
	14	1	6	6	0	0	1.4005374740E+02	-1.4491850403E+02	-3.1617953940E+02	4.9619645918E+02	3.2500000000E+02	0.000E+00	0.0
	-14	1	6	6	0	0	-7.9151503547E+01	2.3085722235E+01	1.7416941148E+02	3.7783315760E+02	3.2500000000E+02	0.000E+00	0.0
	25	2	5	5	0	0	-6.0902243855E+01	1.2183278179E+02	3.6545924657E+00	1.8502176952E+02	1.2516944166E+02	0.000E+00	0.0
	-5	1	9	9	0	501	2.8594476301E+01	5.3024208537E+01	3.2293314132E+01	6.8480225639E+01	4.1800000000E+00	0.000E+00	0.0
	5	1	9	9	501	0	-8.9496720156E+01	6.8808573256E+01	-2.8638721667E+01	1.1654154388E+02	4.1800000000E+00	0.000E+00	0.0
</event>
<event>
    11  -1  1.0000000E+00  1.0000000E+00  -1.0000000E+00  -1.0000000E+00
	2212	-1	0	0	0	0	0.0000000000E+00	0.0000000000E+00	6.5000000000E+03	6.5000000000E+03	9.3827000000E-01	0.000E+00	0.0
	2212	-1	0	0	0	0	0.0000000000E+00	0.0000000000E+00	-6.5000000000E+03	6.5000000000E+03	9.3827000000E-01	0.000E+00	0.0
	2212	1	0	0	0	0	0.0000000000E+00	0.0000000000E+00	5.6404638187E+03	5.6404638187E+03	9.3827000000E-01	0.000E+00	0.0
	2212	1	0	0	0	0	0.0000000000E+00	0.0000000000E+00	-6.1765914177E+03	6.1765914177E+03	9.3827000000E-01	0.000E+00	0.0
	51	2	1	2	0	0	-1.2206917399E+02	5.4397573661E+01	4.9320888162E+02	1.1717681048E+03	1.0544787865E+03	0.000E+00	0.0
	1000022	2	5	5	0	0	1.2206917399E+02	-5.4397573661E+01	4.8820692103E+02	9.9368781815E+02	8.5510788965E+02	0.000E+00	0.0
	14	1	6	6	0	0	-7.8866893897E+01	1.7058283438E+02	3.8637752507E+02	5.3873099244E+02	3.2500000000E+02	0.000E+00	0.0
	-14	1	6	6	0	0	2.0093606789E+02	-2.2498040804E+02	1.0182939597E+02	4.5495682571E+02	3.2500000000E+02	0.000E+00	0.0
	25	2	5	5	0	0	-1.2206917399E+02	5.4397573661E+01	4.7920677924E+01	1.8925694540E+02	1.2514719633E+02	0.000E+00	0.0
	-5	1	9	9	0	501	-6.3094254683E+01	-3.3448581906E+01	-3.3412900795E+00	7.1612353857E+01	4.1800000000E+00	0.000E+00	0.0
	5	1	9	9	501	0	-5.8974919307E+01	8.7846155567E+01	5.1261968003E+01	1.1764459154E+02	4.1800000000E+00	0.000E+00	0.0
</event>
<event>
    11  -1  1.0000000E+00  1.0000000E+00  -1.0000000E+00  -1.0000000E+00
	2212	-1	0	0	0	0	0.0000000000E+00	0.0000000000E+00	6.5000000000E+03	6.5000000000E+03	9.3827000000E-01	0.000E+00	0.0
	2212	-1	0	0	0	0	0.0000000000E+00	0.0000000000E+00	-6.5000000000E+03	6.5000000000E+03	9.3827000000E-01	0.000E+00	0.0
	2212	1	0	0	0	0	0.0000000000E+00	0.0000000000E+00	6.1106225497E+03	6.1106225497E+03	9.3827000000E-01	0.000E+00	0.0
	2212	1	0	0	0	0	0.0000000000E+00	0.0000000000E+00	-5.7843767032E+03	5.7843767032E+03	9.3827000000E-01	0.000E+00	0.0
	51	2	1	2	0	0	2.3416740544E+01	1.5202711302E+02	-3.1494417414E+02	1.1124031276E+03	1.0557415871E+03	0.000E+00	0.0
	1000022	2	5	5	0	0	-2.3416740544E+01	-1.5202711302E+02	-2.7958268899E+02	9.0127041044E+02	8.4288865570E+02	0.000E+00	0.0
	14	1	6	6	0	0	-2.2810569296E+02	6.1872449025E+01	-2.1850576783E+02	4.5741685330E+02	3.2500000000E+02	0.000E+00	0.0
	-14	1	6	6	0	0	2.0468895242E+02	-2.1389956204E+02	-6.1076921167E+01	4.4385355714E+02	3.2500000000E+02	0.000E+00	0.0
	25	2	5	5	0	0	2.3416740544E+01	1.5202711302E+02	-4.6663157466E+01	2.0373033664E+02	1.2517193365E+02	0.000E+00	0.0
	-5	1	9	9	0	501	3.1221713610E+01	2.1301201319E+01	3.3033292782E+01	5.0370699920E+01	4.1800000000E+00	0.000E+00	0.0
	5	1	9	9	501	0	-7.8049730661E+00	1.3072591170E+02	-7.9696450248E+01	1.5335963672E+02	4.1800000000E+00	0.000E+00	0.0
</event>
<event>
    11  -1  1.0000000E+00  1.0000000E+00  -1.0000000E+00  -1.0000000E+00
	2212	-1	0	0	0	0	0.0000000000E+00	0.0000000000E+00	6.5000000000E+03	6.5000000000E+03	9.3827000000E-01	0.000E+00	0.0
	2212	-1	0	0	0	0	0.0000000000E+00	0.0000000000E+00	-6.5000000000E+03	6.5000000000E+03	9.3827000000E-01	0.000E+00	0.0
	2212	1	0	0	0	0	0.0000000000E+00	0.0000000000E+00	6.2850210425E+03	6.2850210425E+03	9.3827000000E-01	0.000E+00	0.0
	2212	1	0	0	0	0	0.0000000000E+00	0.0000000000E+00	-5.2022404694E+03	5.2022404694E+03	9.3827000000E-01	0.000E+00	0.0
	51	2	1	2	0	0	1.2774684395E+02	2.7246290880E+01	-1.0042835220E+03	1.4634243996E+03	1.0563919557E+03	0.000E+00	0.0
	1000022	2	5	5	0	0	-1.2774684395E+02	-2.7246290880E+01	-9.7534779510E+02	1.3022924597E+03	8.5299514222E+02	0.000E+00	0.0
	14	1	6	6	0	0	8.4988529860E+01	-7.5987170428E+01	-1.2542321264E+02	3.6654206109E+02	3.2500000000E+02	0.000E+00	0.0
	-14	1	6	6	0	0	-2.1273537381E+02	4.8740879548E+01	-8.4992458246E+02	9.3575039860E+02	3.2500000000E+02	0.000E+00	0.0
	25	2	5	5	0	0	1.2774684395E+02	2.7246290880E+01	-1.0743277795E+02	2.1044602846E+02	1.2523622722E+02	0.000E+00	0.0
	-5	1	9	9	0	501	8.7813828314E+00	-3.7613002858E+01	-4.9750755028E+01	6.3122584661E+01	4.1800000000E+00	0.000E+00	0.0
	5	1	9	9	501	0	1.1896546112E+02	6.4859293737E+01	-5.7682022919E+01	1.4732344379E+02	4.1800000000E+00	0.000E+00	0.0
</event>
<event>
    11  -1  1.0000000E+00  1.0000000E+00  -1.0000000E+00  -1.0000000E+00
	2212	-1	0	0	0	0	0.0000000000E+00	0.0000000000E+00	6.5000000000E+03	6.5000000000E+03	9.3827000000E-01	0.000E+00	0.0
	2212	-1	0	0	0	0	0.0000000000E+00	0.0000000000E+00	-6.5000000000E+03	6.5000000000E+03	9.3827000000E-01	0.000E+00	0.0
	2212	1	0	0	0	0	0.0000000000E+00	0.0000000000E+00	6.1997908285E+03	6.1997908285E+03	9.3827000000E-01	0.000E+00	0.0
	2212	1	0	0	0	0	0.0000000000E+00	0.0000000000E+00	-5.6134852449E+03	5.6134852449E+03	9.3827000000E-01	0.000E+00	0.0
	51	2	1	2	0	0	1.1100511317E+02	7.3815253814E+01	-5.9329702461E+02	1.1976358491E+03	1.0317748983E+03	0.000E+00	0.0
	1000022	2	5	5	0	0	-1.1100511317E+02	-7.3815253814E+01	-4.8026947849E+02	9.7533860608E+02	8.3836495496E+02	0.000E+00	0.0
	14	1	6	6	0	0	-1.6946495469E+02	-2.7845415977E+02	-2.6824208934E+02	5.3276064837E+02	3.2500000000E+02	0.000E+00	0.0
	-14	1	6	6	0	0	5.8459841521E+01	2.0463890596E+02	-2.1202738915E+02	4.4257795771E+02	3.2500000000E+02	0.000E+00	0.0
	25	2	5	5	0	0	1.1100511317E+02	7.3815253814E+01	-1.0603610511E+02	2.1138532055E+02	1.2517695999E+02	0.000E+00	0.0
	-5	1	9	9	0	501	1.1134792284E+02	3.0648472726E+01	-1.1923766721E+02	1.6605054196E+02	4.1800000000E+00	0.000E+00	0.0
	5	1	9	9	501	0	-3.4280967690E-01	4.3166781089E+01	1.3201562107E+01	4.5334778593E+01	4.1800000000E+00	0.000E+00	0.0
</event>
<event>
    11  -1  1.0000000E+00  1.0000000E+00  -1.0000000E+00  -1.0000000E+00
	2212	-1	0	0	0	0	0.0000000000E+00	0.0000000000E+00	6.5000000000E+03	6.5000000000E+03	9.3827000000E-01	0.000E+00	0.0
	2212	-1	0	0	0	0	0.0000000000E+00	0.0000000000E+00	-6.5000000000E+03	6.5000000000E+03	9.3827000000E-01	0.000E+00	0.0
	2212	1	0	0	0	0	0.0000000000E+00	0.0000000000E+00	5.8401336549E+03	5.8401336549E+03	9.3827000000E-01	0.000E+00	0.0
	2212	1	0	0	0	0	0.0000000000E+00	0.0000000000E+00	-6.1017699603E+03	6.1017699603E+03	9.3827000000E-01	0.000E+00	0.0
	51	2	1	2	0	0	2.0393938027E+01	-4.7937901573E+01	1.5997408463E+02	1.0389514262E+03	1.0252387055E+03	0.000E+00	0.0
	1000022	2	5	5	0	0	-2.0393938027E+01	4.7937901573E+01	3.2188194188E+02	9.0974647682E+02	8.4930366328E+02	0.000E+00	0.0
	14	1	6	6	0	0	-1.9674696664E+01	1.6842737423E+02	4.1213201501E+02	5.5157290712E+02	3.2500000000E+02	0.000E+00	0.0
	-14	1	6	6	0	0	-7.1924136333E-01	-1.2048947266E+02	-9.0250073126E+01	3.5817356970E+02	3.2500000000E+02	0.000E+00	0.0
	25	2	5	5	0	0	2.0393938027E+01	-4.7937901573E+01	-6.0245636511E+01	1.4834990797E+02	1.2515671520E+02	0.000E+00	0.0
	-5	1	9	9	0	501	3.3628925866E+01	-8.5403041678E+01	-2.5377146908E+01	9.5320806585E+01	4.1800000000E+00	0.000E+00	0.0
	5	1	9	9	501	0	-1.3234987838E+01	3.7465140105E+01	-3.4868489604E+01	5.3029101382E+01	4.1800000000E+00	0.000E+00	0.0
</event>
<event>
    11  -1  1.0000000E+00  1.0000000E+00  -1.0000000E+00  -1.0000000E+00
	2212	-1	0	0	0	0	0.0000000000E+00	0.0000000000E+00	6.5000000000E+03	6.5000000000E+03	9.3827000000E-01	0.000E+00	0.0
	2212	-1	0	0	0	0	0.0000000000E+00	0.0000000000E+00	-6.5000000000E+03	6.5000000000E+03	9.3827000000E-01	0.000E+00	0.0
	2212	1	0	0	0	0	0.0000000000E+00	0.0000000000E+00	6.3112866566E+03	6.3112866566E+03	9.3827000000E-01	0.000E+00	0.0
	2212	1	0	0	0	0	0.0000000000E+00	0.0000000000E+00	-5.0418260614E+03	5.0418260614E+03	9.3827000000E-01	0.000E+00	0.0
	51	2	1	2	0	0	1.0871433887E+01	-1.0367622551E+02	-1.1471697622E+03	1.5580670486E+03	1.0491460894E+03	0.000E+00	0.0
	1000022	2	5	5	0	0	-1.0871433887E+01	1.0367622551E+02	-1.1799644201E+03	1.4609535518E+03	8.5510367791E+02	0.000E+00	0.0
	14	1	6	6	0	0	3.5217694454E+01	2.8621064414E+02	-8.7577819417E+02	9.7763452487E+02	3.2500000000E+02	0.000E+00	0.0
	-14	1	6	6	0	0	-4.6089128341E+01	-1.8253441863E+02	-3.0418622590E+02	4.8331902690E+02	3.2500000000E+02	0.000E+00	0.0
	25	2	5	5	0	0	1.0871433887E+01	-1.0367622551E+02	-8.9496175139E+01	1.8593373025E+02	1.2527904403E+02	0.000E+00	0.0
	-5	1	9	9	0	501	6.4842784090E+01	-8.1932082824E+01	-5.4808485328E+01	1.1806309884E+02	4.1800000000E+00	0.000E+00	0.0
	5	1	9	9	501	0	-5.3971350204E+01	-2.1744142682E+01	-3.4687689811E+01	6.7870631412E+01	4.1800000000E+00	0.000E+00	0.0
</event>
<event>
    11  -1  1.0000000E+00  1.0000000E+00  -1.0000000E+00  -1.0000000E+00
	2212	-1	0	0	0	0	0.0000000000E+00	0.0000000000E+00	6.5000000000E+03	6.5000000000E+03	9.3827000000E-01	0.000E+00	0.0
	2212	-1	0	0	0	0	0.0000000000E+00	0.0000000000E+00	-6.5000000000E+03	6.5000000000E+03	9.3827000000E-01	0.000E+00	0.0
	2212	1	0	0	0	0	0.0000000000E+00	0.0000000000E+00	5.9579932667E+03	5.9579932667E+03	9.3827000000E-01	0.000E+00	0.0
	2212	1	0	0	0	0	0.0000000000E+00	0.0000000000E+00	-5.9912482259E+03	5.9912482259E+03	9.3827000000E-01	0.000E+00	0.0
	51	2	1	2	0	0	-4.8717907704E+01	-5.2855717967E+01	-8.4460968512E+01	1.0560721401E+03	1.0502321403E+03	0.000E+00	0.0
	1000022	2	5	5	0	0	4.8717907704E+01	5.2855717967E+01	1.4535492962E+02	8.6799721098E+02	8.5271562742E+02	0.000E+00	0.0
	14	1	6	6	0	0	-2.2144773566E+02	1.4723847437E+02	1.0644826993E+02	4.3321415274E+02	3.2500000000E+02	0.000E+00	0.0
	-14	1	6	6	0	0	2.7016564336E+02	-9.4382756407E+01	3.8906659690E+01	4.3478305824E+02	3.2500000000E+02	0.000E+00	0.0
	25	2	5	5	0	0	-4.8717907704E+01	-5.2855717967E+01	-1.1209997047E+02	1.8276129639E+02	1.2517238764E+02	0.000E+00	0.0
	-5	1	9	9	0	501	-2.0585557552E+01	1.7554880119E+00	-1.1895436947E+02	1.2080753840E+02	4.1800000000E+00	0.000E+00	0.0
	5	1	9	9	501	0	-2.8132350152E+01	-5.4611205979E+01	6.8543990085E+00	6.1953757991E+01	4.1800000000E+00	0.000E+00	0.0
</event>
<event>
    11  -1  1.0000000E+00  1.0000000E+00  -1.0000000E+00  -1.0000000E+00
	2212	-1	0	0	0	0	0.0000000000E+00	0.0000000000E+00	6.5000000000E+03	6.5000000000E+03	9.3827000000E-01	0.000E+00	0.0
	2212	-1	0	0	0	0	0.0000000000E+00	0.0000000000E+00	-6.5000000000E+03	6.5000000000E+03	9.3827000000E-01	0.000E+00	0.0
	2212	1	0	0	0	0	0.0000000000E+00	0.0000000000E+00	4.9410881430E+03	4.9410881430E+03	9.3827000000E-01	0.000E+00	0.0
	2212	1	0	0	0	0	0.0000000000E+00	0.0000000000E+00	-6.3267680181E+03	6.3267680181E+03	9.3827000000E-01	0.000E+00	0.0
	51	2	1	2	0	0	2.8428265925E+01	-9.1206953012E+01	1.2150850661E+03	1.6018027828E+03	1.0393332298E+03	0.000E+00	0.0
	1000022	2	5	5	0	0	-2.8428265925E+01	9.1206953012E+01	1.3134196672E+03	1.5589084135E+03	8.3426455318E+02	0.000E+00	0.0
	14	1	6	6	0	0	-4.5031886184E+01	-1.9244666954E+02	4.1992291824E+02	5.6658966515E+02	3.2500000000E+02	0.000E+00	0.0
	-14	1	6	6	0	0	1.6603620260E+01	2.8365362255E+02	8.9349674899E+02	9.9231874831E+02	3.2500000000E+02	0.000E+00	0.0
	25	2	5	5	0	0	2.8428265925E+01	-9.1206953012E+01	7.2260207803E+01	1.7323542542E+02	1.2514831364E+02	0.000E+00	0.0
	-5	1	9	9	0	501	-3.1302458827E+01	-9.0140283387E+01	3.0639615985E+01	1.0030639603E+02	4.1800000000E+00	0.000E+00	0.0
	5	1	9	9	501	0	5.9730724751E+01	-1.0666696251E+00	4.1620591818E+01	7.2929029383E+01	4.1800000000E+00	0.000E+00	0.0
</event>
<event>
    11  -1  1.0000000E+00  1.0000000E+00  -1.0000000E+00  -1.0000000E+00
	2212	-1	0	0	0	0	0.0000000000E+00	0.0000000000E+00	6.5000000000E+03	6.5000000000E+03	9.3827000000E-01	0.000E+00	0.0
	2212	-1	0	0	0	0	0.0000000000E+00	0.0000000000E+00	-6.5000000000E+03	6.5000000000E+03	9.3827000000E-01	0.000E+00	0.0
	2212	1	0	0	0	0	0.0000000000E+00	0.0000000000E+00	5.1089847582E+03	5.1089847582E+03	9.3827000000E-01	0.000E+00	0.0
	2212	1	0	0	0	0	0.0000000000E+00	0.0000000000E+00	-6.2974930171E+03	6.2974930171E+03	9.3827000000E-01	0.000E+00	0.0
	51	2	1	2	0	0	8.3131591616E+01	7.7412794861E+01	1.0298254472E+03	1.4833088867E+03	1.0614900844E+03	0.000E+00	0.0
	1000022	2	5	5	0	0	-8.3131591616E+01	-7.7412794861E+01	1.1320831045E+03	1.4153241680E+03	8.4179970458E+02	0.000E+00	0.0
	14	1	6	6	0	0	9.6139414910E+01	-2.2732417926E+02	7.8827531588E+02	8.8764973002E+02	3.2500000000E+02	0.000E+00	0.0
	-14	1	6	6	0	0	-1.7927100653E+02	1.4991138440E+02	3.4380778860E+02	5.2767443794E+02	3.2500000000E+02	0.000E+00	0.0
	25	2	5	5	0	0	8.3131591616E+01	7.7412794861E+01	5.6425154422E+01	1.7819805678E+02	1.2516847469E+02	0.000E+00	0.0
	-5	1	9	9	0	501	5.0062453448E+01	1.1064734233E+02	3.4830269062E+01	1.2641085259E+02	4.1800000000E+00	0.000E+00	0.0
	5	1	9	9	501	0	3.3069138168E+01	-3.3234547467E+01	2.1594885360E+01	5.1787204193E+01	4.1800000000E+00	0.000E+00	0.0
</event>
<event>
    11  -1  1.0000000E+00  1.0000000E+00  -1.0000000E+00  -1.0000000E+00
	2212	-1	0	0	0	0	0.0000000000E+00	0.0000000000E+00	6.5000000000E+03	6.5000000000E+03	9.3827000000E-01	0.000E+00	0.0
	2212	-1	0	0	0	0	0.0000000000E+00	0.0000000000E+00	-6.5000000000E+03	6.5000000000E+03	9.3827000000E-01	0.000E+00	0.0
	2212	1	0	0	0	0	0.0000000000E+00	0.0000000000E+00	6.2792504378E+03	6.2792504378E+03	9.3827000000E-01	0.000E+00	0.0
	2212	1	0	0	0	0	0.0000000000E+00	0.0000000000E+00	-5.2619198907E+03	5.2619198907E+03	9.3827000000E-01	0.000E+00	0.0
	51	2	1	2	0	0	-9.2721128859E+01	-1.0967447620E+02	-1.0153222921E+03	1.4644888608E+03	1.0455728421E+03	0.000E+00	0.0
	1000022	2	5	5	0	0	9.2721128859E+01	1.0967447620E+02	-8.4338174892E+02	1.2008519305E+03	8.4269026697E+02	0.000E+00	0.0
	14	1	6	6	0	0	7.9143761467E+01	8.7483141020E+01	-5.8126613285E+01	3.5060053924E+02	3.2500000000E+02	0.000E+00	0.0
	-14	1	6	6	0	0	1.3577367392E+01	2.2191335179E+01	-7.8525513563E+02	8.5025139124E+02	3.2500000000E+02	0.000E+00	0.0
	25	2	5	5	0	0	-9.2721128859E+01	-1.0967447620E+02	-1.7394879818E+02	2.5797774095E+02	1.2517440622E+02	0.000E+00	0.0
	-5	1	9	9	0	501	-2.4072372589E+01	2.0712266653E+01	-2.8851587513E+00	3.2160125201E+01	4.1800000000E+00	0.000E+00	0.0
	5	1	9	9	501	0	-6.8648756270E+01	-1.3038674285E+02	-1.7106363943E+02	2.2581761575E+02	4.1800000000E+00	0.000E+00	0.0
</event>
<event>
    11  -1  1.0000000E+00  1.0000000E+00  -1.0000000E+00  -1.0000000E+00
	2212	-1	0	0	0	0	0.0000000000E+00	0.0000000000E+00	6.5000000000E+03	6.5000000000E+03	9.3827000000E-01	0.000E+00	0.0
	2212	-1	0	0	0	0	0.0000000000E+00	0.0000000000E+00	-6.5000000000E+03	6.5000000000E+03	9.3827000000E-01	0.000E+00	0.0
	2212	1	0	0	0	0	0.0000000000E+00	0.0000000000E+00	6.0812071615E+03	6.0812071615E+03	9.3827000000E-01	0.000E+00	0.0
	2212	1	0	0	0	0	0.0000000000E+00	0.0000000000E+00	-5.7935678295E+03	5.7935678295E+03	9.3827000000E-01	0.000E+00	0.0
	51	2	1	2	0	0	1.7613313519E+02	-2.9874877832E+01	-3.1331656741E+02	1.1460705025E+03	1.0878395726E+03	0.000E+00	0.0
	1000022	2	5	5	0	0	-1.7613313519E+02	2.9874877832E+01	-2.0792354993E+02	8.9298448924E+02	8.4986687532E+02	0.000E+00	0.0
	14	1	6	6	0	0	1.8578749012E+02	3.0302650785E+01	-1.4459268241E+02	4.0245159452E+02	3.2500000000E+02	0.000E+00	0.0
	-14	1	6	6	0	0	-3.6192062531E+02	-4.2777295269E-01	-6.3330867519E+01	4.9053289471E+02	3.2500000000E+02	0.000E+00	0.0
	25	2	5	5	0	0	1.7613313519E+02	-2.9874877832E+01	-7.9715782079E+01	2.3224051979E+02	1.2516254824E+02	0.000E+00	0.0
	-5	1	9	9	0	501	1.3074791328E+02	-6.5503204517E+01	-9.2375179870E+01	1.7302119201E+02	4.1800000000E+00	0.000E+00	0.0
	5	1	9	9	501	0	4.5385221910E+01	3.5628326685E+01	1.2659397792E+01	5.9219327780E+01	4.1800000000E+00	0.000E+00	0.0
</event>
<event>
    11  -1  1.0000000E+00  1.0000000E+00  -1.0000000E+00  -1.0000000E+00
	2212	-1	0	0	0	0	0.0000000000E+00	0.0000000000E+00	6.5000000000E+03	6.5000000000E+03	9.3827000000E-01	0.000E+00	0.0
	2212	-1	0	0	0	0	0.0000000000E+00	0.0000000000E+00	-6.5000000000E+03	6.5000000000E+03	9.3827000000E-01	0.000E+00	0.0
	2212	1	0	0	0	0	0.0000000000E+00	0.0000000000E+00	5.0963079489E+03	5.0963079489E+03	9.3827000000E-01	0.000E+00	0.0
	2212	1	0	0	0	0	0.0000000000E+00	0.0000000000E+00	-6.3041194486E+03	6.3041194486E+03	9.3827000000E-01	0.000E+00	0.0
	51	2	1	2	0	0	1.5181442587E+01	8.7362960201E+01	1.0186143675E+03	1.4646712547E+03	1.0487248884E+03	0.000E+00	0.0
	1000022	2	5	5	0	0	-1.5181442587E+01	-8.7362960201E+01	1.1769960057E+03	1.4430988729E+03	8.3027224233E+02	0.000E+00	0.0
	14	1	6	6	0	0	8.1389865850E+01	1.7774467478E+02	3.7747910390E+02	5.3510088167E+02	3.2500000000E+02	0.000E+00	0.0
	-14	1	6	6	0	0	-9.6571308437E+01	-2.6510763498E+02	7.9951690180E+02	9.0799799118E+02	3.2500000000E+02	0.000E+00	0.0
	25	2	5	5	0	0	1.5181442587E+01	8.7362960201E+01	3.0815494015E+01	1.5647372957E+02	1.2518654225E+02	0.000E+00	0.0
	-5	1	9	9	0	501	-2.9593151594E+00	7.7283632816E+01	7.4790181106E+01	1.0766875609E+02	4.1800000000E+00	0.000E+00	0.0
	5	1	9	9	501	0	1.8140757746E+01	1.0079327385E+01	-4.3974687091E+01	4.8804973486E+01	4.1800000000E+00	0.000E+00	0.0
</event>
<event>
    11  -1  1.0000000E+00  1.0000000E+00  -1.0000000E+00  -1.0000000E+00
	2212	-1	0	0	0	0	0.0000000000E+00	0.0000000000E+00	6.5000000000E+03	6.5000000000E+03	9.3827000000E-01	0.000E+00	0.0
	2212	-1	0	0	0	0	0.0000000000E+00	0.0000000000E+00	-6.5000000000E+03	6.5000000000E+03	9.3827000000E-01	0.000E+00	0.0
	2212	1	0	0	0	0	0.0000000000E+00	0.0000000000E+00	5.3983915289E+03	5.3983915289E+03	9.3827000000E-01	0.000E+00	0.0
	2212	1	0	0	0	0	0.0000000000E+00	0.0000000000E+00	-6.2485639869E+03	6.2485639869E+03	9.3827000000E-01	0.000E+00	0.0
	51	2	1	2	0	0	-8.0252199608E+01	-1.0257679287E+02	8.2669355750E+02	1.3447381976E+03	1.0525854683E+03	0.000E+00	0.0
	1000022	2	5	5	0	0	8.0252199608E+01	1.0257679287E+02	7.3321199388E+02	1.1378423453E+03	8.6030399321E+02	0.000E+00	0.0
	14	1	6	6	0	0	1.7542239487E+02	6.4648334824E+01	7.0174452664E+02	7.9562730250E+02	3.2500000000E+02	0.000E+00	0.0
	-14	1	6	6	0	0	-9.5170195267E+01	3.7928458047E+01	3.1467467239E+01	3.4221504276E+02	3.2500000000E+02	0.000E+00	0.0
	25	2	5	5	0	0	-8.0252199608E+01	-1.0257679287E+02	1.1696046410E+02	2.1520213900E+02	1.2517905771E+02	0.000E+00	0.0
	-5	1	9	9	0	501	1.8207675277E+01	-7.3819289126E+01	3.4837195864E+01	8.3737145293E+01	4.1800000000E+00	0.000E+00	0.0
	5	1	9	9	501	0	-9.8459874885E+01	-2.8757503745E+01	8.2123268239E+01	1.3146499371E+02	4.1800000000E+00	0.000E+00	0.0
</event>
<event>
    11  -1  1.0000000E+00  1.0000000E+00  -1.0000000E+00  -1.0000000E+00
	2212	-1	0	0	0	0	0.0000000000E+00	0.0000000000E+00	6.5000000000E+03	6.5000000000E+03	9.3827000000E-01	0.000E+00	0.0
	2212	-1	0	0	0	0	0.0000000000E+00	0.0000000000E+00	-6.5000000000E+03	6.5000000000E+03	9.3827000000E-01	0.000E+00	0.0
	2212	1	0	0	0	0	0.0000000000E+00	0.0000000000E+00	6.3103697538E+03	6.3103697538E+03	9.3827000000E-01	0.000E+00	0.0
	2212	1	0	0	0	0	0.0000000000E+00	0.0000000000E+00	-5.0431074761E+03	5.0431074761E+03	9.3827000000E-01	0.000E+00	0.0
	51	2	1	2	0	0	-3.6294798785E+01	2.6432732402E+01	-1.4871396411E+03	1.8217255189E+03	1.0512295430E+03	0.000E+00	0.0
	1000022	2	5	5	0	0	3.6294798785E+01	-2.6432732402E+01	-8.3181716241E+02	1.1912381329E+03	8.5153537563E+02	0.000E+00	0.0
	14	1	6	6	0	0	1.4748944655E+02	1.9080271982E+02	-5.9885833136E+02	7.2278289671E+02	3.2500000000E+02	0.000E+00	0.0
	-14	1	6	6	0	0	-1.1119464776E+02	-2.1723545223E+02	-2.3295883104E+02	4.6845523623E+02	3.2500000000E+02	0.000E+00	0.0
	25	2	5	5	0	0	-3.6294798785E+01	2.6432732402E+01	-4.3544511525E+02	4.5528463715E+02	1.2512254259E+02	0.000E+00	0.0
	-5	1	9	9	0	501	2.2006121602E-01	7.3194081017E+01	-2.2979679476E+02	2.4120833569E+02	4.1800000000E+00	0.000E+00	0.0
	5	1	9	9	501	0	-3.6514860001E+01	-4.6761348616E+01	-2.0564832049E+02	2.1407630146E+02	4.1800000000E+00	0.000E+00	0.0
</event>
<event>
    11  -1  1.0000000E+00  1.0000000E+00  -1.0000000E+00  -1.0000000E+00
	2212	-1	0	0	0	0	0.0000000000E+00	0.0000000000E+00	6.5000000000E+03	6.5000000000E+03	9.3827000000E-01	0.000E+00	0.0
	2212	-1	0	0	0	0	0.0000000000E+00	0.0000000000E+00	-6.5000000000E+03	6.5000000000E+03	9.3827000000E-01	0.000E+00	0.0
	2212	1	0	0	0	0	0.0000000000E+00	0.0000000000E+00	5.0958103152E+03	5.0958103152E+03	9.3827000000E-01	0.000E+00	0.0
	2212	1	0	0	0	0	0.0000000000E+00	0.0000000000E+00	-6.3020275427E+03	6.3020275427E+03	9.3827000000E-01	0.000E+00	0.0
	51	2	1	2	0	0	1.6479504278E+01	-1.5067416231E+02	1.1219815725E+03	1.5471846870E+03	1.0544968134E+03	0.000E+00	0.0
	1000022	2	5	5	0	0	-1.6479504278E+01	1.5067416231E+02	1.0682496089E+03	1.3619973419E+03	8.3120710721E+02	0.000E+00	0.0
	14	1	6	6	0	0	9.2481360147E+01	-6.0842355313E+01	1.8218222049E+02	3.8867718693E+02	3.2500000000E+02	0.000E+00	0.0
	-14	1	6	6	0	0	-1.0896086442E+02	2.1151651762E+02	8.8606738842E+02	9.7332015494E+02	3.2500000000E+02	0.000E+00	0.0
	25	2	5	5	0	0	1.6479504278E+01	-1.5067416231E+02	1.3796761859E+02	2.4016480020E+02	1.2517903269E+02	0.000E+00	0.0
	-5	1	9	9	0	501	3.5139543351E-01	-6.3570173743E+01	-1.3051990337E+01	6.5031663982E+01	4.1800000000E+00	0.000E+00	0.0
	5	1	9	9	501	0	1.6128108845E+01	-8.7103988564E+01	1.5101960893E+02	1.7513313622E+02	4.1800000000E+00	0.000E+00	0.0
</event>
<event>
    11  -1  1.0000000E+00  1.0000000E+00  -1.0000000E+00  -1.0000000E+00
	2212	-1	0	0	0	0	0.0000000000E+00	0.0000000000E+00	6.5000000000E+03	6.5000000000E+03	9.3827000000E-01	0.000E+00	0.0
	2212	-1	0	0	0	0	0.0000000000E+00	0.0000000000E+00	-6.5000000000E+03	6.5000000000E+03	9.3827000000E-01	0.000E+00	0.0
	2212	1	0	0	0	0	0.0000000000E+00	0.0000000000E+00	6.2002035184E+03	6.2002035184E+03	9.3827000000E-01	0.000E+00	0.0
	2212	1	0	0	0	0	0.0000000000E+00	0.0000000000E+00	-5.5710257685E+03	5.5710257685E+03	9.3827000000E-01	0.000E+00	0.0
	51	2	1	2	0	0	-4.2316654453E+01	-1.3587557319E+02	-6.8194624546E+02	1.2646408094E+03	1.0554680595E+03	0.000E+00	0.0
	1000022	2	5	5	0	0	4.2316654453E+01	1.3587557319E+02	-4.6706898121E+02	9.7936139790E+02	8.4896551393E+02	0.000E+00	0.0
	14	1	6	6	0	0	-2.1952444093E+02	9.6030958920E+01	-3.7297231154E+02	5.4967833358E+02	3.2500000000E+02	0.000E+00	0.0
	-14	1	6	6	0	0	2.6184109538E+02	3.9844614267E+01	-9.4096669672E+01	4.2968306432E+02	3.2500000000E+02	0.000E+00	0.0
	25	2	5	5	0	0	-4.2316654453E+01	-1.3587557319E+02	-1.6210876865E+02	2.4940931523E+02	1.2519138556E+02	0.000E+00	0.0
	-5	1	9	9	0	501	-2.5845975720E+01	-9.6673935565E+01	-1.7765501205E+02	2.0394273702E+02	4.1800000000E+00	0.000E+00	0.0
	5	1	9	9	501	0	-1.6470678733E+01	-3.9201637621E+01	1.5546243401E+01	4.5466578209E+01	4.1800000000E+00	0.000E+00	0.0
</event>
<event>
    11  -1  1.0000000E+00  1.0000000E+00  -1.0000000E+00  -1.0000000E+00
	2212	-1	0	0	0	0	0.0000000000E+00	0.0000000000E+00	6.5000000000E+03	6.5000000000E+03	9.3827000000E-01	0.000E+00	0.0
	2212	-1	0	0	0	0	0.0000000000E+00	0.0000000000E+00	-6.5000000000E+03	6.5000000000E+03	9.3827000000E-01	0.000E+00	0.0
	2212	1	0	0	0	0	0.0000000000E+00	0.0000000000E+00	6.3018104515E+03	6.3018104515E+03	9.3827000000E-01	0.000E+00	0.0
	2212	1	0	0	0	0	0.0000000000E+00	0.0000000000E+00	-5.1022875281E+03	5.1022875281E+03	9.3827000000E-01	0.000E+00	0.0
	51	2	1	2	0	0	9.6633963068E+00	-3.9257217261E+01	-1.1607039682E+03	1.5674553349E+03	1.0526385965E+03	0.000E+00	0.0
	1000022	2	5	5	0	0	-9.6633963068E+00	3.9257217261E+01	-1.0866734806E+03	1.4225618969E+03	9.1716333706E+02	0.000E+00	0.0
	14	1	6	6	0	0	1.7432682146E+01	-2.8969404803E+02	-6.7174444955E+02	8.0068229990E+02	3.2500000000E+02	0.000E+00	0.0
	-14	1	6	6	0	0	-2.7096078453E+01	3.2895126529E+02	-4.1492903101E+02	6.2187959701E+02	3.2500000000E+02	0.000E+00	0.0
	25	2	5	5	0	0	9.6633963068E+00	-3.9257217261E+01	-1.1284944289E+02	1.7334012347E+02	1.2520899053E+02	0.000E+00	0.0
	-5	1	9	9	0	501	3.0031802450E+01	-7.9638453529E+01	-8.3219701216E+01	1.1910996394E+02	4.1800000000E+00	0.000E+00	0.0
	5	1	9	9	501	0	-2.0368406143E+01	4.0381236268E+01	-2.9629741669E+01	5.4230159530E+01	4.1800000000E+00	0.000E+00	0.0
</event>
<event>
    11  -1  1.0000000E+00  1.0000000E+00  -1.0000000E+00  -1.0000000E+00
	2212	-1	0	0	0	0	0.0000000000E+00	0.0000000000E+00	6.5000000000E+03	6.5000000000E+03	9.3827000000E-01	0.000E+00	0.0
	2212	-1	0	0	0	0	0.0000000000E+00	0.0000000000E+00	-6.5000000000E+03	6.5000000000E+03	9.3827000000E-01	0.000E+00	0.0
	2212	1	0	0	0	0	0.0000000000E+00	0.0000000000E+00	5.9710591741E+03	5.9710591741E+03	9.3827000000E-01	0.000E+00	0.0
	2212	1	0	0	0	0	0.0000000000E+00	0.0000000000E+00	-5.9760075103E+03	5.9760075103E+03	9.3827000000E-01	0.000E+00	0.0
	51	2	1	2	0	0	7.7681064840E+01	-2.3002988537E+01	1.2548597269E+02	1.0634633495E+03	1.0529216880E+03	0.000E+00	0.0
	1000022	2	5	5	0	0	-7.7681064840E+01	2.3002988537E+01	-1.1644341031E+02	8.6066121784E+02	8.4889055760E+02	0.000E+00	0.0
	14	1	6	6	0	0	-2.4633202119E+02	7.9469064494E+01	-2.2777201679E+02	4.7381419196E+02	3.2500000000E+02	0.000E+00	0.0
	-14	1	6	6	0	0	1.6865095635E+02	-5.6466075957E+01	1.1132860648E+02	3.8684702588E+02	3.2500000000E+02	0.000E+00	0.0
	25	2	5	5	0	0	7.7681064840E+01	-2.3002988537E+01	1.2139174648E+02	1.9227209779E+02	1.2517634823E+02	0.000E+00	0.0
	-5	1	9	9	0	501	7.7274942133E+01	-2.6342937187E+01	1.1854712964E+01	8.2603714449E+01	4.1800000000E+00	0.000E+00	0.0
	5	1	9	9	501	0	4.0612270729E-01	3.3399486495E+00	1.0953703351E+02	1.0966838334E+02	4.1800000000E+00	0.000E+00	0.0
</event>
<event>
    11  -1  1.0000000E+00  1.0000000E+00  -1.0000000E+00  -1.0000000E+00
	2212	-1	0	0	0	0	0.0000000000E+00	0.0000000000E+00	6.5000000000E+03	6.5000000000E+03	9.3827000000E-01	0.000E+00	0.0
	2212	-1	0	0	0	0	0.0000000000E+00	0.0000000000E+00	-6.5000000000E+03	6.5000000000E+03	9.3827000000E-01	0.000E+00	0.0
	2212	1	0	0	0	0	0.0000000000E+00	0.0000000000E+00	6.2193673069E+03	6.2193673069E+03	9.3827000000E-01	0.000E+00	0.0
	2212	1	0	0	0	0	0.0000000000E+00	0.0000000000E+00	-5.5244582051E+03	5.5244582051E+03	9.3827000000E-01	0.000E+00	0.0
	51	2	1	2	0	0	-9.6597681441E+01	-4.0672737689E+01	-7.8433888246E+02	1.3119636241E+03	1.0464586398E+03	0.000E+00	0.0
	1000022	2	5	5	0	0	9.6597681441E+01	4.0672737689E+01	-4.9247530739E+02	9.9611006082E+02	8.5948702214E+02	0.000E+00	0.0
	14	1	6	6	0	0	-1.8695194173E+01	-1.6524043593E+02	-5.8230500880E+00	3.6512028137E+02	3.2500000000E+02	0.000E+00	0.0
	-14	1	6	6	0	0	1.1529287561E+02	2.0591317362E+02	-4.8665225730E+02	6.3098977945E+02	3.2500000000E+02	0.000E+00	0.0
	25	2	5	5	0	0	-9.6597681441E+01	-4.0672737689E+01	-2.0243379443E+02	2.6006442726E+02	1.2517460425E+02	0.000E+00	0.0
	-5	1	9	9	0	501	-5.1157124276E+00	3.6369260148E+01	-2.0412951535E+01	4.2226231038E+01	4.1800000000E+00	0.000E+00	0.0
	5	1	9	9	501	0	-9.1481969013E+01	-7.7041997837E+01	-1.8202084290E+02	2.1783819622E+02	4.1800000000E+00	0.000E+00	0.0
</event>
<event>
    11  -1  1.0000000E+00  1.0000000E+00  -1.0000000E+00  -1.0000000E+00
	2212	-1	0	0	0	0	0.0000000000E+00	0.0000000000E+00	6.5000000000E+03	6.5000000000E+03	9.3827000000E-01	0.000E+00	0.0
	2212	-1	0	0	0	0	0.0000000000E+00	0.0000000000E+00	-6.5000000000E+03	6.5000000000E+03	9.3827000000E-01	0.000E+00	0.0
	2212	1	0	0	0	0	0.0000000000E+00	0.0000000000E+00	4.8863176966E+03	4.8863176966E+03	9.3827000000E-01	0.000E+00	0.0
	2212	1	0	0	0	0	0.0000000000E+00	0.0000000000E+00	-6.3257062661E+03	6.3257062661E+03	9.3827000000E-01	0.000E+00	0.0
	51	2	1	2	0	0	5.9705405664E+01	-1.9168355776E+01	1.2231099381E+03	1.6201694165E+03	1.0606690607E+03	0.000E+00	0.0
	1000022	2	5	5	0	0	-5.9705405664E+01	1.9168355776E+01	1.4043773634E+03	1.6436360861E+03	8.5166404381E+02	0.000E+00	0.0
	14	1	6	6	0	0	1.0460742094E+01	2.8176525983E+02	7.1399164591E+02	8.3361271535E+02	3.2500000000E+02	0.000E+00	0.0
	-14	1	6	6	0	0	-7.0166147758E+01	-2.6259690406E+02	6.9038571745E+02	8.1002337076E+02	3.2500000000E+02	0.000E+00	0.0
	25	2	5	5	0	0	5.9705405664E+01	-1.9168355776E+01	3.5011206087E+01	1.4433995122E+02	1.2520413587E+02	0.000E+00	0.0
	-5	1	9	9	0	501	8.2828307037E+01	2.5089723309E+01	3.6945040438E+01	9.4193582983E+01	4.1800000000E+00	0.000E+00	0.0
	5	1	9	9	501	0	-2.3122901373E+01	-4.4258079085E+01	-1.9338343512E+00	5.0146368238E+01	4.1800000000E+00	0.000E+00	0.0
</event>
<event>
    11  -1  1.0000000E+00  1.0000000E+00  -1.0000000E+00  -1.0000000E+00
	2212	-1	0	0	0	0	0.0000000000E+00	0.0000000000E+00	6.5000000000E+03	6.5000000000E+03	9.3827000000E-01	0.000E+00	0.0
	2212	-1	0	0	0	0	0.0000000000E+00	0.0000000000E+00	-6.5000000000E+03	6.5000000000E+03	9.3827000000E-01	0.000E+00	0.0
	2212	1	0	0	0	0	0.0000000000E+00	0.0000000000E+00	6.3234023055E+03	6.3234023055E+03	9.3827000000E-01	0.000E+00	0.0
	2212	1	0	0	0	0	0.0000000000E+00	0.0000000000E+00	-4.9299927798E+03	4.9299927798E+03	9.3827000000E-01	0.000E+00	0.0
	51	2	1	2	0	0	-1.3296930712E+02	4.5964503079E+01	-1.3568218539E+03	1.7233101105E+03	1.0531090265E+03	0.000E+00	0.0
	1000022	2	5	5	0	0	1.3296930712E+02	-4.5964503079E+01	-1.1906356310E+03	1.4698658230E+03	8.5035213858E+02	0.000E+00	0.0
	14	1	6	6	0	0	2.1804767910E+02	-2.0031090762E+02	-8.9253847783E+02	9.9494682495E+02	3.2500000000E+02	0.000E+00	0.0
	-14	1	6	6	0	0	-8.5078371979E+01	1.5434640454E+02	-2.9809715322E+02	4.7491899807E+02	3.2500000000E+02	0.000E+00	0.0
	25	2	5	5	0	0	-1.3296930712E+02	4.5964503079E+01	-2.0277389469E+02	2.7673909168E+02	1.2519464971E+02	0.000E+00	0.0
	-5	1	9	9	0	501	-8.1183220975E+01	-3.3955197167E+00	-2.5081548370E+01	8.5139893062E+01	4.1800000000E+00	0.000E+00	0.0
	5	1	9	9	501	0	-5.1786086144E+01	4.9360022795E+01	-1.7769234632E+02	1.9159919862E+02	4.1800000000E+00	0.000E+00	0.0
</event>
<event>
    11  -1  1.0000000E+00  1.0000000E+00  -1.0000000E+00  -1.0000000E+00
	2212	-1	0	0	0	0	0.0000000000E+00	0.0000000000E+00	6.5000000000E+03	6.5000000000E+03	9.3827000000E-01	0.000E+00	0.0
	2212	-1	0	0	0	0	0.0000000000E+00	0.0000000000E+00	-6.5000000000E+03	6.5000000000E+03	9.3827000000E-01	0.000E+00	0.0
	2212	1	0	0	0	0	0.0000000000E+00	0.0000000000E+00	5.0951645191E+03	5.0951645191E+03	9.3827000000E-01	0.000E+00	0.0
	2212	1	0	0	0	0	0.0000000000E+00	0.0000000000E+00	-6.3058348136E+03	6.3058348136E+03	9.3827000000E-01	0.000E+00	0.0
	51	2	1	2	0	0	-7.7510220581E+01	-1.1265319282E+02	1.1758766255E+03	1.5787542515E+03	1.0445480229E+03	0.000E+00	0.0
	1000022	2	5	5	0	0	7.7510220581E+01	1.1265319282E+02	1.0386489623E+03	1.3460948249E+03	8.4526979992E+02	0.000E+00	0.0
	14	1	6	6	0	0	-1.9264335836E+01	1.8319990928E+02	1.6902796914E+02	4.1003509087E+02	3.2500000000E+02	0.000E+00	0.0
	-14	1	6	6	0	0	9.6774556417E+01	-7.0546716457E+01	8.6962099316E+02	9.3605973406E+02	3.2500000000E+02	0.000E+00	0.0
	25	2	5	5	0	0	-7.7510220581E+01	-1.1265319282E+02	1.7202133217E+02	2.5290584236E+02	1.2518566305E+02	0.000E+00	0.0
	-5	1	9	9	0	501	-6.3098809807E+00	-8.6158265612E+01	1.5092392087E+02	1.7394988825E+02	4.1800000000E+00	0.000E+00	0.0
	5	1	9	9	501	0	-7.1200339600E+01	-2.6494927208E+01	2.1097411302E+01	7.8955954117E+01	4.1800000000E+00	0.000E+00	0.0
</event>
<event>
    11  -1  1.0000000E+00  1.0000000E+00  -1.0000000E+00  -1.0000000E+00
	2212	-1	0	0	0	0	0.0000000000E+00	0.0000000000E+00	6.5000000000E+03	6.5000000000E+03	9.3827000000E-01	0.000E+00	0.0
	2212	-1	0	0	0	0	0.0000000000E+00	0.0000000000E+00	-6.5000000000E+03	6.5000000000E+03	9.3827000000E-01	0.000E+00	0.0
	2212	1	0	0	0	0	0.0000000000E+00	0.0000000000E+00	6.3027616574E+03	6.3027616574E+03	9.3827000000E-01	0.000E+00	0.0
	2212	1	0	0	0	0	0.0000000000E+00	0.0000000000E+00	-4.9269439520E+03	4.9269439520E+03	9.3827000000E-01	0.000E+00	0.0
	51	2	1	2	0	0	1.8369988745E+02	1.6172627108E+01	-1.5355178819E+03	1.9060142285E+03	1.1140322576E+03	0.000E+00	0.0
	1000022	2	5	5	0	0	-1.8369988745E+02	-1.6172627108E+01	-9.4377052970E+02	1.2841397800E+03	8.5106107851E+02	0.000E+00	0.0
	14	1	6	6	0	0	-2.6916756060E+02	1.4593770639E+02	-2.9320111834E+02	5.3417308583E+02	3.2500000000E+02	0.000E+00	0.0
	-14	1	6	6	0	0	8.5467673156E+01	-1.6211033350E+02	-6.5056941136E+02	7.4996669418E+02	3.2500000000E+02	0.000E+00	0.0
	25	2	5	5	0	0	1.8369988745E+02	1.6172627108E+01	-4.3204717571E+02	4.8615461063E+02	1.2519720795E+02	0.000E+00	0.0
	-5	1	9	9	0	501	1.6203228665E+02	6.1478042826E-01	-4.2946147038E+02	4.5903100855E+02	4.1800000000E+00	0.000E+00	0.0
	5	1	9	9	501	0	2.1667600801E+01	1.5557846679E+01	-2.5857053359E+00	2.7123602081E+01	4.1800000000E+00	0.000E+00	0.0
</event>
<event>
    11  -1  1.0000000E+00  1.0000000E+00  -1.0000000E+00  -1.0000000E+00
	2212	-1	0	0	0	0	0.0000000000E+00	0.0000000000E+00	6.5000000000E+03	6.5000000000E+03	9.3827000000E-01	0.000E+00	0.0
	2212	-1	0	0	0	0	0.0000000000E+00	0.0000000000E+00	-6.5000000000E+03	6.5000000000E+03	9.3827000000E-01	0.000E+00	0.0
	2212	1	0	0	0	0	0.0000000000E+00	0.0000000000E+00	5.6292481430E+03	5.6292481430E+03	9.3827000000E-01	0.000E+00	0.0
	2212	1	0	0	0	0	0.0000000000E+00	0.0000000000E+00	-6.1894882422E+03	6.1894882422E+03	9.3827000000E-01	0.000E+00	0.0
	51	2	1	2	0	0	-7.4009619654E+01	1.0356660980E+02	7.6502319267E+02	1.2972966934E+03	1.0399590179E+03	0.000E+00	0.0
	1000022	2	5	5	0	0	7.4009619654E+01	-1.0356660980E+02	2.3418506672E+02	8.0952922300E+02	7.6438959369E+02	0.000E+00	0.0
	14	1	6	6	0	0	2.2736421580E+01	1.5029532356E+02	1.2377874214E+02	3.7954157369E+02	3.2500000000E+02	0.000E+00	0.0
	-14	1	6	6	0	0	5.1273198074E+01	-2.5386193336E+02	1.1040632458E+02	4.2998764931E+02	3.2500000000E+02	0.000E+00	0.0
	25	2	5	5	0	0	-7.4009619654E+01	1.0356660980E+02	3.2605503249E+02	3.7173439177E+02	1.2518429352E+02	0.000E+00	0.0
	-5	1	9	9	0	501	-7.0033753223E+01	1.3190451507E+02	2.6621257734E+02	3.0527059541E+02	4.1800000000E+00	0.000E+00	0.0
	5	1	9	9	501	0	-3.9758664310E+00	-2.8337905265E+01	5.9842455149E+01	6.6463796362E+01	4.1800000000E+00	0.000E+00	0.0
</event>
<event>
    11  -1  1.0000000E+00  1.0000000E+00  -1.0000000E+00  -1.0000000E+00
	2212	-1	0	0	0	0	0.0000000000E+00	0.0000000000E+00	6.5000000000E+03	6.5000000000E+03	9.3827000000E-01	0.000E+00	0.0
	2212	-1	0	0	0	0	0.0000000000E+00	0.0000000000E+00	-6.5000000000E+03	6.5000000000E+03	9.3827000000E-01	0.000E+00	0.0
	2212	1	0	0	0	0	0.0000000000E+00	0.0000000000E+00	6.3032715869E+03	6.3032715869E+03	9.3827000000E-01	0.000E+00	0.0
	2212	1	0	0	0	0	0.0000000000E+00	0.0000000000E+00	-5.0969134379E+03	5.0969134379E+03	9.3827000000E-01	0.000E+00	0.0
	51	2	1	2	0	0	-9.4536137328E+01	-1.0227618230E+01	-1.4336775246E+03	1.7800508142E+03	1.0507654216E+03	0.000E+00	0.0
	1000022	2	5	5	0	0	9.4536137328E+01	1.0227618230E+01	-7.5340683198E+02	1.1203567544E+03	8.2373279473E+02	0.000E+00	0.0
	14	1	6	6	0	0	5.1163386367E+01	2.5713106895E+02	-3.4991079379E+02	5.4479045727E+02	3.2500000000E+02	0.000E+00	0.0
	-14	1	6	6	0	0	4.3372750962E+01	-2.4690345072E+02	-4.0349603819E+02	5.7556629708E+02	3.2500000000E+02	0.000E+00	0.0
	25	2	5	5	0	0	-9.4536137328E+01	-1.0227618230E+01	-4.5295131697E+02	4.7945822082E+02	1.2519426714E+02	0.000E+00	0.0
	-5	1	9	9	0	501	-6.9540384311E+01	-3.6606059940E+01	-4.2800932755E+02	4.3518424322E+02	4.1800000000E+00	0.000E+00	0.0
	5	1	9	9	501	0	-2.4995753018E+01	2.6378441709E+01	-2.4941989419E+01	4.4273977595E+01	4.1800000000E+00	0.000E+00	0.0
</event>
<event>
    11  -1  1.0000000E+00  1.0000000E+00  -1.0000000E+00  -1.0000000E+00
	2212	-1	0	0	0	0	0.0000000000E+00	0.0000000000E+00	6.5000000000E+03	6.5000000000E+03	9.3827000000E-01	0.000E+00	0.0
	2212	-1	0	0	0	0	0.0000000000E+00	0.0000000000E+00	-6.5000000000E+03	6.5000000000E+03	9.3827000000E-01	0.000E+00	0.0
	2212	1	0	0	0	0	0.0000000000E+00	0.0000000000E+00	6.2134186721E+03	6.2134186721E+03	9.3827000000E-01	0.000E+00	0.0
	2212	1	0	0	0	0	0.0000000000E+00	0.0000000000E+00	-5.5461722354E+03	5.5461722354E+03	9.3827000000E-01	0.000E+00	0.0
	51	2	1	2	0	0	3.4085090457E+01	1.6005811233E+01	-8.0985952716E+02	1.3231354210E+03	1.0456562099E+03	0.000E+00	0.0
	1000022	2	5	5	0	0	-3.4085090457E+01	-1.6005811233E+01	-4.1749885312E+02	9.5852006760E+02	8.6199619967E+02	0.000E+00	0.0
	14	1	6	6	0	0	-1.2849049418E+02	-2.5521015162E+02	-3.0391646659E+02	5.2880265435E+02	3.2500000000E+02	0.000E+00	0.0
	-14	1	6	6	0	0	9.4405403727E+01	2.3920434039E+02	-1.1358238652E+02	4.2971741324E+02	3.2500000000E+02	0.000E+00	0.0
	25	2	5	5	0	0	3.4085090457E+01	1.6005811233E+01	-2.4974758358E+02	2.8188902485E+02	1.2517822270E+02	0.000E+00	0.0
	-5	1	9	9	0	501	2.5548081207E+01	-4.1594582899E+01	-1.9769013835E+02	2.0367051082E+02	4.1800000000E+00	0.000E+00	0.0
	5	1	9	9	501	0	8.5370092504E+00	5.7600394132E+01	-5.2057445236E+01	7.8218514021E+01	4.1800000000E+00	0.000E+00	0.0
</event>
<event>
    11  -1  1.0000000E+00  1.0000000E+00  -1.0000000E+00  -1.0000000E+00
	2212	-1	0	0	0	0	0.0000000000E+00	0.0000000000E+00	6.5000000000E+03	6.5000000000E+03	9.3827000000E-01	0.000E+00	0.0
	2212	-1	0	0	0	0	0.0000000000E+00	0.0000000000E+00	-6.5000000000E+03	6.5000000000E+03	9.3827000000E-01	0.000E+00	0.0
	2212	1	0	0	0	0	0.0000000000E+00	0.0000000000E+00	6.2620943306E+03	6.2620943306E+03	9.3827000000E-01	0.000E+00	0.0
	2212	1	0	0	0	0	0.0000000000E+00	0.0000000000E+00	-5.3431289502E+03	5.3431289502E+03	9.3827000000E-01	0.000E+00	0.0
	51	2	1	2	0	0	8.1251432014E+01	-1.1554141274E+02	-9.4289294969E+02	1.4177106383E+03	1.0492400708E+03	0.000E+00	0.0
	1000022	2	5	5	0	0	-8.1251432014E+01	1.1554141274E+02	-7.3781686901E+02	1.1332178046E+03	8.4844401535E+02	0.000E+00	0.0
	14	1	6	6	0	0	2.2016088090E+02	1.2180483473E+02	-4.2085042676E+02	5.8825786263E+02	3.2500000000E+02	0.000E+00	0.0
	-14	1	6	6	0	0	-3.0141231291E+02	-6.2634219939E+00	-3.1696644225E+02	5.4495994196E+02	3.2500000000E+02	0.000E+00	0.0
	25	2	5	5	0	0	8.1251432014E+01	-1.1554141274E+02	-1.8114851140E+02	2.6155891466E+02	1.2508664754E+02	0.000E+00	0.0
	-5	1	9	9	0	501	7.7562438617E+01	-6.9899212887E+01	-3.7973288701E+01	1.1118127046E+02	4.1800000000E+00	0.000E+00	0.0
	5	1	9	9	501	0	3.6889933962E+00	-4.5642199854E+01	-1.4317522270E+02	1.5037764420E+02	4.1800000000E+00	0.000E+00	0.0
</event>
<event>
    11  -1  1.0000000E+00  1.0000000E+00  -1.0000000E+00  -1.0000000E+00
	2212	-1	0	0	0	0	0.0000000000E+00	0.0000000000E+00	6.5000000000E+03	6.5000000000E+03	9.3827000000E-01	0.000E+00	0.0
	2212	-1	0	0	0	0	0.0000000000E+00	0.0000000000E+00	-6.5000000000E+03	6.5000000000E+03	9.3827000000E-01	0.000E+00	0.0
	2212	1	0	0	0	0	0.0000000000E+00	0.0000000000E+00	6.0353445302E+03	6.0353445302E+03	9.3827000000E-01	0.000E+00	0.0
	2212	1	0	0	0	0	0.0000000000E+00	0.0000000000E+00	-5.8768574864E+03	5.8768574864E+03	9.3827000000E-01	0.000E+00	0.0
	51	2	1	2	0	0	1.5736108574E+02	-1.9629083944E+01	-1.7471554959E+02	1.1017529874E+03	1.0761906475E+03	0.000E+00	0.0
	1000022	2	5	5	0	0	-1.5736108574E+02	1.9629083944E+01	-1.1415650175E+02	8.8096072454E+02	8.5901820647E+02	0.000E+00	0.0
	14	1	6	6	0	0	-1.4713049707E+02	2.4920636160E+02	7.2766929345E+01	4.4121561604E+02	3.2500000000E+02	0.000E+00	0.0
	-14	1	6	6	0	0	-1.0230588663E+01	-2.2957727766E+02	-1.8692343110E+02	4.3974510850E+02	3.2500000000E+02	0.000E+00	0.0
	25	2	5	5	0	0	1.5736108574E+02	-1.9629083944E+01	-4.4330542056E+01	2.0683725887E+02	1.2517444810E+02	0.000E+00	0.0
	-5	1	9	9	0	501	4.5769329085E+01	-3.6753249056E+01	3.5295253808E+01	6.8621134809E+01	4.1800000000E+00	0.000E+00	0.0
	5	1	9	9	501	0	1.1159175665E+02	1.7124165112E+01	-7.9625795864E+01	1.3821612406E+02	4.1800000000E+00	0.000E+00	0.0
</event>
<event>
    11  -1  1.0000000E+00  1.0000000E+00  -1.0000000E+00  -1.0000000E+00
	2212	-1	0	0	0	0	0.0000000000E+00	0.0000000000E+00	6.5000000000E+03	6.5000000000E+03	9.3827000000E-01	0.000E+00	0.0
	2212	-1	0	0	0	0	0.0000000000E+00	0.0000000000E+00	-6.5000000000E+03	6.5000000000E+03	9.3827000000E-01	0.000E+00	0.0
	2212	1	0	0	0	0	0.0000000000E+00	0.0000000000E+00	5.1811189450E+03	5.1811189450E+03	9.3827000000E-01	0.000E+00	0.0
	2212	1	0	0	0	0	0.0000000000E+00	0.0000000000E+00	-6.2932678342E+03	6.2932678342E+03	9.3827000000E-01	0.000E+00	0.0
	51	2	1	2	0	0	-7.7138141447E+00	-1.1675510711E+02	1.0220926432E+03	1.4659417373E+03	1.0443277972E+03	0.000E+00	0.0
	1000022	2	5	5	0	0	7.7138141447E+00	1.1675510711E+02	1.0151811166E+03	1.3287306422E+03	8.4925918427E+02	0.000E+00	0.0
	14	1	6	6	0	0	-3.0236659688E+01	2.7517402414E+02	2.8574429684E+02	5.1372152216E+02	3.2500000000E+02	0.000E+00	0.0
	-14	1	6	6	0	0	3.7950473832E+01	-1.5841891704E+02	7.2943681972E+02	8.1500912001E+02	3.2500000000E+02	0.000E+00	0.0
	25	2	5	5	0	0	-7.7138141447E+00	-1.1675510711E+02	9.6967772553E+01	1.9688257864E+02	1.2517484929E+02	0.000E+00	0.0
	-5	1	9	9	0	501	-3.1080171379E+01	-1.1617049931E+02	1.1547777635E+02	1.6677575122E+02	4.1800000000E+00	0.000E+00	0.0
	5	1	9	9	501	0	2.3366357234E+01	-5.8460779820E-01	-1.8510003802E+01	3.0106827422E+01	4.1800000000E+00	0.000E+00	0.0
</event>
<event>
    11  -1  1.0000000E+00  1.0000000E+00  -1.0000000E+00  -1.0000000E+00
	2212	-1	0	0	0	0	0.0000000000E+00	0.0000000000E+00	6.5000000000E+03	6.5000000000E+03	9.3827000000E-01	0.000E+00	0.0
	2212	-1	0	0	0	0	0.0000000000E+00	0.0000000000E+00	-6.5000000000E+03	6.5000000000E+03	9.3827000000E-01	0.000E+00	0.0
	2212	1	0	0	0	0	0.0000000000E+00	0.0000000000E+00	5.9052649046E+03	5.9052649046E+03	9.3827000000E-01	0.000E+00	0.0
	2212	1	0	0	0	0	0.0000000000E+00	0.0000000000E+00	-6.0389543694E+03	6.0389543694E+03	9.3827000000E-01	0.000E+00	0.0
	51	2	1	2	0	0	-2.9439630571E+01	1.0540123724E+02	6.1038689951E+01	1.0547520574E+03	1.0472822295E+03	0.000E+00	0.0
	1000022	2	5	5	0	0	2.9439630571E+01	-1.0540123724E+02	1.8420409426E+02	8.8199445580E+02	8.5557405236E+02	0.000E+00	0.0
	14	1	6	6	0	0	2.8545710611E+02	-6.0828596662E+01	1.5989609346E+02	4.6516409825E+02	3.2500000000E+02	0.000E+00	0.0
	-14	1	6	6	0	0	-2.5601747554E+02	-4.4572640577E+01	2.4308000799E+01	4.1683035755E+02	3.2500000000E+02	0.000E+00	0.0
	25	2	5	5	0	0	-2.9439630571E+01	1.0540123724E+02	-5.0514629489E+01	1.7378627014E+02	1.2519515661E+02	0.000E+00	0.0
	-5	1	9	9	0	501	-7.2472554265E+01	8.9932973664E+01	-1.6735119213E+01	1.1678076678E+02	4.1800000000E+00	0.000E+00	0.0
	5	1	9	9	501	0	4.3032923694E+01	1.5468263574E+01	-3.3779510276E+01	5.7005503367E+01	4.1800000000E+00	0.000E+00	0.0
</event>
<event>
    11  -1  1.0000000E+00  1.0000000E+00  -1.0000000E+00  -1.0000000E+00
	2212	-1	0	0	0	0	0.0000000000E+00	0.0000000000E+00	6.5000000000E+03	6.5000000000E+03	9.3827000000E-01	0.000E+00	0.0
	2212	-1	0	0	0	0	0.0000000000E+00	0.0000000000E+00	-6.5000000000E+03	6.5000000000E+03	9.3827000000E-01	0.000E+00	0.0
	2212	1	0	0	0	0	0.0000000000E+00	0.0000000000E+00	5.1379337914E+03	5.1379337914E+03	9.3827000000E-01	0.000E+00	0.0
	2212	1	0	0	0	0	0.0000000000E+00	0.0000000000E+00	-6.3004494250E+03	6.3004494250E+03	9.3827000000E-01	0.000E+00	0.0
	51	2	1	2	0	0	1.0247653676E+02	-3.3301273627E+01	1.2760254870E+03	1.6513799804E+03	1.0426909325E+03	0.000E+00	0.0
	1000022	2	5	5	0	0	-1.0247653676E+02	3.3301273627E+01	8.5784555965E+02	1.2150664952E+03	8.5374303407E+02	0.000E+00	0.0
	14	1	6	6	0	0	-2.7229507067E+02	-7.2243495722E+01	2.5030837197E+02	4.9763742752E+02	3.2500000000E+02	0.000E+00	0.0
	-14	1	6	6	0	0	1.6981853391E+02	1.0554476935E+02	6.0753718768E+02	7.1742906772E+02	3.2500000000E+02	0.000E+00	0.0
	25	2	5	5	0	0	1.0247653676E+02	-3.3301273627E+01	3.0467007386E+02	3.4655028836E+02	1.2515124069E+02	0.000E+00	0.0
	-5	1	9	9	0	501	7.2378102449E+00	-3.8565438102E+01	1.6140120598E+01	4.2633963059E+01	4.1800000000E+00	0.000E+00	0.0
	5	1	9	9	501	0	9.5238726515E+01	5.2641644755E+00	2.8852995326E+02	3.0391632530E+02	4.1800000000E+00	0.000E+00	0.0
</event>
<event>
    11  -1  1.0000000E+00  1.0000000E+00  -1.0000000E+00  -1.0000000E+00
	2212	-1	0	0	0	0	0.0000000000E+00	0.0000000000E+00	6.5000000000E+03	6.5000000000E+03	9.3827000000E-01	0.000E+00	0.0
	2212	-1	0	0	0	0	0.0000000000E+00	0.0000000000E+00	-6.5000000000E+03	6.5000000000E+03	9.3827000000E-01	0.000E+00	0.0
	2212	1	0	0	0	0	0.0000000000E+00	0.0000000000E+00	6.2805913128E+03	6.2805913128E+03	9.3827000000E-01	0.000E+00	0.0
	2212	1	0	0	0	0	0.0000000000E+00	0.0000000000E+00	-5.2216341146E+03	5.2216341146E+03	9.3827000000E-01	0.000E+00	0.0
	51	2	1	2	0	0	1.5960795055E+02	1.4375589898E+01	-9.9592380695E+02	1.4626974765E+03	1.0592159001E+03	0.000E+00	0.0
	1000022	2	5	5	0	0	-1.5960795055E+02	-1.4375589898E+01	-9.2512217723E+02	1.2544036802E+03	8.3186308648E+02	0.000E+00	0.0
	14	1	6	6	0	0	-3.4323729706E+01	4.9493729801E+00	-7.4785591041E+01	3.3529166310E+02	3.2500000000E+02	0.000E+00	0.0
	-14	1	6	6	0	0	-1.2528422084E+02	-1.9324962878E+01	-8.5033658619E+02	9.1911201711E+02	3.2500000000E+02	0.000E+00	0.0
	25	2	5	5	0	0	1.5960795055E+02	1.4375589898E+01	-1.3383502094E+02	2.4337089246E+02	1.2504488395E+02	0.000E+00	0.0
	-5	1	9	9	0	501	3.2261461342E+01	-4.9990022942E+01	-2.9385953839E+01	6.6489179305E+01	4.1800000000E+00	0.000E+00	0.0
	5	1	9	9	501	0	1.2734648921E+02	6.4365612840E+01	-1.0444906710E+02	1.7688171315E+02	4.1800000000E+00	0.000E+00	0.0
</event>
<event>
    11  -1  1.0000000E+00  1.0000000E+00  -1.0000000E+00  -1.0000000E+00
	2212	-1	0	0	0	0	0.0000000000E+00	0.0000000000E+00	6.5000000000E+03	6.5000000000E+03	9.3827000000E-01	0.000E+00	0.0
	2212	-1	0	0	0	0	0.0000000000E+00	0.0000000000E+00	-6.5000000000E+03	6.5000000000E+03	9.3827000000E-01	0.000E+00	0.0
	2212	1	0	0	0	0	0.0000000000E+00	0.0000000000E+00	5.7524076021E+03	5.7524076021E+03	9.3827000000E-01	0.000E+00	0.0
	2212	1	0	0	0	0	0.0000000000E+00	0.0000000000E+00	-6.1263205391E+03	6.1263205391E+03	9.3827000000E-01	0.000E+00	0.0
	51	2	1	2	0	0	1.5307278028E+01	-1.6554634744E+02	3.2846697525E+02	1.1193614950E+03	1.0570902027E+03	0.000E+00	0.0
	1000022	2	5	5	0	0	-1.5307278028E+01	1.6554634744E+02	3.4881889388E+02	9.1165030003E+02	8.2570681414E+02	0.000E+00	0.0
	14	1	6	6	0	0	2.1711906135E+02	1.9383347504E+02	2.3344676066E+02	4.9480753118E+02	3.2500000000E+02	0.000E+00	0.0
	-14	1	6	6	0	0	-2.3242633937E+02	-2.8287127604E+01	1.1537213322E+02	4.1684276885E+02	3.2500000000E+02	0.000E+00	0.0
	25	2	5	5	0	0	1.5307278028E+01	-1.6554634744E+02	2.5094043129E+01	2.0962155870E+02	1.2518618518E+02	0.000E+00	0.0
	-5	1	9	9	0	501	3.1531592529E+01	-8.5465555885E+01	7.1212786815E+01	1.1570365585E+02	4.1800000000E+00	0.000E+00	0.0
	5	1	9	9	501	0	-1.6224314501E+01	-8.0080791555E+01	-4.6118743685E+01	9.3917902853E+01	4.1800000000E+00	0.000E+00	0.0
</event>
<event>
    11  -1  1.0000000E+00  1.0000000E+00  -1.0000000E+00  -1.0000000E+00
	2212	-1	0	0	0	0	0.0000000000E+00	0.0000000000E+00	6.5000000000E+03	6.5000000000E+03	9.3827000000E-01	0.000E+00	0.0
	2212	-1	0	0	0	0	0.0000000000E+00	0.0000000000E+00	-6.5000000000E+03	6.5000000000E+03	9.3827000000E-01	0.000E+00	0.0
	2212	1	0	0	0	0	0.0000000000E+00	0.0000000000E+00	6.2745250276E+03	6.2745250276E+03	9.3827000000E-01	0.000E+00	0.0
	2212	1	0	0	0	0	0.0000000000E+00	0.0000000000E+00	-5.2429531150E+03	5.2429531150E+03	9.3827000000E-01	0.000E+00	0.0
	51	2	1	2	0	0	1.3291910117E+02	5.9273219563E+01	-1.1177090998E+03	1.5505434147E+03	1.0647677902E+03	0.000E+00	0.0
	1000022	2	5	5	0	0	-1.3291910117E+02	-5.9273219563E+01	-7.6318317705E+02	1.1525777909E+03	8.5135550759E+02	0.000E+00	0.0
	14	1	6	6	0	0	1.1611082862E+02	-2.3000317648E+02	-3.0486612060E+02	5.1473443367E+02	3.2500000000E+02	0.000E+00	0.0
	-14	1	6	6	0	0	-2.4902992979E+02	1.7072995692E+02	-4.5831705645E+02	6.3784335722E+02	3.2500000000E+02	0.000E+00	0.0
	25	2	5	5	0	0	1.3291910117E+02	5.9273219563E+01	-2.6838873553E+02	3.2994406659E+02	1.2509904757E+02	0.000E+00	0.0
	-5	1	9	9	0	501	3.5621814981E+01	5.5240559954E+01	-2.9950746685E+01	7.2352973634E+01	4.1800000000E+00	0.000E+00	0.0
	5	1	9	9	501	0	9.7297286192E+01	4.0326596083E+00	-2.3843798885E+02	2.5759109295E+02	4.1800000000E+00	0.000E+00	0.0
</event>
<event>
    11  -1  1.0000000E+00  1.0000000E+00  -1.0000000E+00  -1.0000000E+00
	2212	-1	0	0	0	0	0.0000000000E+00	0.0000000000E+00	6.5000000000E+03	6.5000000000E+03	9.3827000000E-01	0.000E+00	0.0
	2212	-1	0	0	0	0	0.0000000000E+00	0.0000000000E+00	-6.5000000000E+03	6.5000000000E+03	9.3827000000E-01	0.000E+00	0.0
	2212	1	0	0	0	0	0.0000000000E+00	0.0000000000E+00	6.1487665848E+03	6.1487665848E+03	9.3827000000E-01	0.000E+00	0.0
	2212	1	0	0	0	0	0.0000000000E+00	0.0000000000E+00	-5.7136858446E+03	5.7136858446E+03	9.3827000000E-01	0.000E+00	0.0
	51	2	1	2	0	0	1.9928188843E+01	2.3234182706E+01	-2.5752049566E+02	1.0825770137E+03	1.0510562425E+03	0.000E+00	0.0
	1000022	2	5	5	0	0	-1.9928188843E+01	-2.3234182706E+01	-5.3032504789E+02	9.7729762888E+02	8.2032252135E+02	0.000E+00	0.0
	14	1	6	6	0	0	2.1182224284E+02	5.0108178079E+01	-3.7756055545E+02	5.4365105087E+02	3.2500000000E+02	0.000E+00	0.0
	-14	1	6	6	0	0	-2.3175043168E+02	-7.3342360786E+01	-1.5276449243E+02	4.3364657801E+02	3.2500000000E+02	0.000E+00	0.0
	25	2	5	5	0	0	1.9928188843E+01	2.3234182706E+01	9.5244307751E+01	1.6024994174E+02	1.2518628404E+02	0.000E+00	0.0
	-5	1	9	9	0	501	3.8129168075E+01	4.3178693516E+01	-3.4352357479E+00	5.7857638013E+01	4.1800000000E+00	0.000E+00	0.0
	5	1	9	9	501	0	-1.8200979232E+01	-1.9944510810E+01	9.8679543499E+01	1.0239230372E+02	4.1800000000E+00	0.000E+00	0.0
</event>
<event>
    11  -1  1.0000000E+00  1.0000000E+00  -1.0000000E+00  -1.0000000E+00
	2212	-1	0	0	0	0	0.0000000000E+00	0.0000000000E+00	6.5000000000E+03	6.5000000000E+03	9.3827000000E-01	0.000E+00	0.0
	2212	-1	0	0	0	0	0.0000000000E+00	0.0000000000E+00	-6.5000000000E+03	6.5000000000E+03	9.3827000000E-01	0.000E+00	0.0
	2212	1	0	0	0	0	0.0000000000E+00	0.0000000000E+00	5.7845666760E+03	5.7845666760E+03	9.3827000000E-01	0.000E+00	0.0
	2212	1	0	0	0	0	0.0000000000E+00	0.0000000000E+00	-6.1114085289E+03	6.1114085289E+03	9.3827000000E-01	0.000E+00	0.0
	51	2	1	2	0	0	1.0072986207E+02	2.8363954896E+01	4.3841633285E+02	1.1468238973E+03	1.0545355145E+03	0.000E+00	0.0
	1000022	2	5	5	0	0	-1.0072986207E+02	-2.8363954896E+01	1.5852890583E+02	8.6957130746E+02	8.4857046008E+02	0.000E+00	0.0
	14	1	6	6	0	0	1.5856334546E+02	-1.8228457448E+02	2.1478503799E+01	4.0553215254E+02	3.2500000000E+02	0.000E+00	0.0
	-14	1	6	6	0	0	-2.5929320753E+02	1.5392061959E+02	1.3705040204E+02	4.6403915492E+02	3.2500000000E+02	0.000E+00	0.0
	25	2	5	5	0	0	1.0072986207E+02	2.8363954896E+01	1.6831294703E+02	2.3445348761E+02	1.2525242779E+02	0.000E+00	0.0
	-5	1	9	9	0	501	7.2719879471E+01	4.2550700345E+01	1.8149777097E+02	2.0014408869E+02	4.1800000000E+00	0.000E+00	0.0
	5	1	9	9	501	0	2.8009982600E+01	-1.4186745449E+01	-1.3184823947E+01	3.4309398919E+01	4.1800000000E+00	0.000E+00	0.0
</event>
<event>
    11  -1  1.0000000E+00  1.0000000E+00  -1.0000000E+00  -1.0000000E+00
	2212	-1	0	0	0	0	0.0000000000E+00	0.0000000000E+00	6.5000000000E+03	6.5000000000E+03	9.3827000000E-01	0.000E+00	0.0
	2212	-1	0	0	0	0	0.0000000000E+00	0.0000000000E+00	-6.5000000000E+03	6.5000000000E+03	9.3827000000E-01	0.000E+00	0.0
	2212	1	0	0	0	0	0.0000000000E+00	0.0000000000E+00	6.2961488202E+03	6.2961488202E+03	9.3827000000E-01	0.000E+00	0.0
	2212	1	0	0	0	0	0.0000000000E+00	0.0000000000E+00	-5.1476583731E+03	5.1476583731E+03	9.3827000000E-01	0.000E+00	0.0
	51	2	1	2	0	0	1.3339821113E+02	-1.0656950256E+01	-1.2360555840E+03	1.6274052368E+03	1.0500979692E+03	0.000E+00	0.0
	1000022	2	5	5	0	0	-1.3339821113E+02	1.0656950256E+01	-8.6331182253E+02	1.2172161225E+03	8.4758429240E+02	0.000E+00	0.0
	14	1	6	6	0	0	-1.6804217793E+02	3.1686323812E+01	-9.1031071625E+01	3.7835677962E+02	3.2500000000E+02	0.000E+00	0.0
	-14	1	6	6	0	0	3.4643966802E+01	-2.1029373556E+01	-7.7228075091E+02	8.3885934292E+02	3.2500000000E+02	0.000E+00	0.0
	25	2	5	5	0	0	1.3339821113E+02	-1.0656950256E+01	-2.8517862455E+02	3.3897668425E+02	1.2517863730E+02	0.000E+00	0.0
	-5	1	9	9	0	501	1.5151686522E+02	-3.2022237582E+01	-2.4119732187E+02	2.8666427162E+02	4.1800000000E+00	0.000E+00	0.0
	5	1	9	9	501	0	-1.8118654093E+01	2.1365287326E+01	-4.3981302683E+01	5.2312412622E+01	4.1800000000E+00	0.000E+00	0.0
</event>
<event>
    11  -1  1.0000000E+00  1.0000000E+00  -1.0000000E+00  -1.0000000E+00
	2212	-1	0	0	0	0	0.0000000000E+00	0.0000000000E+00	6.5000000000E+03	6.5000000000E+03	9.3827000000E-01	0.000E+00	0.0
	2212	-1	0	0	0	0	0.0000000000E+00	0.0000000000E+00	-6.5000000000E+03	6.5000000000E+03	9.3827000000E-01	0.000E+00	0.0
	2212	1	0	0	0	0	0.0000000000E+00	0.0000000000E+00	6.0848238710E+03	6.0848238710E+03	9.3827000000E-01	0.000E+00	0.0
	2212	1	0	0	0	0	0.0000000000E+00	0.0000000000E+00	-5.8614245569E+03	5.8614245569E+03	9.3827000000E-01	0.000E+00	0.0
	51	2	1	2	0	0	-2.0534596534E+01	-8.6185172439E+01	-2.9645556062E+02	1.0752769761E+03	1.0297985834E+03	0.000E+00	0.0
	1000022	2	5	5	0	0	2.0534596534E+01	8.6185172439E+01	-1.1510529218E+02	8.6601320840E+02	8.5374474829E+02	0.000E+00	0.0
	14	1	6	6	0	0	-2.5548516298E+02	1.2034295890E+02	-5.9994069913E+01	4.3471759187E+02	3.2500000000E+02	0.000E+00	0.0
	-14	1	6	6	0	0	2.7601975952E+02	-3.4157786461E+01	-5.5111222263E+01	4.3129561653E+02	3.2500000000E+02	0.000E+00	0.0
	25	2	5	5	0	0	-2.0534596534E+01	-8.6185172439E+01	-1.0829402192E+02	1.8773836379E+02	1.2517405662E+02	0.000E+00	0.0
	-5	1	9	9	0	501	-3.8220603181E+01	-3.2746629195E+01	-1.1990972311E+02	1.3011137663E+02	4.1800000000E+00	0.000E+00	0.0
	5	1	9	9	501	0	1.7686006647E+01	-5.3438543243E+01	1.1615701192E+01	5.7626987161E+01	4.1800000000E+00	0.000E+00	0.0
</event>
<event>
    11  -1  1.0000000E+00  1.0000000E+00  -1.0000000E+00  -1.0000000E+00
	2212	-1	0	0	0	0	0.0000000000E+00	0.0000000000E+00	6.5000000000E+03	6.5000000000E+03	9.3827000000E-01	0.000E+00	0.0
	2212	-1	0	0	0	0	0.0000000000E+00	0.0000000000E+00	-6.5000000000E+03	6.5000000000E+03	9.3827000000E-01	0.000E+00	0.0
	2212	1	0	0	0	0	0.0000000000E+00	0.0000000000E+00	6.3352820362E+03	6.3352820362E+03	9.3827000000E-01	0.000E+00	0.0
	2212	1	0	0	0	0	0.0000000000E+00	0.0000000000E+00	-4.8496656056E+03	4.8496656056E+03	9.3827000000E-01	0.000E+00	0.0
	51	2	1	2	0	0	-3.1667209026E+01	-5.9304832566E+01	-1.6898194901E+03	1.9867985979E+03	1.0427650186E+03	0.000E+00	0.0
	1000022	2	5	5	0	0	3.1667209026E+01	5.9304832566E+01	-1.0361711710E+03	1.3436813806E+03	8.5282417979E+02	0.000E+00	0.0
	14	1	6	6	0	0	4.0384534564E-01	-1.4599854616E+02	-8.3685002626E+02	9.0953763255E+02	3.2500000000E+02	0.000E+00	0.0
	-14	1	6	6	0	0	3.1263363681E+01	2.0530337873E+02	-1.9932114476E+02	4.3414374806E+02	3.2500000000E+02	0.000E+00	0.0
	25	2	5	5	0	0	-3.1667209026E+01	-5.9304832566E+01	-4.4944525962E+02	4.7137097760E+02	1.2517859974E+02	0.000E+00	0.0
	-5	1	9	9	0	501	2.4792723576E+01	2.0399373120E+01	-2.1399149962E+02	2.1642700357E+02	4.1800000000E+00	0.000E+00	0.0
	5	1	9	9	501	0	-5.6459932602E+01	-7.9704205687E+01	-2.3545376000E+02	2.5494397402E+02	4.1800000000E+00	0.000E+00	0.0
</event>
<event>
    11  -1  1.0000000E+00  1.0000000E+00  -1.0000000E+00  -1.0000000E+00
	2212	-1	0	0	0	0	0.0000000000E+00	0.0000000000E+00	6.5000000000E+03	6.5000000000E+03	9.3827000000E-01	0.000E+00	0.0
	2212	-1	0	0	0	0	0.0000000000E+00	0.0000000000E+00	-6.5000000000E+03	6.5000000000E+03	9.3827000000E-01	0.000E+00	0.0
	2212	1	0	0	0	0	0.0000000000E+00	0.0000000000E+00	6.1918492871E+03	6.1918492871E+03	9.3827000000E-01	0.000E+00	0.0
	2212	1	0	0	0	0	0.0000000000E+00	0.0000000000E+00	-5.6173758872E+03	5.6173758872E+03	9.3827000000E-01	0.000E+00	0.0
	51	2	1	2	0	0	6.8186301597E+01	2.6311584400E+01	-6.6372734059E+02	1.2384670573E+03	1.0430364318E+03	0.000E+00	0.0
	1000022	2	5	5	0	0	-6.8186301597E+01	-2.6311584400E+01	-3.9808049258E+02	9.6245997884E+02	8.7322360315E+02	0.000E+00	0.0
	14	1	6	6	0	0	5.6139522787E+01	-2.8140584767E+02	-1.2257873885E+02	4.5054571837E+02	3.2500000000E+02	0.000E+00	0.0
	-14	1	6	6	0	0	-1.2432582438E+02	2.5509426327E+02	-2.7550175374E+02	5.1191426047E+02	3.2500000000E+02	0.000E+00	0.0
	25	2	5	5	0	0	6.8186301597E+01	2.6311584400E+01	-1.7639290732E+02	2.2831484676E+02	1.2518602279E+02	0.000E+00	0.0
	-5	1	9	9	0	501	-1.1625895674E+01	-6.7684735722E+00	-1.2884044598E+02	1.2960828139E+02	4.1800000000E+00	0.000E+00	0.0
	5	1	9	9	501	0	7.9812197271E+01	3.3080057972E+01	-4.7552461344E+01	9.8706565377E+01	4.1800000000E+00	0.000E+00	0.0
</event>
<event>
    11  -1  1.0000000E+00  1.0000000E+00  -1.0000000E+00  -1.0000000E+00
	2212	-1	0	0	0	0	0.0000000000E+00	0.0000000000E+00	6.5000000000E+03	6.5000000000E+03	9.3827000000E-01	0.000E+00	0.0
	2212	-1	0	0	0	0	0.0000000000E+00	0.0000000000E+00	-6.5000000000E+03	6.5000000000E+03	9.3827000000E-01	0.000E+00	0.0
	2212	1	0	0	0	0	0.0000000000E+00	0.0000000000E+00	6.2407589787E+03	6.2407589787E+03	9.3827000000E-01	0.000E+00	0.0
	2212	1	0	0	0	0	0.0000000000E+00	0.0000000000E+00	-5.3716546296E+03	5.3716546296E+03	9.3827000000E-01	0.000E+00	0.0
	51	2	1	2	0	0	-1.5591881640E+02	3.4316841068E+01	-9.1365162954E+02	1.4248863983E+03	1.0816901705E+03	0.000E+00	0.0
	1000022	2	5	5	0	0	1.5591881640E+02	-3.4316841068E+01	-6.6976108450E+02	1.1031436787E+03	8.6189195535E+02	0.000E+00	0.0
	14	1	6	6	0	0	-1.2844570993E+01	-2.8523815900E+02	-3.3440143520E+02	5.4678616498E+02	3.2500000000E+02	0.000E+00	0.0
	-14	1	6	6	0	0	1.6876338739E+02	2.5092131793E+02	-3.3535964930E+02	5.5635751374E+02	3.2500000000E+02	0.000E+00	0.0
	25	2	5	5	0	0	-1.5591881640E+02	3.4316841068E+01	-1.9934326456E+02	2.8444271298E+02	1.2522618318E+02	0.000E+00	0.0
	-5	1	9	9	0	501	-4.9894968557E+01	6.9027850387E+01	-5.3094012329E+01	1.0045296691E+02	4.1800000000E+00	0.000E+00	0.0
	5	1	9	9	501	0	-1.0602384784E+02	-3.4711009319E+01	-1.4624925223E+02	1.8398974606E+02	4.1800000000E+00	0.000E+00	0.0
</event>
<event>
    11  -1  1.0000000E+00  1.0000000E+00  -1.0000000E+00  -1.0000000E+00
	2212	-1	0	0	0	0	0.0000000000E+00	0.0000000000E+00	6.5000000000E+03	6.5000000000E+03	9.3827000000E-01	0.000E+00	0.0
	2212	-1	0	0	0	0	0.0000000000E+00	0.0000000000E+00	-6.5000000000E+03	6.5000000000E+03	9.3827000000E-01	0.000E+00	0.0
	2212	1	0	0	0	0	0.0000000000E+00	0.0000000000E+00	6.1191567083E+03	6.1191567083E+03	9.3827000000E-01	0.000E+00	0.0
	2212	1	0	0	0	0	0.0000000000E+00	0.0000000000E+00	-5.8019242653E+03	5.8019242653E+03	9.3827000000E-01	0.000E+00	0.0
	51	2	1	2	0	0	1.0037711601E+02	6.8370485455E+01	-3.1466703765E+02	1.0849863021E+03	1.0312273477E+03	0.000E+00	0.0
	1000022	2	5	5	0	0	-1.0037711601E+02	-6.8370485455E+01	-2.6832139338E+02	8.9777846305E+02	8.4809180509E+02	0.000E+00	0.0
	14	1	6	6	0	0	1.3912429016E+01	-2.9815413871E+02	-1.1305737746E+02	4.5551774577E+02	3.2500000000E+02	0.000E+00	0.0
	-14	1	6	6	0	0	-1.1428954503E+02	2.2978365326E+02	-1.5526401592E+02	4.4226071728E+02	3.2500000000E+02	0.000E+00	0.0
	25	2	5	5	0	0	1.0037711601E+02	6.8370485455E+01	-4.8911049636E+01	1.8114056332E+02	1.2517797012E+02	0.000E+00	0.0
	-5	1	9	9	0	501	1.2350191522E+02	7.6431507229E+01	-2.6528993082E+01	1.4770158508E+02	4.1800000000E+00	0.000E+00	0.0
	5	1	9	9	501	0	-2.3124799208E+01	-8.0610217740E+00	-2.2382056554E+01	3.3438978245E+01	4.1800000000E+00	0.000E+00	0.0
</event>
<event>
    11  -1  1.0000000E+00  1.0000000E+00  -1.0000000E+00  -1.0000000E+00
	2212	-1	0	0	0	0	0.0000000000E+00	0.0000000000E+00	6.5000000000E+03	6.5000000000E+03	9.3827000000E-01	0.000E+00	0.0
	2212	-1	0	0	0	0	0.0000000000E+00	0.0000000000E+00	-6.5000000000E+03	6.5000000000E+03	9.3827000000E-01	0.000E+00	0.0
	2212	1	0	0	0	0	0.0000000000E+00	0.0000000000E+00	6.0719379914E+03	6.0719379914E+03	9.3827000000E-01	0.000E+00	0.0
	2212	1	0	0	0	0	0.0000000000E+00	0.0000000000E+00	-5.8615586298E+03	5.8615586298E+03	9.3827000000E-01	0.000E+00	0.0
	51	2	1	2	0	0	-1.0202867784E+01	5.1865331906E+01	-3.4891497284E+02	1.1034970551E+03	1.0455476944E+03	0.000E+00	0.0
	1000022	2	5	5	0	0	1.0202867784E+01	-5.1865331906E+01	-3.5446466355E+01	8.4499623051E+02	8.4259602802E+02	0.000E+00	0.0
	14	1	6	6	0	0	1.1289886411E+02	2.0758560379E+02	5.9612711318E+01	4.0622236739E+02	3.2500000000E+02	0.000E+00	0.0
	-14	1	6	6	0	0	-1.0269599633E+02	-2.5945093570E+02	-9.5059177673E+01	4.3877386312E+02	3.2500000000E+02	0.000E+00	0.0
	25	2	5	5	0	0	-1.0202867784E+01	5.1865331906E+01	-1.7493289529E+02	2.2150714834E+02	1.2517902279E+02	0.000E+00	0.0
	-5	1	9	9	0	501	2.1619777929E+01	5.9395017012E+01	-1.7747581573E+02	1.8844182235E+02	4.1800000000E+00	0.000E+00	0.0
	5	1	9	9	501	0	-3.1822645712E+01	-7.5296851059E+00	2.5429204426E+00	3.3065325982E+01	4.1800000000E+00	0.000E+00	0.0
</event>
<event>
    11  -1  1.0000000E+00  1.0000000E+00  -1.0000000E+00  -1.0000000E+00
	2212	-1	0	0	0	0	0.0000000000E+00	0.0000000000E+00	6.5000000000E+03	6.5000000000E+03	9.3827000000E-01	0.000E+00	0.0
	2212	-1	0	0	0	0	0.0000000000E+00	0.0000000000E+00	-6.5000000000E+03	6.5000000000E+03	9.3827000000E-01	0.000E+00	0.0
	2212	1	0	0	0	0	0.0000000000E+00	0.0000000000E+00	6.1207429692E+03	6.1207429692E+03	9.3827000000E-01	0.000E+00	0.0
	2212	1	0	0	0	0	0.0000000000E+00	0.0000000000E+00	-5.7090117680E+03	5.7090117680E+03	9.3827000000E-01	0.000E+00	0.0
	51	2	1	2	0	0	6.7447836233E+01	-7.0092433840E+01	-5.8602832535E+02	1.2461311131E+03	1.0954229288E+03	0.000E+00	0.0
	1000022	2	5	5	0	0	-6.7447836233E+01	7.0092433840E+01	-1.5924523942E+02	8.7212676012E+02	8.5192950386E+02	0.000E+00	0.0
	14	1	6	6	0	0	2.3679772183E+02	1.6580571011E+01	-1.2937673362E+02	4.2274272981E+02	3.2500000000E+02	0.000E+00	0.0
	-14	1	6	6	0	0	-3.0424555807E+02	5.3511862829E+01	-2.9868505796E+01	4.4938403032E+02	3.2500000000E+02	0.000E+00	0.0
	25	2	5	5	0	0	6.7447836233E+01	-7.0092433840E+01	-2.5248596181E+02	2.9811850265E+02	1.2515318940E+02	0.000E+00	0.0
	-5	1	9	9	0	501	3.2392491367E+01	-9.2806666583E+01	-1.0130764756E+02	1.4121990905E+02	4.1800000000E+00	0.000E+00	0.0
	5	1	9	9	501	0	3.5055344866E+01	2.2714232743E+01	-1.5117831425E+02	1.5689859359E+02	4.1800000000E+00	0.000E+00	0.0
</event>
<event>
    11  -1  1.0000000E+00  1.0000000E+00  -1.0000000E+00  -1.0000000E+00
	2212	-1	0	0	0	0	0.0000000000E+00	0.0000000000E+00	6.5000000000E+03	6.5000000000E+03	9.3827000000E-01	0.000E+00	0.0
	2212	-1	0	0	0	0	0.0000000000E+00	0.0000000000E+00	-6.5000000000E+03	6.5000000000E+03	9.3827000000E-01	0.000E+00	0.0
	2212	1	0	0	0	0	0.0000000000E+00	0.0000000000E+00	6.1319676063E+03	6.1319676063E+03	9.3827000000E-01	0.000E+00	0.0
	2212	1	0	0	0	0	0.0000000000E+00	0.0000000000E+00	-5.7577853113E+03	5.7577853113E+03	9.3827000000E-01	0.000E+00	0.0
	51	2	1	2	0	0	-7.4737905138E+01	1.1300027077E+02	-4.5054583261E+02	1.1462907820E+03	1.0452923964E+03	0.000E+00	0.0
	1000022	2	5	5	0	0	7.4737905138E+01	-1.1300027077E+02	-2.3133786450E+02	8.7694600721E+02	8.3496244008E+02	0.000E+00	0.0
	14	1	6	6	0	0	1.3054834454E+02	1.0249676224E+02	8.1487545377E+01	3.7391667064E+02	3.2500000000E+02	0.000E+00	0.0
	-14	1	6	6	0	0	-5.5810439403E+01	-2.1549703301E+02	-3.1282540987E+02	5.0302933657E+02	3.2500000000E+02	0.000E+00	0.0
	25	2	5	5	0	0	-7.4737905138E+01	1.1300027077E+02	-1.4284443056E+02	2.3330107516E+02	1.2518004901E+02	0.000E+00	0.0
	-5	1	9	9	0	501	1.3449919979E+01	-2.0002809540E+01	-2.4112925323E+01	3.4349938931E+01	4.1800000000E+00	0.000E+00	0.0
	5	1	9	9	501	0	-8.8187825117E+01	1.3300308031E+02	-1.1873150523E+02	1.9895113623E+02	4.1800000000E+00	0.000E+00	0.0
</event>
<event>
    11  -1  1.0000000E+00  1.0000000E+00  -1.0000000E+00  -1.0000000E+00
	2212	-1	0	0	0	0	0.0000000000E+00	0.0000000000E+00	6.5000000000E+03	6.5000000000E+03	9.3827000000E-01	0.000E+00	0.0
	2212	-1	0	0	0	0	0.0000000000E+00	0.0000000000E+00	-6.5000000000E+03	6.5000000000E+03	9.3827000000E-01	0.000E+00	0.0
	2212	1	0	0	0	0	0.0000000000E+00	0.0000000000E+00	6.1631680823E+03	6.1631680823E+03	9.3827000000E-01	0.000E+00	0.0
	2212	1	0	0	0	0	0.0000000000E+00	0.0000000000E+00	-5.6910711290E+03	5.6910711290E+03	9.3827000000E-01	0.000E+00	0.0
	51	2	1	2	0	0	-1.0538312218E+02	-5.2864568516E+01	-4.7075998499E+02	1.1512634278E+03	1.0439790475E+03	0.000E+00	0.0
	1000022	2	5	5	0	0	1.0538312218E+02	5.2864568516E+01	-3.9865812882E+02	9.5878023340E+02	8.6396236448E+02	0.000E+00	0.0
	14	1	6	6	0	0	-1.1250706331E+02	6.5008698566E+01	-4.4324573845E+02	5.6477938599E+02	3.2500000000E+02	0.000E+00	0.0
	-14	1	6	6	0	0	2.1789018548E+02	-1.2144130050E+01	4.4587609635E+01	3.9400084741E+02	3.2500000000E+02	0.000E+00	0.0
	25	2	5	5	0	0	-1.0538312218E+02	-5.2864568516E+01	-7.3438824491E+01	1.8698055529E+02	1.2517268899E+02	0.000E+00	0.0
	-5	1	9	9	0	501	2.4323968566E+01	4.9669246394E+00	3.4856853198E+00	2.5415510802E+01	4.1800000000E+00	0.000E+00	0.0
	5	1	9	9	501	0	-1.2970709074E+02	-5.7831493155E+01	-7.6924509811E+01	1.6156504449E+02	4.1800000000E+00	0.000E+00	0.0
</event>
<event>
    11  -1  1.0000000E+00  1.0000000E+00  -1.0000000E+00  -1.0000000E+00
	2212	-1	0	0	0	0	0.0000000000E+00	0.0000000000E+00	6.5000000000E+03	6.5000000000E+03	9.3827000000E-01	0.000E+00	0.0
	2212	-1	0	0	0	0	0.0000000000E+00	0.0000000000E+00	-6.5000000000E+03	6.5000000000E+03	9.3827000000E-01	0.000E+00	0.0
	2212	1	0	0	0	0	0.0000000000E+00	0.0000000000E+00	5.5715199089E+03	5.5715199089E+03	9.3827000000E-01	0.000E+00	0.0
	2212	1	0	0	0	0	0.0000000000E+00	0.0000000000E+00	-6.2031479035E+03	6.2031479035E+03	9.3827000000E-01	0.000E+00	0.0
	51	2	1	2	0	0	3.6249662915E+01	6.0205990324E+01	7.7185297916E+02	1.3050597179E+03	1.0499928793E+03	0.000E+00	0.0
	1000022	2	5	5	0	0	-3.6249662915E+01	-6.0205990324E+01	3.8572239595E+02	9.4058863668E+02	8.5497743677E+02	0.000E+00	0.0
	14	1	6	6	0	0	-2.6168143108E+01	1.0080706495E+02	-7.9682549503E+01	3.5045847793E+02	3.2500000000E+02	0.000E+00	0.0
	-14	1	6	6	0	0	-1.0081519807E+01	-1.6101305528E+02	4.6540494545E+02	5.9013015875E+02	3.2500000000E+02	0.000E+00	0.0
	25	2	5	5	0	0	3.6249662915E+01	6.0205990324E+01	2.4590559864E+02	2.8474355098E+02	1.2518197574E+02	0.000E+00	0.0
	-5	1	9	9	0	501	8.8626698162E+00	7.9093153770E+01	7.1264761906E+01	1.0691310761E+02	4.1800000000E+00	0.000E+00	0.0
	5	1	9	9	501	0	2.7386993099E+01	-1.8887163447E+01	1.7464083673E+02	1.7783044337E+02	4.1800000000E+00	0.000E+00	0.0
</event>
<event>
    11  -1  1.0000000E+00  1.0000000E+00  -1.0000000E+00  -1.0000000E+00
	2212	-1	0	0	0	0	0.0000000000E+00	0.0000000000E+00	6.5000000000E+03	6.5000000000E+03	9.3827000000E-01	0.000E+00	0.0
	2212	-1	0	0	0	0	0.0000000000E+00	0.0000000000E+00	-6.5000000000E+03	6.5000000000E+03	9.3827000000E-01	0.000E+00	0.0
	2212	1	0	0	0	0	0.0000000000E+00	0.0000000000E+00	6.2017268041E+03	6.2017268041E+03	9.3827000000E-01	0.000E+00	0.0
	2212	1	0	0	0	0	0.0000000000E+00	0.0000000000E+00	-5.4810637167E+03	5.4810637167E+03	9.3827000000E-01	0.000E+00	0.0
	51	2	1	2	0	0	-1.6727760344E+02	1.9439097057E+02	-8.1258971864E+02	1.3934694913E+03	1.1025813015E+03	0.000E+00	0.0
	1000022	2	5	5	0	0	1.6727760344E+02	-1.9439097057E+02	-4.5841246629E+02	9.2963565336E+02	7.6701421937E+02	0.000E+00	0.0
	14	1	6	6	0	0	2.7787239738E+01	-1.5876719450E+02	-4.4471444638E+02	5.7391209393E+02	3.2500000000E+02	0.000E+00	0.0
	-14	1	6	6	0	0	1.3949036370E+02	-3.5623776062E+01	-1.3698019908E+01	3.5572355943E+02	3.2500000000E+02	0.000E+00	0.0
	25	2	5	5	0	0	-1.6727760344E+02	1.9439097057E+02	-2.6225062116E+02	3.8757382581E+02	1.2517362386E+02	0.000E+00	0.0
	-5	1	9	9	0	501	-6.7368809337E+01	1.6518121103E+01	-1.2055064958E+02	1.3914501899E+02	4.1800000000E+00	0.000E+00	0.0
	5	1	9	9	501	0	-9.9908794099E+01	1.7787284946E+02	-1.4169997158E+02	2.4842880682E+02	4.1800000000E+00	0.000E+00	0.0
</event>
<event>
    11  -1  1.0000000E+00  1.0000000E+00  -1.0000000E+00  -1.0000000E+00
	2212	-1	0	0	0	0	0.0000000000E+00	0.0000000000E+00	6.5000000000E+03	6.5000000000E+03	9.3827000000E-01	0.000E+00	0.0
	2212	-1	0	0	0	0	0.0000000000E+00	0.0000000000E+00	-6.5000000000E+03	6.5000000000E+03	9.3827000000E-01	0.000E+00	0.0
	2212	1	0	0	0	0	0.0000000000E+00	0.0000000000E+00	5.6627402287E+03	5.6627402287E+03	9.3827000000E-01	0.000E+00	0.0
	2212	1	0	0	0	0	0.0000000000E+00	0.0000000000E+00	-6.1714369005E+03	6.1714369005E+03	9.3827000000E-01	0.000E+00	0.0
	51	2	1	2	0	0	-1.1734280646E+02	-1.8090237442E+01	5.9620083546E+02	1.2124036825E+03	1.0489855396E+03	0.000E+00	0.0
	1000022	2	5	5	0	0	1.1734280646E+02	1.8090237442E+01	3.3455044536E+02	9.2067716970E+02	8.4948564402E+02	0.000E+00	0.0
	14	1	6	6	0	0	-9.8445561615E+01	2.1277779535E+02	5.9394241058E+01	4.0511553249E+02	3.2500000000E+02	0.000E+00	0.0
	-14	1	6	6	0	0	2.1578836807E+02	-1.9468755791E+02	2.7515620430E+02	5.1556163721E+02	3.2500000000E+02	0.000E+00	0.0
	25	2	5	5	0	0	-1.1734280646E+02	-1.8090237442E+01	1.7414622645E+02	2.4514570111E+02	1.2519151595E+02	0.000E+00	0.0
	-5	1	9	9	0	501	2.1029796626E+01	8.0377161758E+00	5.8692236627E+01	6.3000859262E+01	4.1800000000E+00	0.000E+00	0.0
	5	1	9	9	501	0	-1.3837260308E+02	-2.6127953617E+01	1.1545398982E+02	1.8214484184E+02	4.1800000000E+00	0.000E+00	0.0
</event>
<event>
    11  -1  1.0000000E+00  1.0000000E+00  -1.0000000E+00  -1.0000000E+00
	2212	-1	0	0	0	0	0.0000000000E+00	0.0000000000E+00	6.5000000000E+03	6.5000000000E+03	9.3827000000E-01	0.000E+00	0.0
	2212	-1	0	0	0	0	0.0000000000E+00	0.0000000000E+00	-6.5000000000E+03	6.5000000000E+03	9.3827000000E-01	0.000E+00	0.0
	2212	1	0	0	0	0	0.0000000000E+00	0.0000000000E+00	5.5581261936E+03	5.5581261936E+03	9.3827000000E-01	0.000E+00	0.0
	2212	1	0	0	0	0	0.0000000000E+00	0.0000000000E+00	-6.2052643698E+03	6.2052643698E+03	9.3827000000E-01	0.000E+00	0.0
	51	2	1	2	0	0	8.1943409821E+01	1.0554266557E+02	6.7714285777E+02	1.2596791282E+03	1.0537623449E+03	0.000E+00	0.0
	1000022	2	5	5	0	0	-8.1943409821E+01	-1.0554266557E+02	5.0926488381E+02	1.0074147672E+03	8.5888288763E+02	0.000E+00	0.0
	14	1	6	6	0	0	-5.8511262345E+01	-3.0544498065E+02	4.1874649453E+02	6.1456800332E+02	3.2500000000E+02	0.000E+00	0.0
	-14	1	6	6	0	0	-2.3432147476E+01	1.9990231508E+02	9.0518389283E+01	3.9284676390E+02	3.2500000000E+02	0.000E+00	0.0
	25	2	5	5	0	0	8.1943409821E+01	1.0554266557E+02	1.3787329244E+02	2.2919466934E+02	1.2516858638E+02	0.000E+00	0.0
	-5	1	9	9	0	501	2.5703503750E+01	-2.6384287112E+01	1.3944662384E+01	3.9607154915E+01	4.1800000000E+00	0.000E+00	0.0
	5	1	9	9	501	0	5.6239906071E+01	1.3192695268E+02	1.2392863006E+02	1.8958751442E+02	4.1800000000E+00	0.000E+00	0.0
</event>
<event>
    11  -1  1.0000000E+00  1.0000000E+00  -1.0000000E+00  -1.0000000E+00
	2212	-1	0	0	0	0	0.0000000000E+00	0.0000000000E+00	6.5000000000E+03	6.5000000000E+03	9.3827000000E-01	0.000E+00	0.0
	2212	-1	0	0	0	0	0.0000000000E+00	0.0000000000E+00	-6.5000000000E+03	6.5000000000E+03	9.3827000000E-01	0.000E+00	0.0
	2212	1	0	0	0	0	0.0000000000E+00	0.0000000000E+00	6.0520312439E+03	6.0520312439E+03	9.3827000000E-01	0.000E+00	0.0
	2212	1	0	0	0	0	0.0000000000E+00	0.0000000000E+00	-5.8885643012E+03	5.8885643012E+03	9.3827000000E-01	0.000E+00	0.0
	51	2	1	2	0	0	-6.6599575903E+01	-7.8879279323E+01	-2.2574054283E+02	1.0757474585E+03	1.0467169425E+03	0.000E+00	0.0
	1000022	2	5	5	0	0	6.6599575903E+01	7.8879279323E+01	-7.5216521552E+01	8.7470961500E+02	8.6533342779E+02	0.000E+00	0.0
	14	1	6	6	0	0	-1.3187880530E+02	2.6674379647E+02	1.3739849387E+01	4.4086058534E+02	3.2500000000E+02	0.000E+00	0.0
	-14	1	6	6	0	0	1.9847838120E+02	-1.8786451715E+02	-8.8956370939E+01	4.3384902966E+02	3.2500000000E+02	0.000E+00	0.0
	25	2	5	5	0	0	-6.6599575903E+01	-7.8879279323E+01	-8.8250421178E+01	1.8469483987E+02	1.2516630065E+02	0.000E+00	0.0
	-5	1	9	9	0	501	-6.8833260852E+00	4.1884270560E+00	2.8204231453E+01	2.9628941444E+01	4.1800000000E+00	0.000E+00	0.0
	5	1	9	9	501	0	-5.9716249818E+01	-8.3067706379E+01	-1.1645465263E+02	1.5506589843E+02	4.1800000000E+00	0.000E+00	0.0
</event>
<event>
    11  -1  1.0000000E+00  1.0000000E+00  -1.0000000E+00  -1.0000000E+00
	2212	-1	0	0	0	0	0.0000000000E+00	0.0000000000E+00	6.5000000000E+03	6.5000000000E+03	9.3827000000E-01	0.000E+00	0.0
	2212	-1	0	0	0	0	0.0000000000E+00	0.0000000000E+00	-6.5000000000E+03	6.5000000000E+03	9.3827000000E-01	0.000E+00	0.0
	2212	1	0	0	0	0	0.0000000000E+00	0.0000000000E+00	4.9017702716E+03	4.9017702716E+03	9.3827000000E-01	0.000E+00	0.0
	2212	1	0	0	0	0	0.0000000000E+00	0.0000000000E+00	-6.3263774547E+03	6.3263774547E+03	9.3827000000E-01	0.000E+00	0.0
	51	2	1	2	0	0	6.0040014082E+01	8.8615247120E+01	1.6203751407E+03	1.9357241321E+03	1.0535439496E+03	0.000E+00	0.0
	1000022	2	5	5	0	0	-6.0040014082E+01	-8.8615247120E+01	9.7754663526E+02	1.2954357696E+03	8.4326682827E+02	0.000E+00	0.0
	14	1	6	6	0	0	1.1097077362E+02	1.7546880666E+02	5.5927278043E+02	6.7934884826E+02	3.2500000000E+02	0.000E+00	0.0
	-14	1	6	6	0	0	-1.7101078771E+02	-2.6408405378E+02	4.1827385483E+02	6.1608692131E+02	3.2500000000E+02	0.000E+00	0.0
	25	2	5	5	0	0	6.0040014082E+01	8.8615247120E+01	4.4706054783E+02	4.7641650414E+02	1.2510829982E+02	0.000E+00	0.0
	-5	1	9	9	0	501	8.7763671165E+01	7.9338026709E+01	2.4380182242E+02	2.7102358841E+02	4.1800000000E+00	0.000E+00	0.0
	5	1	9	9	501	0	-2.7723657083E+01	9.2772204103E+00	2.0325872540E+02	2.0539291573E+02	4.1800000000E+00	0.000E+00	0.0
</event>
<event>
    11  -1  1.0000000E+00  1.0000000E+00  -1.0000000E+00  -1.0000000E+00
	2212	-1	0	0	0	0	0.0000000000E+00	0.0000000000E+00	6.5000000000E+03	6.5000000000E+03	9.3827000000E-01	0.000E+00	0.0
	2212	-1	0	0	0	0	0.0000000000E+00	0.0000000000E+00	-6.5000000000E+03	6.5000000000E+03	9.3827000000E-01	0.000E+00	0.0
	2212	1	0	0	0	0	0.0000000000E+00	0.0000000000E+00	5.2494988535E+03	5.2494988535E+03	9.3827000000E-01	0.000E+00	0.0
	2212	1	0	0	0	0	0.0000000000E+00	0.0000000000E+00	-6.2851767587E+03	6.2851767587E+03	9.3827000000E-01	0.000E+00	0.0
	51	2	1	2	0	0	1.7382764593E+02	1.3490295794E+02	1.1350914008E+03	1.5528664413E+03	1.0366035105E+03	0.000E+00	0.0
	1000022	2	5	5	0	0	-1.7382764593E+02	-1.3490295794E+02	7.0224229776E+02	1.0466771652E+03	7.4429428643E+02	0.000E+00	0.0
	14	1	6	6	0	0	8.4143890663E+01	2.9607245203E+00	3.5220006873E+02	4.8657871782E+02	3.2500000000E+02	0.000E+00	0.0
	-14	1	6	6	0	0	-2.5797153660E+02	-1.3786368246E+02	3.5004222903E+02	5.6009844736E+02	3.2500000000E+02	0.000E+00	0.0
	25	2	5	5	0	0	1.7382764593E+02	1.3490295794E+02	3.3343560744E+02	4.1864722257E+02	1.2518519924E+02	0.000E+00	0.0
	-5	1	9	9	0	501	-7.0837830199E+00	-8.2544431453E+00	-1.6843976924E+00	1.1773929212E+01	4.1800000000E+00	0.000E+00	0.0
	5	1	9	9	501	0	1.8091142895E+02	1.4315740109E+02	3.3512000513E+02	4.0687329336E+02	4.1800000000E+00	0.000E+00	0.0
</event>
<event>
    11  -1  1.0000000E+00  1.0000000E+00  -1.0000000E+00  -1.0000000E+00
	2212	-1	0	0	0	0	0.0000000000E+00	0.0000000000E+00	6.5000000000E+03	6.5000000000E+03	9.3827000000E-01	0.000E+00	0.0
	2212	-1	0	0	0	0	0.0000000000E+00	0.0000000000E+00	-6.5000000000E+03	6.5000000000E+03	9.3827000000E-01	0.000E+00	0.0
	2212	1	0	0	0	0	0.0000000000E+00	0.0000000000E+00	6.2054704815E+03	6.2054704815E+03	9.3827000000E-01	0.000E+00	0.0
	2212	1	0	0	0	0	0.0000000000E+00	0.0000000000E+00	-5.5743868168E+03	5.5743868168E+03	9.3827000000E-01	0.000E+00	0.0
	51	2	1	2	0	0	-7.5755689971E+01	9.8688499179E+01	-5.8787211865E+02	1.2048043795E+03	1.0442612798E+03	0.000E+00	0.0
	1000022	2	5	5	0	0	7.5755689971E+01	-9.8688499179E+01	-5.6971918236E+02	1.0332928117E+03	8.5301567604E+02	0.000E+00	0.0
	14	1	6	6	0	0	6.3361118134E+01	-1.2199053155E+02	-6.1003097366E+02	7.0474045571E+02	3.2500000000E+02	0.000E+00	0.0
	-14	1	6	6	0	0	1.2394571837E+01	2.3302032374E+01	4.0311791302E+01	3.2855235601E+02	3.2500000000E+02	0.000E+00	0.0
	25	2	5	5	0	0	-7.5755689971E+01	9.8688499179E+01	-6.1364482356E+01	1.8684988992E+02	1.2517562556E+02	0.000E+00	0.0
	-5	1	9	9	0	501	-5.7155148421E+01	5.7192336599E+01	2.8675170593E+01	8.5891863207E+01	4.1800000000E+00	0.000E+00	0.0
	5	1	9	9	501	0	-1.8600541550E+01	4.1496162581E+01	-9.0039652949E+01	1.0095802671E+02	4.1800000000E+00	0.000E+00	0.0
</event>
<event>
    11  -1  1.0000000E+00  1.0000000E+00  -1.0000000E+00  -1.0000000E+00
	2212	-1	0	0	0	0	0.0000000000E+00	0.0000000000E+00	6.5000000000E+03	6.5000000000E+03	9.3827000000E-01	0.000E+00	0.0
	2212	-1	0	0	0	0	0.0000000000E+00	0.0000000000E+00	-6.5000000000E+03	6.5000000000E+03	9.3827000000E-01	0.000E+00	0.0
	2212	1	0	0	0	0	0.0000000000E+00	0.0000000000E+00	6.1779112175E+03	6.1779112175E+03	9.3827000000E-01	0.000E+00	0.0
	2212	1	0	0	0	0	0.0000000000E+00	0.0000000000E+00	-5.6372027639E+03	5.6372027639E+03	9.3827000000E-01	0.000E+00	0.0
	51	2	1	2	0	0	-9.0808275742E+01	5.6031569643E+01	-6.1196567383E+02	1.2237143910E+03	1.0543193279E+03	0.000E+00	0.0
	1000022	2	5	5	0	0	9.0808275742E+01	-5.6031569643E+01	-3.8326380996E+02	9.5719011061E+02	8.7059524469E+02	0.000E+00	0.0
	14	1	6	6	0	0	-2.0933226747E+02	-9.1916751775E+01	-3.1723891292E+02	5.0846259974E+02	3.2500000000E+02	0.000E+00	0.0
	-14	1	6	6	0	0	3.0014054322E+02	3.5885182132E+01	-6.6024897034E+01	4.4872751086E+02	3.2500000000E+02	0.000E+00	0.0
	25	2	5	5	0	0	-9.0808275742E+01	5.6031569643E+01	-1.5744464367E+02	2.2769590794E+02	1.2518358892E+02	0.000E+00	0.0
	-5	1	9	9	0	501	-4.2609134667E+01	9.3195227796E+01	-1.1015414525E+02	1.5050680037E+02	4.1800000000E+00	0.000E+00	0.0
	5	1	9	9	501	0	-4.8199141075E+01	-3.7163658152E+01	-4.7290498415E+01	7.7189107574E+01	4.1800000000E+00	0.000E+00	0.0
</event>
<event>
    11  -1  1.0000000E+00  1.0000000E+00  -1.0000000E+00  -1.0000000E+00
	2212	-1	0	0	0	0	0.0000000000E+00	0.0000000000E+00	6.5000000000E+03	6.5000000000E+03	9.3827000000E-01	0.000E+00	0.0
	2212	-1	0	0	0	0	0.0000000000E+00	0.0000000000E+00	-6.5000000000E+03	6.5000000000E+03	9.3827000000E-01	0.000E+00	0.0
	2212	1	0	0	0	0	0.0000000000E+00	0.0000000000E+00	6.1981645231E+03	6.1981645231E+03	9.3827000000E-01	0.000E+00	0.0
	2212	1	0	0	0	0	0.0000000000E+00	0.0000000000E+00	-5.5718705928E+03	5.5718705928E+03	9.3827000000E-01	0.000E+00	0.0
	51	2	1	2	0	0	5.9537433584E+01	-3.1181002668E+01	-8.1163725237E+02	1.3356053008E+03	1.0585695674E+03	0.000E+00	0.0
	1000022	2	5	5	0	0	-5.9537433584E+01	3.1181002668E+01	-3.2522869601E+02	8.9706074781E+02	8.3332305838E+02	0.000E+00	0.0
	14	1	6	6	0	0	-1.5723679479E+01	-1.9059696395E+02	1.1595589636E+01	3.7727164545E+02	3.2500000000E+02	0.000E+00	0.0
	-14	1	6	6	0	0	-4.3813754105E+01	2.2177796662E+02	-3.3682428564E+02	5.1978910235E+02	3.2500000000E+02	0.000E+00	0.0
	25	2	5	5	0	0	5.9537433584E+01	-3.1181002668E+01	-3.0106523422E+02	3.3290413631E+02	1.2517159340E+02	0.000E+00	0.0
	-5	1	9	9	0	501	-8.8854221817E+00	-3.0187135648E+00	9.2733059193E+00	1.3839435018E+01	4.1800000000E+00	0.000E+00	0.0
	5	1	9	9	501	0	6.8422855765E+01	-2.8162289103E+01	-3.1033854014E+02	3.1906470129E+02	4.1800000000E+00	0.000E+00	0.0
</event>
<event>
    11  -1  1.0000000E+00  1.0000000E+00  -1.0000000E+00  -1.0000000E+00
	2212	-1	0	0	0	0	0.0000000000E+00	0.0000000000E+00	6.5000000000E+03	6.5000000000E+03	9.3827000000E-01	0.000E+00	0.0
	2212	-1	0	0	0	0	0.0000000000E+00	0.0000000000E+00	-6.5000000000E+03	6.5000000000E+03	9.3827000000E-01	0.000E+00	0.0
	2212	1	0	0	0	0	0.0000000000E+00	0.0000000000E+00	5.8492256322E+03	5.8492256322E+03	9.3827000000E-01	0.000E+00	0.0
	2212	1	0	0	0	0	0.0000000000E+00	0.0000000000E+00	-6.0759125816E+03	6.0759125816E+03	9.3827000000E-01	0.000E+00	0.0
	51	2	1	2	0	0	-2.3203108091E+01	-4.9573999772E+01	3.6546084860E+02	1.1137766760E+03	1.0506859124E+03	0.000E+00	0.0
	1000022	2	5	5	0	0	2.3203108091E+01	4.9573999772E+01	4.8819395971E+01	8.5057991751E+02	8.4741188154E+02	0.000E+00	0.0
	14	1	6	6	0	0	6.9753641555E+01	-1.8283994506E+02	-1.4236738600E+02	4.0520302148E+02	3.2500000000E+02	0.000E+00	0.0
	-14	1	6	6	0	0	-4.6550533464E+01	2.3241394484E+02	1.9118678197E+02	4.4537689603E+02	3.2500000000E+02	0.000E+00	0.0
	25	2	5	5	0	0	-2.3203108091E+01	-4.9573999772E+01	1.7786755340E+02	2.2428186869E+02	1.2517797087E+02	0.000E+00	0.0
	-5	1	9	9	0	501	-4.3294251193E+01	3.0959203745E+01	6.4898323172E+01	8.4036475613E+01	4.1800000000E+00	0.000E+00	0.0
	5	1	9	9	501	0	2.0091143102E+01	-8.0533203517E+01	1.1296923023E+02	1.4024539308E+02	4.1800000000E+00	0.000E+00	0.0
</event>
<event>
    11  -1  1.0000000E+00  1.0000000E+00  -1.0000000E+00  -1.0000000E+00
	2212	-1	0	0	0	0	0.0000000000E+00	0.0000000000E+00	6.5000000000E+03	6.5000000000E+03	9.3827000000E-01	0.000E+00	0.0
	2212	-1	0	0	0	0	0.0000000000E+00	0.0000000000E+00	-6.5000000000E+03	6.5000000000E+03	9.3827000000E-01	0.000E+00	0.0
	2212	1	0	0	0	0	0.0000000000E+00	0.0000000000E+00	6.2694709265E+03	6.2694709265E+03	9.3827000000E-01	0.000E+00	0.0
	2212	1	0	0	0	0	0.0000000000E+00	0.0000000000E+00	-5.2575203424E+03	5.2575203424E+03	9.3827000000E-01	0.000E+00	0.0
	51	2	1	2	0	0	-1.7567950857E+01	1.1485296676E+02	-8.7104352167E+02	1.3848925557E+03	1.0703787822E+03	0.000E+00	0.0
	1000022	2	5	5	0	0	1.7567950857E+01	-1.1485296676E+02	-9.7178727873E+02	1.2975564706E+03	8.5192866035E+02	0.000E+00	0.0
	14	1	6	6	0	0	1.1361733730E+02	-2.6413175709E+02	-7.4833386241E+02	8.6504511678E+02	3.2500000000E+02	0.000E+00	0.0
	-14	1	6	6	0	0	-9.6049386445E+01	1.4927879033E+02	-2.2345341632E+02	4.3251135378E+02	3.2500000000E+02	0.000E+00	0.0
	25	2	5	5	0	0	-1.7567950857E+01	1.1485296676E+02	-4.0163305401E+01	1.7545226060E+02	1.2518213841E+02	0.000E+00	0.0
	-5	1	9	9	0	501	3.1197253665E-01	-1.8612005953E+01	-3.5909600177E+01	4.0662954607E+01	4.1800000000E+00	0.000E+00	0.0
	5	1	9	9	501	0	-1.7879923393E+01	1.3346497271E+02	-4.2537052236E+00	1.3478930599E+02	4.1800000000E+00	0.000E+00	0.0
</event>
<event>
    11  -1  1.0000000E+00  1.0000000E+00  -1.0000000E+00  -1.0000000E+00
	2212	-1	0	0	0	0	0.0000000000E+00	0.0000000000E+00	6.5000000000E+03	6.5000000000E+03	9.3827000000E-01	0.000E+00	0.0
	2212	-1	0	0	0	0	0.0000000000E+00	0.0000000000E+00	-6.5000000000E+03	6.5000000000E+03	9.3827000000E-01	0.000E+00	0.0
	2212	1	0	0	0	0	0.0000000000E+00	0.0000000000E+00	6.2937755526E+03	6.2937755526E+03	9.3827000000E-01	0.000E+00	0.0
	2212	1	0	0	0	0	0.0000000000E+00	0.0000000000E+00	-5.1828482840E+03	5.1828482840E+03	9.3827000000E-01	0.000E+00	0.0
	51	2	1	2	0	0	1.1334278052E+02	-7.2030249788E+01	-1.1378333178E+03	1.5489400056E+03	1.0423605610E+03	0.000E+00	0.0
	1000022	2	5	5	0	0	-1.1334278052E+02	7.2030249788E+01	-8.9718901655E+02	1.2416157794E+03	8.4771850840E+02	0.000E+00	0.0
	14	1	6	6	0	0	2.9184656974E+01	-5.1455516750E+01	-7.6622563446E+01	3.3910976340E+02	3.2500000000E+02	0.000E+00	0.0
	-14	1	6	6	0	0	-1.4252743749E+02	1.2348576654E+02	-8.2056645310E+02	9.0250601601E+02	3.2500000000E+02	0.000E+00	0.0
	25	2	5	5	0	0	1.1334278052E+02	-7.2030249788E+01	-2.1373825208E+02	2.8176038401E+02	1.2517959425E+02	0.000E+00	0.0
	-5	1	9	9	0	501	1.2923415124E+02	-2.6431573583E+01	-1.7776713482E+02	2.2140171759E+02	4.1800000000E+00	0.000E+00	0.0
	5	1	9	9	501	0	-1.5891370725E+01	-4.5598676205E+01	-3.5971117259E+01	6.0358666420E+01	4.1800000000E+00	0.000E+00	0.0
</event>
<event>
    11  -1  1.0000000E+00  1.0000000E+00  -1.0000000E+00  -1.0000000E+00
	2212	-1	0	0	0	0	0.0000000000E+00	0.0000000000E+00	6.5000000000E+03	6.5000000000E+03	9.3827000000E-01	0.000E+00	0.0
	2212	-1	0	0	0	0	0.0000000000E+00	0.0000000000E+00	-6.5000000000E+03	6.5000000000E+03	9.3827000000E-01	0.000E+00	0.0
	2212	1	0	0	0	0	0.0000000000E+00	0.0000000000E+00	5.5851495909E+03	5.5851495909E+03	9.3827000000E-01	0.000E+00	0.0
	2212	1	0	0	0	0	0.0000000000E+00	0.0000000000E+00	-6.2009085201E+03	6.2009085201E+03	9.3827000000E-01	0.000E+00	0.0
	51	2	1	2	0	0	-8.9146938176E+01	-9.7966882252E+01	5.8851643084E+02	1.2076390716E+03	1.0461815575E+03	0.000E+00	0.0
	1000022	2	5	5	0	0	8.9146938176E+01	9.7966882252E+01	5.3957306065E+02	1.0163401896E+03	8.5103678333E+02	0.000E+00	0.0
	14	1	6	6	0	0	2.0952227703E+02	-6.2018183587E+01	4.9625355928E+02	6.3216962499E+02	3.2500000000E+02	0.000E+00	0.0
	-14	1	6	6	0	0	-1.2037533886E+02	1.5998506584E+02	4.3319501371E+01	3.8417056459E+02	3.2500000000E+02	0.000E+00	0.0
	25	2	5	5	0	0	-8.9146938176E+01	-9.7966882252E+01	7.6185868519E+01	1.9760169949E+02	1.2528949866E+02	0.000E+00	0.0
	-5	1	9	9	0	501	-4.4553938530E+01	-1.1078385837E+02	8.9346151641E+01	1.4919223816E+02	4.1800000000E+00	0.000E+00	0.0
	5	1	9	9	501	0	-4.4592999646E+01	1.2816976117E+01	-1.3160283121E+01	4.8409461328E+01	4.1800000000E+00	0.000E+00	0.0
</event>
<event>
    11  -1  1.0000000E+00  1.0000000E+00  -1.0000000E+00  -1.0000000E+00
	2212	-1	0	0	0	0	0.0000000000E+00	0.0000000000E+00	6.5000000000E+03	6.5000000000E+03	9.3827000000E-01	0.000E+00	0.0
	2212	-1	0	0	0	0	0.0000000000E+00	0.0000000000E+00	-6.5000000000E+03	6.5000000000E+03	9.3827000000E-01	0.000E+00	0.0
	2212	1	0	0	0	0	0.0000000000E+00	0.0000000000E+00	5.2413248803E+03	5.2413248803E+03	9.3827000000E-01	0.000E+00	0.0
	2212	1	0	0	0	0	0.0000000000E+00	0.0000000000E+00	-6.2825981082E+03	6.2825981082E+03	9.3827000000E-01	0.000E+00	0.0
	51	2	1	2	0	0	-8.5476825294E+01	6.9849291248E+01	1.1382822643E+03	1.5499758492E+03	1.0462090655E+03	0.000E+00	0.0
	1000022	2	5	5	0	0	8.5476825294E+01	-6.9849291248E+01	7.7427605520E+02	1.1612082021E+03	8.5832154111E+02	0.000E+00	0.0
	14	1	6	6	0	0	-1.6183243404E+02	-4.1781362378E+01	1.1129504628E+02	3.8203011174E+02	3.2500000000E+02	0.000E+00	0.0
	-14	1	6	6	0	0	2.4730925933E+02	-2.8067928870E+01	6.6298100893E+02	7.7917809041E+02	3.2500000000E+02	0.000E+00	0.0
	25	2	5	5	0	0	-8.5476825294E+01	6.9849291248E+01	2.6699717269E+02	3.1486880931E+02	1.2517853532E+02	0.000E+00	0.0
	-5	1	9	9	0	501	-5.9859608379E+01	4.1319376278E+01	2.6651690798E+02	2.7629549075E+02	4.1800000000E+00	0.000E+00	0.0
	5	1	9	9	501	0	-2.5617216915E+01	2.8529914970E+01	4.8026471045E-01	3.8573318562E+01	4.1800000000E+00	0.000E+00	0.0
</event>
<event>
    11  -1  1.0000000E+00  1.0000000E+00  -1.0000000E+00  -1.0000000E+00
	2212	-1	0	0	0	0	0.0000000000E+00	0.0000000000E+00	6.5000000000E+03	6.5000000000E+03	9.3827000000E-01	0.000E+00	0.0
	2212	-1	0	0	0	0	0.0000000000E+00	0.0000000000E+00	-6.5000000000E+03	6.5000000000E+03	9.3827000000E-01	0.000E+00	0.0
	2212	1	0	0	0	0	0.0000000000E+00	0.0000000000E+00	6.2610045638E+03	6.2610045638E+03	9.3827000000E-01	0.000E+00	0.0
	2212	1	0	0	0	0	0.0000000000E+00	0.0000000000E+00	-5.2896630356E+03	5.2896630356E+03	9.3827000000E-01	0.000E+00	0.0
	51	2	1	2	0	0	1.4059378780E+02	-1.8490386296E+01	-1.0411316125E+03	1.5037032903E+03	1.0756672548E+03	0.000E+00	0.0
	1000022	2	5	5	0	0	-1.4059378780E+02	1.8490386296E+01	-7.3523319943E+02	1.1467991360E+03	8.6860341540E+02	0.000E+00	0.0
	14	1	6	6	0	0	-2.1562043067E+02	-2.3718094628E+02	-3.3266587884E+02	5.6483498329E+02	3.2500000000E+02	0.000E+00	0.0
	-14	1	6	6	0	0	7.5026642877E+01	2.5567133257E+02	-4.0256732059E+02	5.8196415272E+02	3.2500000000E+02	0.000E+00	0.0
	25	2	5	5	0	0	1.4059378780E+02	-1.8490386296E+01	-2.3610832880E+02	3.0253326465E+02	1.2518276934E+02	0.000E+00	0.0
	-5	1	9	9	0	501	1.4430444279E+02	2.5948249431E+00	-2.4027889940E+02	2.8032468179E+02	4.1800000000E+00	0.000E+00	0.0
	5	1	9	9	501	0	-3.7106549913E+00	-2.1085211239E+01	4.1705706002E+00	2.2208582859E+01	4.1800000000E+00	0.000E+00	0.0
</event>
<event>
    11  -1  1.0000000E+00  1.0000000E+00  -1.0000000E+00  -1.0000000E+00
	2212	-1	0	0	0	0	0.0000000000E+00	0.0000000000E+00	6.5000000000E+03	6.5000000000E+03	9.3827000000E-01	0.000E+00	0.0
	2212	-1	0	0	0	0	0.0000000000E+00	0.0000000000E+00	-6.5000000000E+03	6.5000000000E+03	9.3827000000E-01	0.000E+00	0.0
	2212	1	0	0	0	0	0.0000000000E+00	0.0000000000E+00	6.1617274018E+03	6.1617274018E+03	9.3827000000E-01	0.000E+00	0.0
	2212	1	0	0	0	0	0.0000000000E+00	0.0000000000E+00	-5.6809747596E+03	5.6809747596E+03	9.3827000000E-01	0.000E+00	0.0
	51	2	1	2	0	0	8.6991893437E+01	1.1240656185E+02	-4.7569668732E+02	1.1639181016E+03	1.0527179984E+03	0.000E+00	0.0
	1000022	2	5	5	0	0	-8.6991893437E+01	-1.1240656185E+02	-4.0360249307E+02	9.5278589854E+02	8.5129499668E+02	0.000E+00	0.0
	14	1	6	6	0	0	2.0258827820E+02	-1.2007896611E+02	-3.1084407585E+02	5.0765146317E+02	3.2500000000E+02	0.000E+00	0.0
	-14	1	6	6	0	0	-2.8958017164E+02	7.6724042610E+00	-9.2758417228E+01	4.4513443538E+02	3.2500000000E+02	0.000E+00	0.0
	25	2	5	5	0	0	8.6991893437E+01	1.1240656185E+02	-7.7150149193E+01	2.0451194006E+02	1.2518052339E+02	0.000E+00	0.0
	-5	1	9	9	0	501	9.6760159775E+01	1.3175745866E+02	-8.0362238637E+01	1.8220350773E+02	4.1800000000E+00	0.000E+00	0.0
	5	1	9	9	501	0	-9.7682663386E+00	-1.9350896804E+01	3.2120894447E+00	2.2308432329E+01	4.1800000000E+00	0.000E+00	0.0
</event>
<event>
    11  -1  1.0000000E+00  1.0000000E+00  -1.0000000E+00  -1.0000000E+00
	2212	-1	0	0	0	0	0.0000000000E+00	0.0000000000E+00	6.5000000000E+03	6.5000000000E+03	9.3827000000E-01	0.000E+00	0.0
	2212	-1	0	0	0	0	0.0000000000E+00	0.0000000000E+00	-6.5000000000E+03	6.5000000000E+03	9.3827000000E-01	0.000E+00	0.0
	2212	1	0	0	0	0	0.0000000000E+00	0.0000000000E+00	5.0626388158E+03	5.0626388158E+03	9.3827000000E-01	0.000E+00	0.0
	2212	1	0	0	0	0	0.0000000000E+00	0.0000000000E+00	-6.3064104605E+03	6.3064104605E+03	9.3827000000E-01	0.000E+00	0.0
	51	2	1	2	0	0	-8.0759777430E+01	1.7078239481E+01	1.0309837194E+03	1.4774212657E+03	1.0550034876E+03	0.000E+00	0.0
	1000022	2	5	5	0	0	8.0759777430E+01	-1.7078239481E+01	1.2241064551E+03	1.4796657266E+03	8.2713979536E+02	0.000E+00	0.0
	14	1	6	6	0	0	4.4156782102E+00	-1.7378158503E+02	9.5345733950E+02	1.0222159438E+03	3.2500000000E+02	0.000E+00	0.0
	-14	1	6	6	0	0	7.6344099219E+01	1.5670334555E+02	2.7064911562E+02	4.5744978279E+02	3.2500000000E+02	0.000E+00	0.0
	25	2	5	5	0	0	-8.0759777430E+01	1.7078239481E+01	1.9665189648E+01	1.5128499711E+02	1.2524624845E+02	0.000E+00	0.0
	-5	1	9	9	0	501	-7.2977396355E+01	-3.7847838093E+01	4.0678128524E+01	9.1816892603E+01	4.1800000000E+00	0.000E+00	0.0
	5	1	9	9	501	0	-7.7823810749E+00	5.4926077574E+01	-2.1012938876E+01	5.9468104502E+01	4.1800000000E+00	0.000E+00	0.0
</event>
<event>
    11  -1  1.0000000E+00  1.0000000E+00  -1.0000000E+00  -1.0000000E+00
	2212	-1	0	0	0	0	0.0000000000E+00	0.0000000000E+00	6.5000000000E+03	6.5000000000E+03	9.3827000000E-01	0.000E+00	0.0
	2212	-1	0	0	0	0	0.0000000000E+00	0.0000000000E+00	-6.5000000000E+03	6.5000000000E+03	9.3827000000E-01	0.000E+00	0.0
	2212	1	0	0	0	0	0.0000000000E+00	0.0000000000E+00	6.3111383619E+03	6.3111383619E+03	9.3827000000E-01	0.000E+00	0.0
	2212	1	0	0	0	0	0.0000000000E+00	0.0000000000E+00	-5.0500090648E+03	5.0500090648E+03	9.3827000000E-01	0.000E+00	0.0
	51	2	1	2	0	0	-1.2541259620E+02	-3.7190790679E+01	-1.3430809840E+03	1.7077378771E+03	1.0466091215E+03	0.000E+00	0.0
	1000022	2	5	5	0	0	1.2541259620E+02	3.7190790679E+01	-9.6525788775E+02	1.2919760371E+03	8.4874484764E+02	0.000E+00	0.0
	14	1	6	6	0	0	1.3597085697E+02	2.8182338694E+02	-5.3346782984E+02	6.9865973181E+02	3.2500000000E+02	0.000E+00	0.0
	-14	1	6	6	0	0	-1.0558260768E+01	-2.4463259626E+02	-4.3179005791E+02	5.9331630530E+02	3.2500000000E+02	0.000E+00	0.0
	25	2	5	5	0	0	-1.2541259620E+02	-3.7190790679E+01	-2.9587140933E+02	3.4687653622E+02	1.2518772432E+02	0.000E+00	0.0
	-5	1	9	9	0	501	-5.4573845385E+00	-2.7011499370E+01	-1.7143703768E+02	1.7368803768E+02	4.1800000000E+00	0.000E+00	0.0
	5	1	9	9	501	0	-1.1995521166E+02	-1.0179291309E+01	-1.2443437165E+02	1.7318849854E+02	4.1800000000E+00	0.000E+00	0.0
</event>
<event>
    11  -1  1.0000000E+00  1.0000000E+00  -1.0000000E+00  -1.0000000E+00
	2212	-1	0	0	0	0	0.0000000000E+00	0.0000000000E+00	6.5000000000E+03	6.5000000000E+03	9.3827000000E-01	0.000E+00	0.0
	2212	-1	0	0	0	0	0.0000000000E+00	0.0000000000E+00	-6.5000000000E+03	6.5000000000E+03	9.3827000000E-01	0.000E+00	0.0
	2212	1	0	0	0	0	0.0000000000E+00	0.0000000000E+00	5.8815229073E+03	5.8815229073E+03	9.3827000000E-01	0.000E+00	0.0
	2212	1	0	0	0	0	0.0000000000E+00	0.0000000000E+00	-6.0740704216E+03	6.0740704216E+03	9.3827000000E-01	0.000E+00	0.0
	51	2	1	2	0	0	-1.1164807848E+02	2.3167820312E+01	2.1523712626E+02	1.0550070195E+03	1.0265041400E+03	0.000E+00	0.0
	1000022	2	5	5	0	0	1.1164807848E+02	-2.3167820312E+01	1.3907476246E+02	8.6683394279E+02	8.4797243675E+02	0.000E+00	0.0
	14	1	6	6	0	0	-1.3828274470E+02	-1.6744839825E+02	-4.7678486155E+01	3.9377572500E+02	3.2500000000E+02	0.000E+00	0.0
	-14	1	6	6	0	0	2.4993082317E+02	1.4428057794E+02	1.8675324862E+02	4.7305821778E+02	3.2500000000E+02	0.000E+00	0.0
	25	2	5	5	0	0	-1.1164807848E+02	2.3167820312E+01	5.3472751873E+01	1.7757272834E+02	1.2518265587E+02	0.000E+00	0.0
	-5	1	9	9	0	501	-1.2101537449E+02	5.6760513887E+01	3.6856850318E+01	1.3871689376E+02	4.1800000000E+00	0.000E+00	0.0
	5	1	9	9	501	0	9.3672960099E+00	-3.3592693575E+01	1.6615901555E+01	3.8855834576E+01	4.1800000000E+00	0.000E+00	0.0
</event>
<event>
    11  -1  1.0000000E+00  1.0000000E+00  -1.0000000E+00  -1.0000000E+00
	2212	-1	0	0	0	0	0.0000000000E+00	0.0000000000E+00	6.5000000000E+03	6.5000000000E+03	9.3827000000E-01	0.000E+00	0.0
	2212	-1	0	0	0	0	0.0000000000E+00	0.0000000000E+00	-6.5000000000E+03	6.5000000000E+03	9.3827000000E-01	0.000E+00	0.0
	2212	1	0	0	0	0	0.0000000000E+00	0.0000000000E+00	5.8580777051E+03	5.8580777051E+03	9.3827000000E-01	0.000E+00	0.0
	2212	1	0	0	0	0	0.0000000000E+00	0.0000000000E+00	-6.0876180136E+03	6.0876180136E+03	9.3827000000E-01	0.000E+00	0.0
	51	2	1	2	0	0	-8.0252147631E+01	-8.3712803897E+01	2.5219220194E+02	1.0657944980E+03	1.0290134909E+03	0.000E+00	0.0
	1000022	2	5	5	0	0	8.0252147631E+01	8.3712803897E+01	1.7004666242E+02	8.7359577911E+02	8.4900263671E+02	0.000E+00	0.0
	14	1	6	6	0	0	-1.8603641685E+01	-1.1481923505E+02	-1.4015835588E+02	3.7255726667E+02	3.2500000000E+02	0.000E+00	0.0
	-14	1	6	6	0	0	9.8855789316E+01	1.9853203895E+02	3.1020501830E+02	5.0103851244E+02	3.2500000000E+02	0.000E+00	0.0
	25	2	5	5	0	0	-8.0252147631E+01	-8.3712803897E+01	5.9493646052E+01	1.8070850223E+02	1.2517119526E+02	0.000E+00	0.0
	-5	1	9	9	0	501	-5.7658559759E+01	-2.5201857047E+01	-3.1199786418E+01	7.0360089430E+01	4.1800000000E+00	0.000E+00	0.0
	5	1	9	9	501	0	-2.2593587872E+01	-5.8510946850E+01	9.0693432470E+01	1.1034841280E+02	4.1800000000E+00	0.000E+00	0.0
</event>
<event>
    11  -1  1.0000000E+00  1.0000000E+00  -1.0000000E+00  -1.0000000E+00
	2212	-1	0	0	0	0	0.0000000000E+00	0.0000000000E+00	6.5000000000E+03	6.5000000000E+03	9.3827000000E-01	0.000E+00	0.0
	2212	-1	0	0	0	0	0.0000000000E+00	0.0000000000E+00	-6.5000000000E+03	6.5000000000E+03	9.3827000000E-01	0.000E+00	0.0
	2212	1	0	0	0	0	0.0000000000E+00	0.0000000000E+00	5.9580558331E+03	5.9580558331E+03	9.3827000000E-01	0.000E+00	0.0
	2212	1	0	0	0	0	0.0000000000E+00	0.0000000000E+00	-5.9930032633E+03	5.9930032633E+03	9.3827000000E-01	0.000E+00	0.0
	51	2	1	2	0	0	1.0994655727E+02	-6.0079832007E+01	7.3459100262E+01	1.0583712805E+03	1.0483585724E+03	0.000E+00	0.0
	1000022	2	5	5	0	0	-1.0994655727E+02	6.0079832007E+01	-9.3353944379E+00	8.6629034550E+02	8.5713125100E+02	0.000E+00	0.0
	14	1	6	6	0	0	7.7744768131E+01	1.1336754033E+02	-2.3609670794E+02	4.2457402614E+02	3.2500000000E+02	0.000E+00	0.0
	-14	1	6	6	0	0	-1.8769132540E+02	-5.3287708327E+01	2.2676131350E+02	4.4171631936E+02	3.2500000000E+02	0.000E+00	0.0
	25	2	5	5	0	0	1.0994655727E+02	-6.0079832007E+01	4.4282824687E+01	1.8265055810E+02	1.2530932184E+02	0.000E+00	0.0
	-5	1	9	9	0	501	1.1543127831E+02	-3.0077407435E+01	7.3528287932E+01	1.4018884398E+02	4.1800000000E+00	0.000E+00	0.0
	5	1	9	9	501	0	-5.4847210418E+00	-3.0002424573E+01	-2.9245463245E+01	4.2461714115E+01	4.1800000000E+00	0.000E+00	0.0
</event>
<event>
    11  -1  1.0000000E+00  1.0000000E+00  -1.0000000E+00  -1.0000000E+00
	2212	-1	0	0	0	0	0.0000000000E+00	0.0000000000E+00	6.5000000000E+03	6.5000000000E+03	9.3827000000E-01	0.000E+00	0.0
	2212	-1	0	0	0	0	0.0000000000E+00	0.0000000000E+00	-6.5000000000E+03	6.5000000000E+03	9.3827000000E-01	0.000E+00	0.0
	2212	1	0	0	0	0	0.0000000000E+00	0.0000000000E+00	5.3474462464E+03	5.3474462464E+03	9.3827000000E-01	0.000E+00	0.0
	2212	1	0	0	0	0	0.0000000000E+00	0.0000000000E+00	-6.2588686669E+03	6.2588686669E+03	9.3827000000E-01	0.000E+00	0.0
	51	2	1	2	0	0	-5.3212453509E+01	-9.1946090774E+01	7.6132388748E+02	1.3048245102E+03	1.0543563402E+03	0.000E+00	0.0
	1000022	2	5	5	0	0	5.3212453509E+01	9.1946090774E+01	8.9553730136E+02	1.2287347675E+03	8.3457559396E+02	0.000E+00	0.0
	14	1	6	6	0	0	-1.9582528429E+02	1.3152346282E+02	2.8455403795E+02	4.9218082425E+02	3.2500000000E+02	0.000E+00	0.0
	-14	1	6	6	0	0	2.4903773780E+02	-3.9577372049E+01	6.1098326340E+02	7.3655394330E+02	3.2500000000E+02	0.000E+00	0.0
	25	2	5	5	0	0	-5.3212453509E+01	-9.1946090774E+01	1.5885119170E+01	1.6495031909E+02	1.2518235475E+02	0.000E+00	0.0
	-5	1	9	9	0	501	1.5581713254E+01	-5.4402847469E+01	-3.9284990998E+01	6.9016248220E+01	4.1800000000E+00	0.000E+00	0.0
	5	1	9	9	501	0	-6.8794166762E+01	-3.7543243306E+01	5.5170110168E+01	9.5934070874E+01	4.1800000000E+00	0.000E+00	0.0
</event>
<event>
    11  -1  1.0000000E+00  1.0000000E+00  -1.0000000E+00  -1.0000000E+00
	2212	-1	0	0	0	0	0.0000000000E+00	0.0000000000E+00	6.5000000000E+03	6.5000000000E+03	9.3827000000E-01	0.000E+00	0.0
	2212	-1	0	0	0	0	0.0000000000E+00	0.0000000000E+00	-6.5000000000E+03	6.5000000000E+03	9.3827000000E-01	0.000E+00	0.0
	2212	1	0	0	0	0	0.0000000000E+00	0.0000000000E+00	5.9641751079E+03	5.9641751079E+03	9.3827000000E-01	0.000E+00	0.0
	2212	1	0	0	0	0	0.0000000000E+00	0.0000000000E+00	-5.9843772554E+03	5.9843772554E+03	9.3827000000E-01	0.000E+00	0.0
	51	2	1	2	0	0	1.0253768840E+01	4.6783603863E+00	1.6376521514E+02	1.0639925180E+03	1.0512535402E+03	0.000E+00	0.0
	1000022	2	5	5	0	0	-1.0253768840E+01	-4.6783603863E+00	-1.2683660813E+02	8.5800594699E+02	8.4850436244E+02	0.000E+00	0.0
	14	1	6	6	0	0	3.6435718043E+01	2.6095662405E+02	-4.8965796845E+00	4.1841952354E+02	3.2500000000E+02	0.000E+00	0.0
	-14	1	6	6	0	0	-4.6689486883E+01	-2.6563498444E+02	-1.2194002844E+02	4.3958642345E+02	3.2500000000E+02	0.000E+00	0.0
	25	2	5	5	0	0	1.0253768840E+01	4.6783603863E+00	1.4703875567E+02	1.9344168967E+02	1.2518891645E+02	0.000E+00	0.0
	-5	1	9	9	0	501	3.1916874454E+01	-4.5797934246E+01	1.1926518529E+02	1.3174898284E+02	4.1800000000E+00	0.000E+00	0.0
	5	1	9	9	501	0	-2.1663105615E+01	5.0476294633E+01	2.7773570375E+01	6.1692706831E+01	4.1800000000E+00	0.000E+00	0.0
</event>
<event>
    11  -1  1.0000000E+00  1.0000000E+00  -1.0000000E+00  -1.0000000E+00
	2212	-1	0	0	0	0	0.0000000000E+00	0.0000000000E+00	6.5000000000E+03	6.5000000000E+03	9.3827000000E-01	0.000E+00	0.0
	2212	-1	0	0	0	0	0.0000000000E+00	0.0000000000E+00	-6.5000000000E+03	6.5000000000E+03	9.3827000000E-01	0.000E+00	0.0
	2212	1	0	0	0	0	0.0000000000E+00	0.0000000000E+00	5.6976595109E+03	5.6976595109E+03	9.3827000000E-01	0.000E+00	0.0
	2212	1	0	0	0	0	0.0000000000E+00	0.0000000000E+00	-6.1565025791E+03	6.1565025791E+03	9.3827000000E-01	0.000E+00	0.0
	51	2	1	2	0	0	3.9455537773E+01	-1.1224511106E+02	3.7891407701E+02	1.1225591908E+03	1.0499559775E+03	0.000E+00	0.0
	1000022	2	5	5	0	0	-3.9455537773E+01	1.1224511106E+02	4.6029188150E+02	9.7313336324E+02	8.4909612063E+02	0.000E+00	0.0
	14	1	6	6	0	0	6.7865337123E+01	3.1659396131E+02	2.4457666455E+02	5.1988478066E+02	3.2500000000E+02	0.000E+00	0.0
	-14	1	6	6	0	0	-1.0732087490E+02	-2.0434885025E+02	2.1571521696E+02	4.5324858258E+02	3.2500000000E+02	0.000E+00	0.0
	25	2	5	5	0	0	3.9455537773E+01	-1.1224511106E+02	-1.4488132813E+00	1.7270454676E+02	1.2517610392E+02	0.000E+00	0.0
	-5	1	9	9	0	501	-2.8420576443E+00	-8.7208156672E+01	5.0634282650E+01	1.0096852411E+02	4.1800000000E+00	0.000E+00	0.0
	5	1	9	9	501	0	4.2297595417E+01	-2.5036954385E+01	-5.2083095931E+01	7.1736022644E+01	4.1800000000E+00	0.000E+00	0.0
</event>
<event>
    11  -1  1.0000000E+00  1.0000000E+00  -1.0000000E+00  -1.0000000E+00
	2212	-1	0	0	0	0	0.0000000000E+00	0.0000000000E+00	6.5000000000E+03	6.5000000000E+03	9.3827000000E-01	0.000E+00	0.0
	2212	-1	0	0	0	0	0.0000000000E+00	0.0000000000E+00	-6.5000000000E+03	6.5000000000E+03	9.3827000000E-01	0.000E+00	0.0
	2212	1	0	0	0	0	0.0000000000E+00	0.0000000000E+00	6.1263311903E+03	6.1263311903E+03	9.3827000000E-01	0.000E+00	0.0
	2212	1	0	0	0	0	0.0000000000E+00	0.0000000000E+00	-5.7558612458E+03	5.7558612458E+03	9.3827000000E-01	0.000E+00	0.0
	51	2	1	2	0	0	-1.1413447001E+02	7.6570188324E+01	-3.0140971564E+02	1.1054335158E+03	1.0546306321E+03	0.000E+00	0.0
	1000022	2	5	5	0	0	1.1413447001E+02	-7.6570188324E+01	-3.7380373354E+02	9.3186724739E+02	8.4247116541E+02	0.000E+00	0.0
	14	1	6	6	0	0	-1.3409263839E+02	-9.3452174307E+01	-3.7514639184E+02	5.2256479011E+02	3.2500000000E+02	0.000E+00	0.0
	-14	1	6	6	0	0	2.4822710840E+02	1.6881985983E+01	1.3426583004E+00	4.0930245727E+02	3.2500000000E+02	0.000E+00	0.0
	25	2	5	5	0	0	-1.1413447001E+02	7.6570188324E+01	3.3337889897E+00	1.8594031655E+02	1.2519191741E+02	0.000E+00	0.0
	-5	1	9	9	0	501	-1.3943652873E+02	4.8318860307E+01	-1.0769769233E-01	1.4763042304E+02	4.1800000000E+00	0.000E+00	0.0
	5	1	9	9	501	0	2.5302058722E+01	2.8251328017E+01	3.4414866820E+00	3.8309893512E+01	4.1800000000E+00	0.000E+00	0.0
</event>
<event>
    11  -1  1.0000000E+00  1.0000000E+00  -1.0000000E+00  -1.0000000E+00
	2212	-1	0	0	0	0	0.0000000000E+00	0.0000000000E+00	6.5000000000E+03	6.5000000000E+03	9.3827000000E-01	0.000E+00	0.0
	2212	-1	0	0	0	0	0.0000000000E+00	0.0000000000E+00	-6.5000000000E+03	6.5000000000E+03	9.3827000000E-01	0.000E+00	0.0
	2212	1	0	0	0	0	0.0000000000E+00	0.0000000000E+00	5.9967787226E+03	5.9967787226E+03	9.3827000000E-01	0.000E+00	0.0
	2212	1	0	0	0	0	0.0000000000E+00	0.0000000000E+00	-5.9502454074E+03	5.9502454074E+03	9.3827000000E-01	0.000E+00	0.0
	51	2	1	2	0	0	-6.6419029108E+01	-7.2715890061E+01	6.2672209432E+01	1.0584043308E+03	1.0519471629E+03	0.000E+00	0.0
	1000022	2	5	5	0	0	6.6419029108E+01	7.2715890061E+01	-1.4764168539E+02	8.6432151574E+02	8.4590456152E+02	0.000E+00	0.0
	14	1	6	6	0	0	2.8933214001E+02	-3.8271059924E+01	-2.7713417304E+01	4.3768801077E+02	3.2500000000E+02	0.000E+00	0.0
	-14	1	6	6	0	0	-2.2291311090E+02	1.1098694998E+02	-1.1992826809E+02	4.2663350497E+02	3.2500000000E+02	0.000E+00	0.0
	25	2	5	5	0	0	-6.6419029108E+01	-7.2715890061E+01	1.0110837018E+02	1.8865435433E+02	1.2517377837E+02	0.000E+00	0.0
	-5	1	9	9	0	501	-2.3057638109E+01	-2.3250342353E+01	-2.8264842203E+01	4.3458103956E+01	4.1800000000E+00	0.000E+00	0.0
	5	1	9	9	501	0	-4.3361390999E+01	-4.9465547708E+01	1.2937321239E+02	1.4519625037E+02	4.1800000000E+00	0.000E+00	0.0
</event>
<event>
    11  -1  1.0000000E+00  1.0000000E+00  -1.0000000E+00  -1.0000000E+00
	2212	-1	0	0	0	0	0.0000000000E+00	0.0000000000E+00	6.5000000000E+03	6.5000000000E+03	9.3827000000E-01	0.000E+00	0.0
	2212	-1	0	0	0	0	0.0000000000E+00	0.0000000000E+00	-6.5000000000E+03	6.5000000000E+03	9.3827000000E-01	0.000E+00	0.0
	2212	1	0	0	0	0	0.0000000000E+00	0.0000000000E+00	5.3013595086E+03	5.3013595086E+03	9.3827000000E-01	0.000E+00	0.0
	2212	1	0	0	0	0	0.0000000000E+00	0.0000000000E+00	-6.2750564843E+03	6.2750564843E+03	9.3827000000E-01	0.000E+00	0.0
	51	2	1	2	0	0	5.6041633281E+01	-4.5672288487E+00	1.1370330270E+03	1.5409449222E+03	1.0385112540E+03	0.000E+00	0.0
	1000022	2	5	5	0	0	-5.6041633281E+01	4.5672288487E+00	6.5042535616E+02	1.0723908803E+03	8.5076878884E+02	0.000E+00	0.0
	14	1	6	6	0	0	-4.3080715717E+01	1.2692230638E+02	1.9502997166E+01	3.5209457085E+02	3.2500000000E+02	0.000E+00	0.0
	-14	1	6	6	0	0	-1.2960917564E+01	-1.2235507754E+02	6.3092235900E+02	7.2029630949E+02	3.2500000000E+02	0.000E+00	0.0
	25	2	5	5	0	0	5.6041633281E+01	-4.5672288487E+00	3.2327161957E+02	3.5119312673E+02	1.2518205942E+02	0.000E+00	0.0
	-5	1	9	9	0	501	4.7330271311E+01	-5.4288847873E+01	2.6171099133E+02	2.7147292493E+02	4.1800000000E+00	0.000E+00	0.0
	5	1	9	9	501	0	8.7113619710E+00	4.9721619024E+01	6.1560628242E+01	7.9720201802E+01	4.1800000000E+00	0.000E+00	0.0
</event>
<event>
    11  -1  1.0000000E+00  1.0000000E+00  -1.0000000E+00  -1.0000000E+00
	2212	-1	0	0	0	0	0.0000000000E+00	0.0000000000E+00	6.5000000000E+03	6.5000000000E+03	9.3827000000E-01	0.000E+00	0.0
	2212	-1	0	0	0	0	0.0000000000E+00	0.0000000000E+00	-6.5000000000E+03	6.5000000000E+03	9.3827000000E-01	0.000E+00	0.0
	2212	1	0	0	0	0	0.0000000000E+00	0.0000000000E+00	5.7790364233E+03	5.7790364233E+03	9.3827000000E-01	0.000E+00	0.0
	2212	1	0	0	0	0	0.0000000000E+00	0.0000000000E+00	-6.1197343786E+03	6.1197343786E+03	9.3827000000E-01	0.000E+00	0.0
	51	2	1	2	0	0	2.0123310753E+01	2.3862845509E+00	5.0047744321E+02	1.1608268446E+03	1.0472013417E+03	0.000E+00	0.0
	1000022	2	5	5	0	0	-2.0123310753E+01	-2.3862845509E+00	1.2083531738E+02	8.4742633800E+02	8.3852226114E+02	0.000E+00	0.0
	14	1	6	6	0	0	1.0059931592E+02	-1.3963461037E+02	2.5896952813E+02	4.4978690874E+02	3.2500000000E+02	0.000E+00	0.0
	-14	1	6	6	0	0	-1.2072262667E+02	1.3724832582E+02	-1.3813421074E+02	3.9763942927E+02	3.2500000000E+02	0.000E+00	0.0
	25	2	5	5	0	0	2.0123310753E+01	2.3862845509E+00	2.1986263796E+02	2.5380286011E+02	1.2516257523E+02	0.000E+00	0.0
	-5	1	9	9	0	501	2.2080446513E+01	-3.0395232797E+01	7.0769908872E+00	3.8457411445E+01	4.1800000000E+00	0.000E+00	0.0
	5	1	9	9	501	0	-1.9571357602E+00	3.2781517348E+01	2.1278564707E+02	2.1534544866E+02	4.1800000000E+00	0.000E+00	0.0
</event>
<event>
    11  -1  1.0000000E+00  1.0000000E+00  -1.0000000E+00  -1.0000000E+00
	2212	-1	0	0	0	0	0.0000000000E+00	0.0000000000E+00	6.5000000000E+03	6.5000000000E+03	9.3827000000E-01	0.000E+00	0.0
	2212	-1	0	0	0	0	0.0000000000E+00	0.0000000000E+00	-6.5000000000E+03	6.5000000000E+03	9.3827000000E-01	0.000E+00	0.0
	2212	1	0	0	0	0	0.0000000000E+00	0.0000000000E+00	6.1862690271E+03	6.1862690271E+03	9.3827000000E-01	0.000E+00	0.0
	2212	1	0	0	0	0	0.0000000000E+00	0.0000000000E+00	-5.6453271005E+03	5.6453271005E+03	9.3827000000E-01	0.000E+00	0.0
	51	2	1	2	0	0	-3.8203960927E+01	1.0810555960E+02	-6.0336348465E+02	1.2040528603E+03	1.0356396289E+03	0.000E+00	0.0
	1000022	2	5	5	0	0	3.8203960927E+01	-1.0810555960E+02	-3.8978892450E+02	9.4109999918E+02	8.4887422398E+02	0.000E+00	0.0
	14	1	6	6	0	0	-2.5037709043E+02	-4.1099011904E+01	-1.4052108848E+02	4.3560187385E+02	3.2500000000E+02	0.000E+00	0.0
	-14	1	6	6	0	0	2.8858105136E+02	-6.7006547698E+01	-2.4926783602E+02	5.0549812533E+02	3.2500000000E+02	0.000E+00	0.0
	25	2	5	5	0	0	-3.8203960927E+01	1.0810555960E+02	-1.5115300215E+02	2.2730387322E+02	1.2519371420E+02	0.000E+00	0.0
	-5	1	9	9	0	501	-4.6331709518E+01	1.3422158654E+02	-1.2465931635E+02	1.8899597655E+02	4.1800000000E+00	0.000E+00	0.0
	5	1	9	9	501	0	8.1277485912E+00	-2.6116026934E+01	-2.6493685796E+01	3.8307896667E+01	4.1800000000E+00	0.000E+00	0.0
</event>
<event>
    11  -1  1.0000000E+00  1.0000000E+00  -1.0000000E+00  -1.0000000E+00
	2212	-1	0	0	0	0	0.0000000000E+00	0.0000000000E+00	6.5000000000E+03	6.5000000000E+03	9.3827000000E-01	0.000E+00	0.0
	2212	-1	0	0	0	0	0.0000000000E+00	0.0000000000E+00	-6.5000000000E+03	6.5000000000E+03	9.3827000000E-01	0.000E+00	0.0
	2212	1	0	0	0	0	0.0000000000E+00	0.0000000000E+00	6.3318725841E+03	6.3318725841E+03	9.3827000000E-01	0.000E+00	0.0
	2212	1	0	0	0	0	0.0000000000E+00	0.0000000000E+00	-4.9337510633E+03	4.9337510633E+03	9.3827000000E-01	0.000E+00	0.0
	51	2	1	2	0	0	-9.6406850355E+00	1.0266875130E+02	-1.4973442525E+03	1.8182384802E+03	1.0263125963E+03	0.000E+00	0.0
	1000022	2	5	5	0	0	9.6406850355E+00	-1.0266875130E+02	-1.0752235199E+03	1.3730439964E+03	8.4764991779E+02	0.000E+00	0.0
	14	1	6	6	0	0	5.3135560014E+01	1.9708193229E+02	-6.6792826891E+02	7.7033619166E+02	3.2500000000E+02	0.000E+00	0.0
	-14	1	6	6	0	0	-4.3494874978E+01	-2.9975068359E+02	-4.0729525096E+02	6.0270780475E+02	3.2500000000E+02	0.000E+00	0.0
	25	2	5	5	0	0	-9.6406850355E+00	1.0266875130E+02	-3.2289800101E+02	3.6133235619E+02	1.2515645118E+02	0.000E+00	0.0
	-5	1	9	9	0	501	-1.3503703742E+01	1.1607454996E+02	-1.6208728287E+02	1.9986348048E+02	4.1800000000E+00	0.000E+00	0.0
	5	1	9	9	501	0	3.8630187063E+00	-1.3405798669E+01	-1.6081071814E+02	1.6146887570E+02	4.1800000000E+00	0.000E+00	0.0
</event>
<event>
    11  -1  1.0000000E+00  1.0000000E+00  -1.0000000E+00  -1.0000000E+00
	2212	-1	0	0	0	0	0.0000000000E+00	0.0000000000E+00	6.5000000000E+03	6.5000000000E+03	9.3827000000E-01	0.000E+00	0.0
	2212	-1	0	0	0	0	0.0000000000E+00	0.0000000000E+00	-6.5000000000E+03	6.5000000000E+03	9.3827000000E-01	0.000E+00	0.0
	2212	1	0	0	0	0	0.0000000000E+00	0.0000000000E+00	5.2611471218E+03	5.2611471218E+03	9.3827000000E-01	0.000E+00	0.0
	2212	1	0	0	0	0	0.0000000000E+00	0.0000000000E+00	-6.2872471547E+03	6.2872471547E+03	9.3827000000E-01	0.000E+00	0.0
	51	2	1	2	0	0	-2.9890549717E+01	-4.6045693050E+01	8.8607385830E+02	1.3573571497E+03	1.0267803557E+03	0.000E+00	0.0
	1000022	2	5	5	0	0	2.9890549717E+01	4.6045693050E+01	1.0013103030E+03	1.3126921271E+03	8.4706826572E+02	0.000E+00	0.0
	14	1	6	6	0	0	-3.4260994797E+00	-2.2165578611E+02	3.0293323652E+02	4.9652449231E+02	3.2500000000E+02	0.000E+00	0.0
	-14	1	6	6	0	0	3.3316649197E+01	2.6770147916E+02	6.9837706649E+02	8.1616763478E+02	3.2500000000E+02	0.000E+00	0.0
	25	2	5	5	0	0	-2.9890549717E+01	-4.6045693050E+01	2.4789729945E+01	1.3891359639E+02	1.2517510032E+02	0.000E+00	0.0
	-5	1	9	9	0	501	4.8496256882E+01	-2.7542010231E+01	1.2849708760E+01	5.7384986489E+01	4.1800000000E+00	0.000E+00	0.0
	5	1	9	9	501	0	-7.8386806599E+01	-1.8503682818E+01	1.1940021185E+01	8.1528609902E+01	4.1800000000E+00	0.000E+00	0.0
</event>
<event>
    11  -1  1.0000000E+00  1.0000000E+00  -1.0000000E+00  -1.0000000E+00
	2212	-1	0	0	0	0	0.0000000000E+00	0.0000000000E+00	6.5000000000E+03	6.5000000000E+03	9.3827000000E-01	0.000E+00	0.0
	2212	-1	0	0	0	0	0.0000000000E+00	0.0000000000E+00	-6.5000000000E+03	6.5000000000E+03	9.3827000000E-01	0.000E+00	0.0
	2212	1	0	0	0	0	0.0000000000E+00	0.0000000000E+00	6.1812322924E+03	6.1812322924E+03	9.3827000000E-01	0.000E+00	0.0
	2212	1	0	0	0	0	0.0000000000E+00	0.0000000000E+00	-5.6340168025E+03	5.6340168025E+03	9.3827000000E-01	0.000E+00	0.0
	51	2	1	2	0	0	2.5344994264E+01	-9.6140209227E+01	-6.5102131053E+02	1.2401225626E+03	1.0508044133E+03	0.000E+00	0.0
	1000022	2	5	5	0	0	-2.5344994264E+01	9.6140209227E+01	-3.5269218004E+02	9.3297101467E+02	8.5799640546E+02	0.000E+00	0.0
	14	1	6	6	0	0	-6.0830657774E+01	-1.6314966407E+02	-3.6045578117E+02	5.1562733829E+02	3.2500000000E+02	0.000E+00	0.0
	-14	1	6	6	0	0	3.5485663510E+01	2.5928987330E+02	7.7636011285E+00	4.1734367638E+02	3.2500000000E+02	0.000E+00	0.0
	25	2	5	5	0	0	2.5344994264E+01	-9.6140209227E+01	-1.9452330986E+02	2.5177989050E+02	1.2517382561E+02	0.000E+00	0.0
	-5	1	9	9	0	501	1.6703078706E+01	-5.0415216984E+01	-1.9789123814E+02	2.0493682313E+02	4.1800000000E+00	0.000E+00	0.0
	5	1	9	9	501	0	8.6419155578E+00	-4.5724992243E+01	3.3679282758E+00	4.6843067374E+01	4.1800000000E+00	0.000E+00	0.0
</event>
<event>
    11  -1  1.0000000E+00  1.0000000E+00  -1.0000000E+00  -1.0000000E+00
	2212	-1	0	0	0	0	0.0000000000E+00	0.0000000000E+00	6.5000000000E+03	6.5000000000E+03	9.3827000000E-01	0.000E+00	0.0
	2212	-1	0	0	0	0	0.0000000000E+00	0.0000000000E+00	-6.5000000000E+03	6.5000000000E+03	9.3827000000E-01	0.000E+00	0.0
	2212	1	0	0	0	0	0.0000000000E+00	0.0000000000E+00	4.9224208766E+03	4.9224208766E+03	9.3827000000E-01	0.000E+00	0.0
	2212	1	0	0	0	0	0.0000000000E+00	0.0000000000E+00	-6.3298031069E+03	6.3298031069E+03	9.3827000000E-01	0.000E+00	0.0
	51	2	1	2	0	0	5.8906057438E+01	1.1381592759E+02	1.4978822470E+03	1.8259439961E+03	1.0363379092E+03	0.000E+00	0.0
	1000022	2	5	5	0	0	-5.8906057438E+01	-1.1381592759E+02	1.0776549644E+03	1.3725205510E+03	8.4026689319E+02	0.000E+00	0.0
	14	1	6	6	0	0	-2.7896189195E+02	-7.5949582876E+01	4.1368450364E+02	6.0028988402E+02	3.2500000000E+02	0.000E+00	0.0
	-14	1	6	6	0	0	2.2005583451E+02	-3.7866344716E+01	6.6397046071E+02	7.7223066700E+02	3.2500000000E+02	0.000E+00	0.0
	25	2	5	5	0	0	5.8906057438E+01	1.1381592759E+02	3.2972726592E+02	3.7525546554E+02	1.2519027737E+02	0.000E+00	0.0
	-5	1	9	9	0	501	-2.3413662868E+01	5.9208938734E+00	7.5658626497E+00	2.5650950680E+01	4.1800000000E+00	0.000E+00	0.0
	5	1	9	9	501	0	8.2319720306E+01	1.0789503372E+02	3.2216140327E+02	3.4960451486E+02	4.1800000000E+00	0.000E+00	0.0
</event>
<event>
    11  -1  1.0000000E+00  1.0000000E+00  -1.0000000E+00  -1.0000000E+00
	2212	-1	0	0	0	0	0.0000000000E+00	0.0000000000E+00	6.5000000000E+03	6.5000000000E+03	9.3827000000E-01	0.000E+00	0.0
	2212	-1	0	0	0	0	0.0000000000E+00	0.0000000000E+00	-6.5000000000E+03	6.5000000000E+03	9.3827000000E-01	0.000E+00	0.0
	2212	1	0	0	0	0	0.0000000000E+00	0.0000000000E+00	6.1651907889E+03	6.1651907889E+03	9.3827000000E-01	0.000E+00	0.0
	2212	1	0	0	0	0	0.0000000000E+00	0.0000000000E+00	-5.7820485250E+03	5.7820485250E+03	9.3827000000E-01	0.000E+00	0.0
	51	2	1	2	0	0	-3.9593666273E+00	3.2606089473E+01	-3.9113344567E+02	1.0562060754E+03	9.8056466779E+02	0.000E+00	0.0
	1000022	2	5	5	0	0	3.9593666273E+00	-3.2606089473E+01	-3.2472325259E+02	9.1075465917E+02	8.5026467924E+02	0.000E+00	0.0
	14	1	6	6	0	0	1.3311380304E+01	4.7471912440E+01	1.2359736579E+02	3.5118667991E+02	3.2500000000E+02	0.000E+00	0.0
	-14	1	6	6	0	0	-9.3520136772E+00	-8.0078001913E+01	-4.4832061838E+02	5.5956797926E+02	3.2500000000E+02	0.000E+00	0.0
	25	2	5	5	0	0	-3.9593666273E+00	3.2606089473E+01	-5.8419011274E+01	1.4200602688E+02	1.2519623451E+02	0.000E+00	0.0
	-5	1	9	9	0	501	-5.8663327816E+01	3.9638071272E+01	-1.7073633344E+01	7.2948914181E+01	4.1800000000E+00	0.000E+00	0.0
	5	1	9	9	501	0	5.4703961189E+01	-7.0319817997E+00	-4.1345377930E+01	6.9057112696E+01	4.1800000000E+00	0.000E+00	0.0
</event>
<event>
    11  -1  1.0000000E+00  1.0000000E+00  -1.0000000E+00  -1.0000000E+00
	2212	-1	0	0	0	0	0.0000000000E+00	0.0000000000E+00	6.5000000000E+03	6.5000000000E+03	9.3827000000E-01	0.000E+00	0.0
	2212	-1	0	0	0	0	0.0000000000E+00	0.0000000000E+00	-6.5000000000E+03	6.5000000000E+03	9.3827000000E-01	0.000E+00	0.0
	2212	1	0	0	0	0	0.0000000000E+00	0.0000000000E+00	5.2680620715E+03	5.2680620715E+03	9.3827000000E-01	0.000E+00	0.0
	2212	1	0	0	0	0	0.0000000000E+00	0.0000000000E+00	-6.2749561104E+03	6.2749561104E+03	9.3827000000E-01	0.000E+00	0.0
	51	2	1	2	0	0	4.7303269620E+01	-1.2149368119E+02	9.4034581228E+02	1.4178183851E+03	1.0530718933E+03	0.000E+00	0.0
	1000022	2	5	5	0	0	-4.7303269620E+01	1.2149368119E+02	9.0193050034E+02	1.2479666801E+03	8.5261004768E+02	0.000E+00	0.0
	14	1	6	6	0	0	-9.0294418207E+01	2.1708656964E+02	7.9443764875E+02	8.8996395344E+02	3.2500000000E+02	0.000E+00	0.0
	-14	1	6	6	0	0	4.2991148586E+01	-9.5592888450E+01	1.0749285159E+02	3.5800272670E+02	3.2500000000E+02	0.000E+00	0.0
	25	2	5	5	0	0	4.7303269620E+01	-1.2149368119E+02	1.0496353865E+02	2.0901513796E+02	1.2518653907E+02	0.000E+00	0.0
	-5	1	9	9	0	501	2.9899212413E+01	-1.2249436730E+02	2.6999477783E+01	1.2901657693E+02	4.1800000000E+00	0.000E+00	0.0
	5	1	9	9	501	0	1.7404057208E+01	1.0006861048E+00	7.7964060867E+01	7.9998561030E+01	4.1800000000E+00	0.000E+00	0.0
</event>
<event>
    11  -1  1.0000000E+00  1.0000000E+00  -1.0000000E+00  -1.0000000E+00
	2212	-1	0	0	0	0	0.0000000000E+00	0.0000000000E+00	6.5000000000E+03	6.5000000000E+03	9.3827000000E-01	0.000E+00	0.0
	2212	-1	0	0	0	0	0.0000000000E+00	0.0000000000E+00	-6.5000000000E+03	6.5000000000E+03	9.3827000000E-01	0.000E+00	0.0
	2212	1	0	0	0	0	0.0000000000E+00	0.0000000000E+00	5.2713728139E+03	5.2713728139E+03	9.3827000000E-01	0.000E+00	0.0
	2212	1	0	0	0	0	0.0000000000E+00	0.0000000000E+00	-6.2743475651E+03	6.2743475651E+03	9.3827000000E-01	0.000E+00	0.0
	51	2	1	2	0	0	-1.0108875652E+02	-6.8678975712E+01	8.9466454254E+02	1.3872026696E+03	1.0530768559E+03	0.000E+00	0.0
	1000022	2	5	5	0	0	1.0108875652E+02	6.8678975712E+01	9.3578342066E+02	1.2668852494E+03	8.4520523325E+02	0.000E+00	0.0
	14	1	6	6	0	0	3.5265327162E+00	-1.5285530111E+02	1.6327724177E+02	3.9453977897E+02	3.2500000000E+02	0.000E+00	0.0
	-14	1	6	6	0	0	9.7562223803E+01	2.2153427682E+02	7.7250617889E+02	8.7234547041E+02	3.2500000000E+02	0.000E+00	0.0
	25	2	5	5	0	0	-1.0108875652E+02	-6.8678975712E+01	6.7191330508E+01	1.8739437158E+02	1.2516484014E+02	0.000E+00	0.0
	-5	1	9	9	0	501	-2.8145219638E+01	-7.0140044864E+01	8.3309782858E+01	1.1256007997E+02	4.1800000000E+00	0.000E+00	0.0
	5	1	9	9	501	0	-7.2943536881E+01	1.4610691528E+00	-1.6118452351E+01	7.4834291618E+01	4.1800000000E+00	0.000E+00	0.0
</event>
<event>
    11  -1  1.0000000E+00  1.0000000E+00  -1.0000000E+00  -1.0000000E+00
	2212	-1	0	0	0	0	0.0000000000E+00	0.0000000000E+00	6.5000000000E+03	6.5000000000E+03	9.3827000000E-01	0.000E+00	0.0
	2212	-1	0	0	0	0	0.0000000000E+00	0.0000000000E+00	-6.5000000000E+03	6.5000000000E+03	9.3827000000E-01	0.000E+00	0.0
	2212	1	0	0	0	0	0.0000000000E+00	0.0000000000E+00	6.2072404967E+03	6.2072404967E+03	9.3827000000E-01	0.000E+00	0.0
	2212	1	0	0	0	0	0.0000000000E+00	0.0000000000E+00	-5.5671277970E+03	5.5671277970E+03	9.3827000000E-01	0.000E+00	0.0
	51	2	1	2	0	0	4.0483155156E+01	9.8040311501E+01	-5.4917070071E+02	1.1854400272E+03	1.0451931932E+03	0.000E+00	0.0
	1000022	2	5	5	0	0	-4.0483155156E+01	-9.8040311501E+01	-6.2396113265E+02	1.0607700093E+03	8.5126654408E+02	0.000E+00	0.0
	14	1	6	6	0	0	-2.5361727973E+02	6.4503410067E+01	-4.2246487122E+02	5.9378782566E+02	3.2500000000E+02	0.000E+00	0.0
	-14	1	6	6	0	0	2.1313412457E+02	-1.6254372157E+02	-2.0149626143E+02	4.6698218365E+02	3.2500000000E+02	0.000E+00	0.0
	25	2	5	5	0	0	4.0483155156E+01	9.8040311501E+01	-1.6151567054E+01	1.6486169694E+02	1.2517075325E+02	0.000E+00	0.0
	-5	1	9	9	0	501	1.3173283618E+01	6.9744777392E+01	-6.8851270934E+01	9.8973932345E+01	4.1800000000E+00	0.000E+00	0.0
	5	1	9	9	501	0	2.7309871539E+01	2.8295534109E+01	5.2699703880E+01	6.5887764593E+01	4.1800000000E+00	0.000E+00	0.0
</event>
<event>
    11  -1  1.0000000E+00  1.0000000E+00  -1.0000000E+00  -1.0000000E+00
	2212	-1	0	0	0	0	0.0000000000E+00	0.0000000000E+00	6.5000000000E+03	6.5000000000E+03	9.3827000000E-01	0.000E+00	0.0
	2212	-1	0	0	0	0	0.0000000000E+00	0.0000000000E+00	-6.5000000000E+03	6.5000000000E+03	9.3827000000E-01	0.000E+00	0.0
	2212	1	0	0	0	0	0.0000000000E+00	0.0000000000E+00	6.2139633882E+03	6.2139633882E+03	9.3827000000E-01	0.000E+00	0.0
	2212	1	0	0	0	0	0.0000000000E+00	0.0000000000E+00	-5.5361433497E+03	5.5361433497E+03	9.3827000000E-01	0.000E+00	0.0
	51	2	1	2	0	0	5.4126811180E+01	-1.5994797011E+02	-6.7854562136E+02	1.2616379779E+03	1.0501395918E+03	0.000E+00	0.0
	1000022	2	5	5	0	0	-5.4126811180E+01	1.5994797011E+02	-5.5007427735E+02	1.0039246285E+03	8.2266024843E+02	0.000E+00	0.0
	14	1	6	6	0	0	1.4592404210E+02	-9.0371112429E+01	-3.4305186080E+02	5.0276271065E+02	3.2500000000E+02	0.000E+00	0.0
	-14	1	6	6	0	0	-2.0005085328E+02	2.5031908254E+02	-2.0702241656E+02	5.0116191789E+02	3.2500000000E+02	0.000E+00	0.0
	25	2	5	5	0	0	5.4126811180E+01	-1.5994797011E+02	-1.2774576116E+02	2.4596863363E+02	1.2517397653E+02	0.000E+00	0.0
	-5	1	9	9	0	501	1.3613619711E+01	-1.0339469324E+02	-1.4059579733E+02	1.7510123889E+02	4.1800000000E+00	0.000E+00	0.0
	5	1	9	9	501	0	4.0513191469E+01	-5.6553276870E+01	1.2850036167E+01	7.0867394740E+01	4.1800000000E+00	0.000E+00	0.0
</event>
<event>
    11  -1  1.0000000E+00  1.0000000E+00  -1.0000000E+00  -1.0000000E+00
	2212	-1	0	0	0	0	0.0000000000E+00	0.0000000000E+00	6.5000000000E+03	6.5000000000E+03	9.3827000000E-01	0.000E+00	0.0
	2212	-1	0	0	0	0	0.0000000000E+00	0.0000000000E+00	-6.5000000000E+03	6.5000000000E+03	9.3827000000E-01	0.000E+00	0.0
	2212	1	0	0	0	0	0.0000000000E+00	0.0000000000E+00	5.7269899201E+03	5.7269899201E+03	9.3827000000E-01	0.000E+00	0.0
	2212	1	0	0	0	0	0.0000000000E+00	0.0000000000E+00	-6.1496763093E+03	6.1496763093E+03	9.3827000000E-01	0.000E+00	0.0
	51	2	1	2	0	0	2.2855421601E+01	1.2224882604E+02	4.6017137338E+02	1.1447444323E+03	1.0407761415E+03	0.000E+00	0.0
	1000022	2	5	5	0	0	-2.2855421601E+01	-1.2224882604E+02	3.1559378236E+02	9.1693349214E+02	8.5188053610E+02	0.000E+00	0.0
	14	1	6	6	0	0	4.5044592940E+01	1.6915812878E+02	-8.1642112813E+00	3.6923588968E+02	3.2500000000E+02	0.000E+00	0.0
	-14	1	6	6	0	0	-6.7900014541E+01	-2.9140695482E+02	3.2375799364E+02	5.4769760246E+02	3.2500000000E+02	0.000E+00	0.0
	25	2	5	5	0	0	2.2855421601E+01	1.2224882604E+02	1.0709260682E+02	2.0640027853E+02	1.2516030831E+02	0.000E+00	0.0
	-5	1	9	9	0	501	4.3609088977E+01	5.3223301248E+00	-3.2378827271E+00	4.4249701964E+01	4.1800000000E+00	0.000E+00	0.0
	5	1	9	9	501	0	-2.0753667376E+01	1.1692649592E+02	1.1033048955E+02	1.6215057657E+02	4.1800000000E+00	0.000E+00	0.0
</event>
<event>
    11  -1  1.0000000E+00  1.0000000E+00  -1.0000000E+00  -1.0000000E+00
	2212	-1	0	0	0	0	0.0000000000E+00	0.0000000000E+00	6.5000000000E+03	6.5000000000E+03	9.3827000000E-01	0.000E+00	0.0
	2212	-1	0	0	0	0	0.0000000000E+00	0.0000000000E+00	-6.5000000000E+03	6.5000000000E+03	9.3827000000E-01	0.000E+00	0.0
	2212	1	0	0	0	0	0.0000000000E+00	0.0000000000E+00	5.1978015460E+03	5.1978015460E+03	9.3827000000E-01	0.000E+00	0.0
	2212	1	0	0	0	0	0.0000000000E+00	0.0000000000E+00	-6.2888063446E+03	6.2888063446E+03	9.3827000000E-01	0.000E+00	0.0
	51	2	1	2	0	0	6.3426096767E+01	1.0526511931E+01	1.2915540469E+03	1.6650254471E+03	1.0488394567E+03	0.000E+00	0.0
	1000022	2	5	5	0	0	-6.3426096767E+01	-1.0526511931E+01	7.0060149698E+02	1.0984018857E+03	8.4351085811E+02	0.000E+00	0.0
	14	1	6	6	0	0	-1.7996580687E+02	-1.0641809402E+02	1.0023528560E+02	3.9923002750E+02	3.2500000000E+02	0.000E+00	0.0
	-14	1	6	6	0	0	1.1653971010E+02	9.5891582092E+01	6.0036621138E+02	6.9917185821E+02	3.2500000000E+02	0.000E+00	0.0
	25	2	5	5	0	0	6.3426096767E+01	1.0526511931E+01	3.9040330168E+02	4.1499022366E+02	1.2517376151E+02	0.000E+00	0.0
	-5	1	9	9	0	501	6.3729436170E+01	-4.9285110309E+01	2.3125752053E+02	2.4492442984E+02	4.1800000000E+00	0.000E+00	0.0
	5	1	9	9	501	0	-3.0333940359E-01	5.9811622240E+01	1.5914578115E+02	1.7006579382E+02	4.1800000000E+00	0.000E+00	0.0
</event>
<event>
    11  -1  1.0000000E+00  1.0000000E+00  -1.0000000E+00  -1.0000000E+00
	2212	-1	0	0	0	0	0.0000000000E+00	0.0000000000E+00	6.5000000000E+03	6.5000000000E+03	9.3827000000E-01	0.000E+00	0.0
	2212	-1	0	0	0	0	0.0000000000E+00	0.0000000000E+00	-6.5000000000E+03	6.5000000000E+03	9.3827000000E-01	0.000E+00	0.0
	2212	1	0	0	0	0	0.0000000000E+00	0.0000000000E+00	5.8579960689E+03	5.8579960689E+03	9.3827000000E-01	0.000E+00	0.0
	2212	1	0	0	0	0	0.0000000000E+00	0.0000000000E+00	-6.0800093955E+03	6.0800093955E+03	9.3827000000E-01	0.000E+00	0.0
	51	2	1	2	0	0	4.7139433333E+01	5.0185304976E+01	3.1850334989E+02	1.0884519058E+03	1.0385289964E+03	0.000E+00	0.0
	1000022	2	5	5	0	0	-4.7139433333E+01	-5.0185304976E+01	9.0452853431E+01	8.6777864968E+02	8.6030074692E+02	0.000E+00	0.0
	14	1	6	6	0	0	1.2836511669E+02	-2.0158717804E+02	2.0496350501E+02	4.5249312914E+02	3.2500000000E+02	0.000E+00	0.0
	-14	1	6	6	0	0	-1.7550455002E+02	1.5140187307E+02	-1.1451065158E+02	4.1528552054E+02	3.2500000000E+02	0.000E+00	0.0
	25	2	5	5	0	0	4.7139433333E+01	5.0185304976E+01	1.3156047316E+02	1.9421588587E+02	1.2518370986E+02	0.000E+00	0.0
	-5	1	9	9	0	501	6.7933124834E+01	7.7736321898E+01	7.4436665409E+01	1.2734258812E+02	4.1800000000E+00	0.000E+00	0.0
	5	1	9	9	501	0	-2.0793691502E+01	-2.7551016922E+01	5.7123807755E+01	6.6873297752E+01	4.1800000000E+00	0.000E+00	0.0
</event>
<event>
    11  -1  1.0000000E+00  1.0000000E+00  -1.0000000E+00  -1.0000000E+00
	2212	-1	0	0	0	0	0.0000000000E+00	0.0000000000E+00	6.5000000000E+03	6.5000000000E+03	9.3827000000E-01	0.000E+00	0.0
	2212	-1	0	0	0	0	0.0000000000E+00	0.0000000000E+00	-6.5000000000E+03	6.5000000000E+03	9.3827000000E-01	0.000E+00	0.0
	2212	1	0	0	0	0	0.0000000000E+00	0.0000000000E+00	5.7943004981E+03	5.7943004981E+03	9.3827000000E-01	0.000E+00	0.0
	2212	1	0	0	0	0	0.0000000000E+00	0.0000000000E+00	-6.1097189841E+03	6.1097189841E+03	9.3827000000E-01	0.000E+00	0.0
	51	2	1	2	0	0	-1.5965299000E+01	7.6257250266E+01	4.3386942378E+02	1.1384187322E+03	1.0496115824E+03	0.000E+00	0.0
	1000022	2	5	5	0	0	1.5965299000E+01	-7.6257250266E+01	1.4414591378E+02	8.7000365584E+02	8.5443446661E+02	0.000E+00	0.0
	14	1	6	6	0	0	-5.1747212530E+01	-2.8640533803E+02	-3.6038849811E+01	4.3775517170E+02	3.2500000000E+02	0.000E+00	0.0
	-14	1	6	6	0	0	6.7712511531E+01	2.1014808776E+02	1.8018476360E+02	4.3224848414E+02	3.2500000000E+02	0.000E+00	0.0
	25	2	5	5	0	0	-1.5965299000E+01	7.6257250266E+01	1.7127257223E+02	2.2597686189E+02	1.2514467277E+02	0.000E+00	0.0
	-5	1	9	9	0	501	-4.1412772200E+01	4.5718170231E+01	1.7522307205E+02	1.8581110346E+02	4.1800000000E+00	0.000E+00	0.0
	5	1	9	9	501	0	2.5447473199E+01	3.0539080035E+01	-3.9504998182E+00	4.0165758432E+01	4.1800000000E+00	0.000E+00	0.0
</event>
<event>
    11  -1  1.0000000E+00  1.0000000E+00  -1.0000000E+00  -1.0000000E+00
	2212	-1	0	0	0	0	0.0000000000E+00	0.0000000000E+00	6.5000000000E+03	6.5000000000E+03	9.3827000000E-01	0.000E+00	0.0
	2212	-1	0	0	0	0	0.0000000000E+00	0.0000000000E+00	-6.5000000000E+03	6.5000000000E+03	9.3827000000E-01	0.000E+00	0.0
	2212	1	0	0	0	0	0.0000000000E+00	0.0000000000E+00	5.9847079661E+03	5.9847079661E+03	9.3827000000E-01	0.000E+00	0.0
	2212	1	0	0	0	0	0.0000000000E+00	0.0000000000E+00	-5.8057120676E+03	5.8057120676E+03	9.3827000000E-01	0.000E+00	0.0
	51	2	1	2	0	0	2.5931890603E+02	-6.8916317638E+01	-1.9578993888E+02	1.2415206874E+03	1.1962625812E+03	0.000E+00	0.0
	1000022	2	5	5	0	0	-2.5931890603E+02	6.8916317638E+01	-1.2231582557E+02	9.0810599760E+02	8.5889439853E+02	0.000E+00	0.0
	14	1	6	6	0	0	-2.2593782724E+02	2.0649323210E+02	1.3913802817E+02	4.6762351049E+02	3.2500000000E+02	0.000E+00	0.0
	-14	1	6	6	0	0	-3.3381078799E+01	-1.3757691447E+02	-2.6145385374E+02	4.4048248711E+02	3.2500000000E+02	0.000E+00	0.0
	25	2	5	5	0	0	2.5931890603E+02	-6.8916317638E+01	-5.6680072892E+01	3.0147396866E+02	1.2521249640E+02	0.000E+00	0.0
	-5	1	9	9	0	501	1.7558754790E+02	-9.1208192247E+01	-7.7030552977E+01	2.1237019518E+02	4.1800000000E+00	0.000E+00	0.0
	5	1	9	9	501	0	8.3731358135E+01	2.2291874610E+01	2.0350480084E+01	8.9103773480E+01	4.1800000000E+00	0.000E+00	0.0
</event>
<event>
    11  -1  1.0000000E+00  1.0000000E+00  -1.0000000E+00  -1.0000000E+00
	2212	-1	0	0	0	0	0.0000000000E+00	0.0000000000E+00	6.5000000000E+03	6.5000000000E+03	9.3827000000E-01	0.000E+00	0.0
	2212	-1	0	0	0	0	0.0000000000E+00	0.0000000000E+00	-6.5000000000E+03	6.5000000000E+03	9.3827000000E-01	0.000E+00	0.0
	2212	1	0	0	0	0	0.0000000000E+00	0.0000000000E+00	6.0722294529E+03	6.0722294529E+03	9.3827000000E-01	0.000E+00	0.0
	2212	1	0	0	0	0	0.0000000000E+00	0.0000000000E+00	-5.8557711474E+03	5.8557711474E+03	9.3827000000E-01	0.000E+00	0.0
	51	2	1	2	0	0	8.8776920877E+01	7.1696294781E+01	-1.8691498225E+02	1.0725145340E+03	1.0499183372E+03	0.000E+00	0.0
	1000022	2	5	5	0	0	-8.8776920877E+01	-7.1696294781E+01	-2.1189092505E+02	9.0255263761E+02	8.6987458819E+02	0.000E+00	0.0
	14	1	6	6	0	0	1.1453572486E+02	1.0756224262E+02	-3.0107340563E+02	4.7006197877E+02	3.2500000000E+02	0.000E+00	0.0
	-14	1	6	6	0	0	-2.0331264573E+02	-1.7925853740E+02	8.9182480579E+01	4.3249065884E+02	3.2500000000E+02	0.000E+00	0.0
	25	2	5	5	0	0	8.8776920877E+01	7.1696294781E+01	-4.5673804325E+00	1.6944676201E+02	1.2517844793E+02	0.000E+00	0.0
	-5	1	9	9	0	501	8.4883359549E+00	5.0064594510E+01	4.8802696664E+01	7.0552753826E+01	4.1800000000E+00	0.000E+00	0.0
	5	1	9	9	501	0	8.0288584922E+01	2.1631700271E+01	-5.3370077097E+01	9.8894008184E+01	4.1800000000E+00	0.000E+00	0.0
</event>
<event>
    11  -1  1.0000000E+00  1.0000000E+00  -1.0000000E+00  -1.0000000E+00
	2212	-1	0	0	0	0	0.0000000000E+00	0.0000000000E+00	6.5000000000E+03	6.5000000000E+03	9.3827000000E-01	0.000E+00	0.0
	2212	-1	0	0	0	0	0.0000000000E+00	0.0000000000E+00	-6.5000000000E+03	6.5000000000E+03	9.3827000000E-01	0.000E+00	0.0
	2212	1	0	0	0	0	0.0000000000E+00	0.0000000000E+00	5.2101282170E+03	5.2101282170E+03	9.3827000000E-01	0.000E+00	0.0
	2212	1	0	0	0	0	0.0000000000E+00	0.0000000000E+00	-6.2861130063E+03	6.2861130063E+03	9.3827000000E-01	0.000E+00	0.0
	51	2	1	2	0	0	-5.7247927320E+01	1.2818770850E+02	1.0908145989E+03	1.5208987786E+03	1.0504985444E+03	0.000E+00	0.0
	1000022	2	5	5	0	0	5.7247927320E+01	-1.2818770850E+02	8.7803011021E+02	1.2306898505E+03	8.5085323053E+02	0.000E+00	0.0
	14	1	6	6	0	0	-1.3877601675E+01	1.8784782862E+02	2.4362006331E+02	4.4772215691E+02	3.2500000000E+02	0.000E+00	0.0
	-14	1	6	6	0	0	7.1125528994E+01	-3.1603553712E+02	6.3441004690E+02	7.8296769359E+02	3.2500000000E+02	0.000E+00	0.0
	25	2	5	5	0	0	-5.7247927320E+01	1.2818770850E+02	1.9795467908E+02	2.7306892619E+02	1.2518454252E+02	0.000E+00	0.0
	-5	1	9	9	0	501	-5.4149351279E+01	9.6575488495E+01	2.1112266943E+02	2.3843076809E+02	4.1800000000E+00	0.000E+00	0.0
	5	1	9	9	501	0	-3.0985760406E+00	3.1612220003E+01	-1.3167990348E+01	3.4638158103E+01	4.1800000000E+00	0.000E+00	0.0
</event>
<event>
    11  -1  1.0000000E+00  1.0000000E+00  -1.0000000E+00  -1.0000000E+00
	2212	-1	0	0	0	0	0.0000000000E+00	0.0000000000E+00	6.5000000000E+03	6.5000000000E+03	9.3827000000E-01	0.000E+00	0.0
	2212	-1	0	0	0	0	0.0000000000E+00	0.0000000000E+00	-6.5000000000E+03	6.5000000000E+03	9.3827000000E-01	0.000E+00	0.0
	2212	1	0	0	0	0	0.0000000000E+00	0.0000000000E+00	6.1900505415E+03	6.1900505415E+03	9.3827000000E-01	0.000E+00	0.0
	2212	1	0	0	0	0	0.0000000000E+00	0.0000000000E+00	-5.6981630829E+03	5.6981630829E+03	9.3827000000E-01	0.000E+00	0.0
	51	2	1	2	0	0	5.1730437739E+01	1.1570658701E+01	-4.5206063969E+02	1.0960312100E+03	9.9705349560E+02	0.000E+00	0.0
	1000022	2	5	5	0	0	-5.1730437739E+01	-1.1570658701E+01	-4.6328901334E+02	9.7288365123E+02	8.5384774440E+02	0.000E+00	0.0
	14	1	6	6	0	0	1.9287658970E+02	-6.3752515289E+01	-4.0681049563E+02	5.5891461013E+02	3.2500000000E+02	0.000E+00	0.0
	-14	1	6	6	0	0	-2.4460702744E+02	5.2181856588E+01	-5.6478517714E+01	4.1396904111E+02	3.2500000000E+02	0.000E+00	0.0
	25	2	5	5	0	0	5.1730437739E+01	1.1570658701E+01	-2.8598445261E+01	1.3890272439E+02	1.2516460139E+02	0.000E+00	0.0
	-5	1	9	9	0	501	5.3032692255E+01	6.3797851996E+01	-1.2015135970E+01	8.3931330619E+01	4.1800000000E+00	0.000E+00	0.0
	5	1	9	9	501	0	-1.3022545160E+00	-5.2227193295E+01	-1.6583309291E+01	5.4971393773E+01	4.1800000000E+00	0.000E+00	0.0
</event>
<event>
    11  -1  1.0000000E+00  1.0000000E+00  -1.0000000E+00  -1.0000000E+00
	2212	-1	0	0	0	0	0.0000000000E+00	0.0000000000E+00	6.5000000000E+03	6.5000000000E+03	9.3827000000E-01	0.000E+00	0.0
	2212	-1	0	0	0	0	0.0000000000E+00	0.0000000000E+00	-6.5000000000E+03	6.5000000000E+03	9.3827000000E-01	0.000E+00	0.0
	2212	1	0	0	0	0	0.0000000000E+00	0.0000000000E+00	6.3193029673E+03	6.3193029673E+03	9.3827000000E-01	0.000E+00	0.0
	2212	1	0	0	0	0	0.0000000000E+00	0.0000000000E+00	-4.9730383332E+03	4.9730383332E+03	9.3827000000E-01	0.000E+00	0.0
	51	2	1	2	0	0	-1.1102528820E+02	-6.8173579432E+01	-1.2700027564E+03	1.6533454031E+03	1.0505568852E+03	0.000E+00	0.0
	1000022	2	5	5	0	0	1.1102528820E+02	6.8173579432E+01	-1.1928926492E+03	1.4706947440E+03	8.5027989857E+02	0.000E+00	0.0
	14	1	6	6	0	0	4.0124412302E+01	1.8197699382E+02	-2.1595076670E+02	4.3241800192E+02	3.2500000000E+02	0.000E+00	0.0
	-14	1	6	6	0	0	7.0900875903E+01	-1.1380341439E+02	-9.7694188249E+02	1.0382767421E+03	3.2500000000E+02	0.000E+00	0.0
	25	2	5	5	0	0	-1.1102528820E+02	-6.8173579432E+01	-1.5337198486E+02	2.3696395554E+02	1.2511873933E+02	0.000E+00	0.0
	-5	1	9	9	0	501	-9.3273508808E+01	-9.1821696056E+01	-1.5961005797E+02	2.0645584108E+02	4.1800000000E+00	0.000E+00	0.0
	5	1	9	9	501	0	-1.7751779396E+01	2.3648116624E+01	6.2380731117E+00	3.0508114457E+01	4.1800000000E+00	0.000E+00	0.0
</event>
<event>
    11  -1  1.0000000E+00  1.0000000E+00  -1.0000000E+00  -1.0000000E+00
	2212	-1	0	0	0	0	0.0000000000E+00	0.0000000000E+00	6.5000000000E+03	6.5000000000E+03	9.3827000000E-01	0.000E+00	0.0
	2212	-1	0	0	0	0	0.0000000000E+00	0.0000000000E+00	-6.5000000000E+03	6.5000000000E+03	9.3827000000E-01	0.000E+00	0.0
	2212	1	0	0	0	0	0.0000000000E+00	0.0000000000E+00	5.3525984132E+03	5.3525984132E+03	9.3827000000E-01	0.000E+00	0.0
	2212	1	0	0	0	0	0.0000000000E+00	0.0000000000E+00	-6.2591635746E+03	6.2591635746E+03	9.3827000000E-01	0.000E+00	0.0
	51	2	1	2	0	0	4.9723165484E+01	-1.2614466490E+02	8.4285182848E+02	1.3542999893E+03	1.0513535973E+03	0.000E+00	0.0
	1000022	2	5	5	0	0	-4.9723165484E+01	1.2614466490E+02	8.1300144224E+02	1.1813351210E+03	8.4628390819E+02	0.000E+00	0.0
	14	1	6	6	0	0	3.7447281960E+01	-1.3849156706E+02	1.3611256535E+02	3.8043901419E+02	3.2500000000E+02	0.000E+00	0.0
	-14	1	6	6	0	0	-8.7170447443E+01	2.6463623197E+02	6.7688887689E+02	8.0089610677E+02	3.2500000000E+02	0.000E+00	0.0
	25	2	5	5	0	0	4.9723165484E+01	-1.2614466490E+02	9.3563719179E+01	2.0690289125E+02	1.2517894070E+02	0.000E+00	0.0
	-5	1	9	9	0	501	3.0116134783E+01	-8.6709844839E+01	-1.1788874459E+01	9.2639239674E+01	4.1800000000E+00	0.000E+00	0.0
	5	1	9	9	501	0	1.9607030700E+01	-3.9434820061E+01	1.0535259364E+02	1.1426365158E+02	4.1800000000E+00	0.000E+00	0.0
</event>
<event>
    11  -1  1.0000000E+00  1.0000000E+00  -1.0000000E+00  -1.0000000E+00
	2212	-1	0	0	0	0	0.0000000000E+00	0.0000000000E+00	6.5000000000E+03	6.5000000000E+03	9.3827000000E-01	0.000E+00	0.0
	2212	-1	0	0	0	0	0.0000000000E+00	0.0000000000E+00	-6.5000000000E+03	6.5000000000E+03	9.3827000000E-01	0.000E+00	0.0
	2212	1	0	0	0	0	0.0000000000E+00	0.0000000000E+00	6.0817656566E+03	6.0817656566E+03	9.3827000000E-01	0.000E+00	0.0
	2212	1	0	0	0	0	0.0000000000E+00	0.0000000000E+00	-5.8471738077E+03	5.8471738077E+03	9.3827000000E-01	0.000E+00	0.0
	51	2	1	2	0	0	-8.4326590234E+01	-9.5502083778E+01	-2.1649031353E+02	1.0748195259E+03	1.0450537477E+03	0.000E+00	0.0
	1000022	2	5	5	0	0	8.4326590234E+01	9.5502083778E+01	-2.1414054509E+02	8.9128338971E+02	8.5574428768E+02	0.000E+00	0.0
	14	1	6	6	0	0	4.0334752568E+01	1.1609672405E+01	1.7825500415E+02	3.7304359432E+02	3.2500000000E+02	0.000E+00	0.0
	-14	1	6	6	0	0	4.3991837666E+01	8.3892411373E+01	-3.9239554924E+02	5.1823979539E+02	3.2500000000E+02	0.000E+00	0.0
	25	2	5	5	0	0	-8.4326590234E+01	-9.5502083778E+01	-2.0451303823E+01	1.7977714603E+02	1.2517964922E+02	0.000E+00	0.0
	-5	1	9	9	0	501	-7.3887455067E+01	-8.0195265176E+01	4.0144657101E+01	1.1627425539E+02	4.1800000000E+00	0.000E+00	0.0
	5	1	9	9	501	0	-1.0439135167E+01	-1.5306818602E+01	-6.0595960924E+01	6.3502890635E+01	4.1800000000E+00	0.000E+00	0.0
</event>
<event>
    11  -1  1.0000000E+00  1.0000000E+00  -1.0000000E+00  -1.0000000E+00
	2212	-1	0	0	0	0	0.0000000000E+00	0.0000000000E+00	6.5000000000E+03	6.5000000000E+03	9.3827000000E-01	0.000E+00	0.0
	2212	-1	0	0	0	0	0.0000000000E+00	0.0000000000E+00	-6.5000000000E+03	6.5000000000E+03	9.3827000000E-01	0.000E+00	0.0
	2212	1	0	0	0	0	0.0000000000E+00	0.0000000000E+00	6.2096837214E+03	6.2096837214E+03	9.3827000000E-01	0.000E+00	0.0
	2212	1	0	0	0	0	0.0000000000E+00	0.0000000000E+00	-5.5562216898E+03	5.5562216898E+03	9.3827000000E-01	0.000E+00	0.0
	51	2	1	2	0	0	1.2173687926E+02	-5.6233302521E+01	-6.4419254905E+02	1.2365043144E+03	1.0468891189E+03	0.000E+00	0.0
	1000022	2	5	5	0	0	-1.2173687926E+02	5.6233302521E+01	-5.5341440605E+02	1.0252342277E+03	8.5255830578E+02	0.000E+00	0.0
	14	1	6	6	0	0	7.1295635426E+01	-1.3082790292E+02	-4.7779670162E+02	5.9675262538E+02	3.2500000000E+02	0.000E+00	0.0
	-14	1	6	6	0	0	-1.9303251469E+02	1.8706120544E+02	-7.5617704423E+01	4.2848160232E+02	3.2500000000E+02	0.000E+00	0.0
	25	2	5	5	0	0	1.2173687926E+02	-5.6233302521E+01	-1.0004762558E+02	2.0886036104E+02	1.2502428142E+02	0.000E+00	0.0
	-5	1	9	9	0	501	7.1193801750E+01	-7.9710536290E+01	-1.6320298122E+01	1.0819497000E+02	4.1800000000E+00	0.000E+00	0.0
	5	1	9	9	501	0	5.0543077513E+01	2.3477233769E+01	-8.3727327454E+01	1.0066539104E+02	4.1800000000E+00	0.000E+00	0.0
</event>
<event>
    11  -1  1.0000000E+00  1.0000000E+00  -1.0000000E+00  -1.0000000E+00
	2212	-1	0	0	0	0	0.0000000000E+00	0.0000000000E+00	6.5000000000E+03	6.5000000000E+03	9.3827000000E-01	0.000E+00	0.0
	2212	-1	0	0	0	0	0.0000000000E+00	0.0000000000E+00	-6.5000000000E+03	6.5000000000E+03	9.3827000000E-01	0.000E+00	0.0
	2212	1	0	0	0	0	0.0000000000E+00	0.0000000000E+00	6.3276643877E+03	6.3276643877E+03	9.3827000000E-01	0.000E+00	0.0
	2212	1	0	0	0	0	0.0000000000E+00	0.0000000000E+00	-4.9171714411E+03	4.9171714411E+03	9.3827000000E-01	0.000E+00	0.0
	51	2	1	2	0	0	5.3295399053E+01	-1.4738780178E+02	-1.3792656654E+03	1.7372530774E+03	1.0445625474E+03	0.000E+00	0.0
	1000022	2	5	5	0	0	-5.3295399053E+01	1.4738780178E+02	-1.1844780580E+03	1.4529728207E+03	8.2678787141E+02	0.000E+00	0.0
	14	1	6	6	0	0	7.2825331529E+01	2.9777905501E+02	-5.0215654380E+02	6.7213249363E+02	3.2500000000E+02	0.000E+00	0.0
	-14	1	6	6	0	0	-1.2612073058E+02	-1.5039125323E+02	-6.8232151415E+02	7.8084032709E+02	3.2500000000E+02	0.000E+00	0.0
	25	2	5	5	0	0	5.3295399053E+01	-1.4738780178E+02	-2.2601488868E+02	3.0219135049E+02	1.2519312575E+02	0.000E+00	0.0
	-5	1	9	9	0	501	-3.1181047282E+00	-9.8398731340E-01	1.4249293224E+01	1.5205445259E+01	4.1800000000E+00	0.000E+00	0.0
	5	1	9	9	501	0	5.6413503781E+01	-1.4640381446E+02	-2.4026418190E+02	2.8698590523E+02	4.1800000000E+00	0.000E+00	0.0
</event>
<event>
    11  -1  1.0000000E+00  1.0000000E+00  -1.0000000E+00  -1.0000000E+00
	2212	-1	0	0	0	0	0.0000000000E+00	0.0000000000E+00	6.5000000000E+03	6.5000000000E+03	9.3827000000E-01	0.000E+00	0.0
	2212	-1	0	0	0	0	0.0000000000E+00	0.0000000000E+00	-6.5000000000E+03	6.5000000000E+03	9.3827000000E-01	0.000E+00	0.0
	2212	1	0	0	0	0	0.0000000000E+00	0.0000000000E+00	5.0834369234E+03	5.0834369234E+03	9.3827000000E-01	0.000E+00	0.0
	2212	1	0	0	0	0	0.0000000000E+00	0.0000000000E+00	-6.3047289318E+03	6.3047289318E+03	9.3827000000E-01	0.000E+00	0.0
	51	2	1	2	0	0	-1.3295202932E+02	-5.8761246963E+01	1.2720700494E+03	1.6570294136E+03	1.0518817142E+03	0.000E+00	0.0
	1000022	2	5	5	0	0	1.3295202932E+02	5.8761246963E+01	9.5780826627E+02	1.2859146025E+03	8.4560662465E+02	0.000E+00	0.0
	14	1	6	6	0	0	3.2489967081E+02	8.0284076982E+01	6.4023590784E+02	7.9216939275E+02	3.2500000000E+02	0.000E+00	0.0
	-14	1	6	6	0	0	-1.9194764149E+02	-2.1522830019E+01	3.1757235843E+02	4.9374520972E+02	3.2500000000E+02	0.000E+00	0.0
	25	2	5	5	0	0	-1.3295202932E+02	-5.8761246963E+01	2.6348374214E+02	3.2591954238E+02	1.2518282424E+02	0.000E+00	0.0
	-5	1	9	9	0	501	-1.2285921383E+02	-8.4402295576E+01	1.5985175479E+02	2.1860510019E+02	4.1800000000E+00	0.000E+00	0.0
	5	1	9	9	501	0	-1.0092815490E+01	2.5641048614E+01	1.0363198735E+02	1.0731444218E+02	4.1800000000E+00	0.000E+00	0.0
</event>
<event>
    11  -1  1.0000000E+00  1.0000000E+00  -1.0000000E+00  -1.0000000E+00
	2212	-1	0	0	0	0	0.0000000000E+00	0.0000000000E+00	6.5000000000E+03	6.5000000000E+03	9.3827000000E-01	0.000E+00	0.0
	2212	-1	0	0	0	0	0.0000000000E+00	0.0000000000E+00	-6.5000000000E+03	6.5000000000E+03	9.3827000000E-01	0.000E+00	0.0
	2212	1	0	0	0	0	0.0000000000E+00	0.0000000000E+00	6.2823609250E+03	6.2823609250E+03	9.3827000000E-01	0.000E+00	0.0
	2212	1	0	0	0	0	0.0000000000E+00	0.0000000000E+00	-5.2324519200E+03	5.2324519200E+03	9.3827000000E-01	0.000E+00	0.0
	51	2	1	2	0	0	-4.8928040014E+01	-1.1363232226E+02	-1.0796457961E+03	1.5114275602E+03	1.0504627394E+03	0.000E+00	0.0
	1000022	2	5	5	0	0	4.8928040014E+01	1.1363232226E+02	-8.5092887090E+02	1.2195373937E+03	8.6480359252E+02	0.000E+00	0.0
	14	1	6	6	0	0	-7.8011552656E+01	1.0237523759E+02	-5.9566058254E+01	3.5459781008E+02	3.2500000000E+02	0.000E+00	0.0
	-14	1	6	6	0	0	1.2693959267E+02	1.1257084669E+01	-7.9136281265E+02	8.6493958366E+02	3.2500000000E+02	0.000E+00	0.0
	25	2	5	5	0	0	-4.8928040014E+01	-1.1363232226E+02	-1.9898013404E+02	2.6564976128E+02	1.2518164467E+02	0.000E+00	0.0
	-5	1	9	9	0	501	-7.1104251637E+01	-1.2584147860E+02	-1.3972513743E+02	2.0107829014E+02	4.1800000000E+00	0.000E+00	0.0
	5	1	9	9	501	0	2.2176211624E+01	1.2209156348E+01	-5.9254996615E+01	6.4571471135E+01	4.1800000000E+00	0.000E+00	0.0
</event>
<event>
    11  -1  1.0000000E+00  1.0000000E+00  -1.0000000E+00  -1.0000000E+00
	2212	-1	0	0	0	0	0.0000000000E+00	0.0000000000E+00	6.5000000000E+03	6.5000000000E+03	9.3827000000E-01	0.000E+00	0.0
	2212	-1	0	0	0	0	0.0000000000E+00	0.0000000000E+00	-6.5000000000E+03	6.5000000000E+03	9.3827000000E-01	0.000E+00	0.0
	2212	1	0	0	0	0	0.0000000000E+00	0.0000000000E+00	5.8236599427E+03	5.8236599427E+03	9.3827000000E-01	0.000E+00	0.0
	2212	1	0	0	0	0	0.0000000000E+00	0.0000000000E+00	-6.0897936979E+03	6.0897936979E+03	9.3827000000E-01	0.000E+00	0.0
	51	2	1	2	0	0	-1.8727874666E+01	8.3174333266E+01	3.8534682441E+02	1.1249518628E+03	1.0534494841E+03	0.000E+00	0.0
	1000022	2	5	5	0	0	1.8727874666E+01	-8.3174333266E+01	1.0157280715E+02	8.6299871707E+02	8.5274911171E+02	0.000E+00	0.0
	14	1	6	6	0	0	1.8379627973E+02	6.1032226806E+01	2.3912350466E+02	4.4756123116E+02	3.2500000000E+02	0.000E+00	0.0
	-14	1	6	6	0	0	-1.6506840507E+02	-1.4420656007E+02	-1.3755069751E+02	4.1543748592E+02	3.2500000000E+02	0.000E+00	0.0
	25	2	5	5	0	0	-1.8727874666E+01	8.3174333266E+01	1.6456094806E+02	2.2354764234E+02	1.2499815904E+02	0.000E+00	0.0
	-5	1	9	9	0	501	-6.6422733883E+01	7.4637442127E+01	1.2939016168E+02	1.6352985563E+02	4.1800000000E+00	0.000E+00	0.0
	5	1	9	9	501	0	4.7694859217E+01	8.5368911385E+00	3.5170786383E+01	6.0017786704E+01	4.1800000000E+00	0.000E+00	0.0
</event>
<event>
    11  -1  1.0000000E+00  1.0000000E+00  -1.0000000E+00  -1.0000000E+00
	2212	-1	0	0	0	0	0.0000000000E+00	0.0000000000E+00	6.5000000000E+03	6.5000000000E+03	9.3827000000E-01	0.000E+00	0.0
	2212	-1	0	0	0	0	0.0000000000E+00	0.0000000000E+00	-6.5000000000E+03	6.5000000000E+03	9.3827000000E-01	0.000E+00	0.0
	2212	1	0	0	0	0	0.0000000000E+00	0.0000000000E+00	5.7702254428E+03	5.7702254428E+03	9.3827000000E-01	0.000E+00	0.0
	2212	1	0	0	0	0	0.0000000000E+00	0.0000000000E+00	-6.1262967180E+03	6.1262967180E+03	9.3827000000E-01	0.000E+00	0.0
	51	2	1	2	0	0	9.9780015318E+01	-5.2142879005E+01	2.9505068782E+02	1.0911491319E+03	1.0444503762E+03	0.000E+00	0.0
	1000022	2	5	5	0	0	-9.9780015318E+01	5.2142879005E+01	3.5877903549E+02	9.3509297321E+02	8.5615509165E+02	0.000E+00	0.0
	14	1	6	6	0	0	6.1513196329E+00	2.9846763334E+02	1.6229854409E+02	4.7019845204E+02	3.2500000000E+02	0.000E+00	0.0
	-14	1	6	6	0	0	-1.0593133495E+02	-2.4632475433E+02	1.9648049140E+02	4.6489452118E+02	3.2500000000E+02	0.000E+00	0.0
	25	2	5	5	0	0	9.9780015318E+01	-5.2142879005E+01	-2.7077602984E+00	1.6838486589E+02	1.2518466283E+02	0.000E+00	0.0
	-5	1	9	9	0	501	1.3429470071E+00	-5.4637825614E+01	-3.4570510999E+01	6.4805000773E+01	4.1800000000E+00	0.000E+00	0.0
	5	1	9	9	501	0	9.8437068311E+01	2.4949466094E+00	3.1862750700E+01	1.0357986512E+02	4.1800000000E+00	0.000E+00	0.0
</event>
<event>
    11  -1  1.0000000E+00  1.0000000E+00  -1.0000000E+00  -1.0000000E+00
	2212	-1	0	0	0	0	0.0000000000E+00	0.0000000000E+00	6.5000000000E+03	6.5000000000E+03	9.3827000000E-01	0.000E+00	0.0
	2212	-1	0	0	0	0	0.0000000000E+00	0.0000000000E+00	-6.5000000000E+03	6.5000000000E+03	9.3827000000E-01	0.000E+00	0.0
	2212	1	0	0	0	0	0.0000000000E+00	0.0000000000E+00	6.2235662160E+03	6.2235662160E+03	9.3827000000E-01	0.000E+00	0.0
	2212	1	0	0	0	0	0.0000000000E+00	0.0000000000E+00	-5.5106181312E+03	5.5106181312E+03	9.3827000000E-01	0.000E+00	0.0
	51	2	1	2	0	0	-7.3028506982E+01	5.9942263209E+01	-8.3262131248E+02	1.3402159464E+03	1.0459418221E+03	0.000E+00	0.0
	1000022	2	5	5	0	0	7.3028506982E+01	-5.9942263209E+01	-4.7437353956E+02	9.8031001765E+02	8.5267299589E+02	0.000E+00	0.0
	14	1	6	6	0	0	-7.5615140874E+01	-1.4766852682E+02	-4.9123884971E+02	6.1193484196E+02	3.2500000000E+02	0.000E+00	0.0
	-14	1	6	6	0	0	1.4864364786E+02	8.7726263611E+01	1.6865310150E+01	3.6837517569E+02	3.2500000000E+02	0.000E+00	0.0
	25	2	5	5	0	0	-7.3028506982E+01	5.9942263209E+01	-2.3857454525E+02	2.8550563512E+02	1.2517753910E+02	0.000E+00	0.0
	-5	1	9	9	0	501	-9.7693709205E+01	7.8268309629E+01	-2.0042014237E+02	2.3633809464E+02	4.1800000000E+00	0.000E+00	0.0
	5	1	9	9	501	0	2.4665202223E+01	-1.8326046419E+01	-3.8154402878E+01	4.9167540482E+01	4.1800000000E+00	0.000E+00	0.0
</event>
<event>
    11  -1  1.0000000E+00  1.0000000E+00  -1.0000000E+00  -1.0000000E+00
	2212	-1	0	0	0	0	0.0000000000E+00	0.0000000000E+00	6.5000000000E+03	6.5000000000E+03	9.3827000000E-01	0.000E+00	0.0
	2212	-1	0	0	0	0	0.0000000000E+00	0.0000000000E+00	-6.5000000000E+03	6.5000000000E+03	9.3827000000E-01	0.000E+00	0.0
	2212	1	0	0	0	0	0.0000000000E+00	0.0000000000E+00	6.1444124176E+03	6.1444124176E+03	9.3827000000E-01	0.000E+00	0.0
	2212	1	0	0	0	0	0.0000000000E+00	0.0000000000E+00	-5.7338785217E+03	5.7338785217E+03	9.3827000000E-01	0.000E+00	0.0
	51	2	1	2	0	0	9.9040014184E+01	3.5490650927E+01	-3.5509780842E+02	1.1076353648E+03	1.0438836799E+03	0.000E+00	0.0
	1000022	2	5	5	0	0	-9.9040014184E+01	-3.5490650927E+01	-4.0086544238E+02	9.5789646178E+02	8.6359945454E+02	0.000E+00	0.0
	14	1	6	6	0	0	-1.1557587121E+02	-1.9442803638E+02	-4.4198470795E+02	5.9341008198E+02	3.2500000000E+02	0.000E+00	0.0
	-14	1	6	6	0	0	1.6535857022E+01	1.5893738545E+02	4.1119265564E+01	3.6448637980E+02	3.2500000000E+02	0.000E+00	0.0
	25	2	5	5	0	0	9.9040014184E+01	3.5490650927E+01	-9.6684535668E+00	1.6381259892E+02	1.2519016678E+02	0.000E+00	0.0
	-5	1	9	9	0	501	1.0240530697E+02	5.3433217240E+01	3.0459899518E+01	1.1952921600E+02	4.1800000000E+00	0.000E+00	0.0
	5	1	9	9	501	0	-3.3652927818E+00	-1.7942566313E+01	-4.0128353085E+01	4.4283382919E+01	4.1800000000E+00	0.000E+00	0.0
</event>
<event>
    11  -1  1.0000000E+00  1.0000000E+00  -1.0000000E+00  -1.0000000E+00
	2212	-1	0	0	0	0	0.0000000000E+00	0.0000000000E+00	6.5000000000E+03	6.5000000000E+03	9.3827000000E-01	0.000E+00	0.0
	2212	-1	0	0	0	0	0.0000000000E+00	0.0000000000E+00	-6.5000000000E+03	6.5000000000E+03	9.3827000000E-01	0.000E+00	0.0
	2212	1	0	0	0	0	0.0000000000E+00	0.0000000000E+00	5.8127156625E+03	5.8127156625E+03	9.3827000000E-01	0.000E+00	0.0
	2212	1	0	0	0	0	0.0000000000E+00	0.0000000000E+00	-6.0996989485E+03	6.0996989485E+03	9.3827000000E-01	0.000E+00	0.0
	51	2	1	2	0	0	-9.9559583145E+01	-1.8811041405E+01	2.9003352361E+02	1.0931001705E+03	1.0490388801E+03	0.000E+00	0.0
	1000022	2	5	5	0	0	9.9559583145E+01	1.8811041405E+01	2.4120843504E+02	9.2015642110E+02	8.8217932660E+02	0.000E+00	0.0
	14	1	6	6	0	0	-1.8577229405E+02	1.5005665703E+02	2.3779345086E+02	4.6818700412E+02	3.2500000000E+02	0.000E+00	0.0
	-14	1	6	6	0	0	2.8533187720E+02	-1.3124561562E+02	3.4149841731E+00	4.5196941698E+02	3.2500000000E+02	0.000E+00	0.0
	25	2	5	5	0	0	-9.9559583145E+01	-1.8811041405E+01	4.5774850994E+01	1.6742896794E+02	1.2518448965E+02	0.000E+00	0.0
	-5	1	9	9	0	501	-5.1720356998E+01	4.1181934600E+01	-1.6784754573E+01	6.8338477093E+01	4.1800000000E+00	0.000E+00	0.0
	5	1	9	9	501	0	-4.7839226147E+01	-5.9992976004E+01	6.2559605567E+01	9.9090490850E+01	4.1800000000E+00	0.000E+00	0.0
</event>
<event>
    11  -1  1.0000000E+00  1.0000000E+00  -1.0000000E+00  -1.0000000E+00
	2212	-1	0	0	0	0	0.0000000000E+00	0.0000000000E+00	6.5000000000E+03	6.5000000000E+03	9.3827000000E-01	0.000E+00	0.0
	2212	-1	0	0	0	0	0.0000000000E+00	0.0000000000E+00	-6.5000000000E+03	6.5000000000E+03	9.3827000000E-01	0.000E+00	0.0
	2212	1	0	0	0	0	0.0000000000E+00	0.0000000000E+00	4.9008500078E+03	4.9008500078E+03	9.3827000000E-01	0.000E+00	0.0
	2212	1	0	0	0	0	0.0000000000E+00	0.0000000000E+00	-6.3275706298E+03	6.3275706298E+03	9.3827000000E-01	0.000E+00	0.0
	51	2	1	2	0	0	9.2397682039E+01	-6.7477498240E+01	1.5748940343E+03	1.8964027704E+03	1.0502198361E+03	0.000E+00	0.0
	1000022	2	5	5	0	0	-9.2397682039E+01	6.7477498240E+01	1.0361721391E+03	1.3457953693E+03	8.5112979616E+02	0.000E+00	0.0
	14	1	6	6	0	0	1.4201887563E+02	-1.5516631033E+02	3.5846305277E+02	5.2760468639E+02	3.2500000000E+02	0.000E+00	0.0
	-14	1	6	6	0	0	-2.3441655767E+02	2.2264380857E+02	6.7770908629E+02	8.1819068294E+02	3.2500000000E+02	0.000E+00	0.0
	25	2	5	5	0	0	9.2397682039E+01	-6.7477498240E+01	3.9054848293E+02	4.2578399308E+02	1.2519323796E+02	0.000E+00	0.0
	-5	1	9	9	0	501	2.8026532184E+01	-2.6392132674E+01	3.1806420301E+02	3.2041276631E+02	4.1800000000E+00	0.000E+00	0.0
	5	1	9	9	501	0	6.4371149855E+01	-4.1085365566E+01	7.2484279915E+01	1.0537122678E+02	4.1800000000E+00	0.000E+00	0.0
</event>
<event>
    11  -1  1.0000000E+00  1.0000000E+00  -1.0000000E+00  -1.0000000E+00
	2212	-1	0	0	0	0	0.0000000000E+00	0.0000000000E+00	6.5000000000E+03	6.5000000000E+03	9.3827000000E-01	0.000E+00	0.0
	2212	-1	0	0	0	0	0.0000000000E+00	0.0000000000E+00	-6.5000000000E+03	6.5000000000E+03	9.3827000000E-01	0.000E+00	0.0
	2212	1	0	0	0	0	0.0000000000E+00	0.0000000000E+00	5.3179964161E+03	5.3179964161E+03	9.3827000000E-01	0.000E+00	0.0
	2212	1	0	0	0	0	0.0000000000E+00	0.0000000000E+00	-6.2663624059E+03	6.2663624059E+03	9.3827000000E-01	0.000E+00	0.0
	51	2	1	2	0	0	-7.4951356763E+01	6.6746025009E+01	1.0891424556E+03	1.5168869175E+03	1.0510194547E+03	0.000E+00	0.0
	1000022	2	5	5	0	0	7.4951356763E+01	-6.6746025009E+01	6.4624573125E+02	1.0735549620E+03	8.5136007274E+02	0.000E+00	0.0
	14	1	6	6	0	0	2.6549246927E+02	-1.5454013902E+02	4.6903375875E+02	6.4806371034E+02	3.2500000000E+02	0.000E+00	0.0
	-14	1	6	6	0	0	-1.9054111251E+02	8.7794114009E+01	1.7721197250E+02	4.2549125162E+02	3.2500000000E+02	0.000E+00	0.0
	25	2	5	5	0	0	-7.4951356763E+01	6.6746025009E+01	3.0212025859E+02	3.4208621604E+02	1.2519421239E+02	0.000E+00	0.0
	-5	1	9	9	0	501	-9.9129787569E+01	1.2413476396E+01	2.0587624354E+02	2.2887400297E+02	4.1800000000E+00	0.000E+00	0.0
	5	1	9	9	501	0	2.4178430806E+01	5.4332548613E+01	9.6244015049E+01	1.1321221307E+02	4.1800000000E+00	0.000E+00	0.0
</event>
<event>
    11  -1  1.0000000E+00  1.0000000E+00  -1.0000000E+00  -1.0000000E+00
	2212	-1	0	0	0	0	0.0000000000E+00	0.0000000000E+00	6.5000000000E+03	6.5000000000E+03	9.3827000000E-01	0.000E+00	0.0
	2212	-1	0	0	0	0	0.0000000000E+00	0.0000000000E+00	-6.5000000000E+03	6.5000000000E+03	9.3827000000E-01	0.000E+00	0.0
	2212	1	0	0	0	0	0.0000000000E+00	0.0000000000E+00	5.5237486440E+03	5.5237486440E+03	9.3827000000E-01	0.000E+00	0.0
	2212	1	0	0	0	0	0.0000000000E+00	0.0000000000E+00	-6.2145257099E+03	6.2145257099E+03	9.3827000000E-01	0.000E+00	0.0
	51	2	1	2	0	0	1.1151699100E+02	8.4760534947E+01	7.2872067614E+02	1.2905165101E+03	1.0558307873E+03	0.000E+00	0.0
	1000022	2	5	5	0	0	-1.1151699100E+02	-8.4760534947E+01	5.3498035956E+02	1.0176724621E+03	8.5430256201E+02	0.000E+00	0.0
	14	1	6	6	0	0	-2.0151083093E+02	8.0960934658E+00	5.4726131858E+02	6.6767665267E+02	3.2500000000E+02	0.000E+00	0.0
	-14	1	6	6	0	0	8.9993839939E+01	-9.2856628413E+01	-1.2280959018E+01	3.4999580943E+02	3.2500000000E+02	0.000E+00	0.0
	25	2	5	5	0	0	1.1151699100E+02	8.4760534947E+01	1.5579670637E+02	2.4405318404E+02	1.2517569796E+02	0.000E+00	0.0
	-5	1	9	9	0	501	6.9502913234E+01	2.3384813728E+01	1.5275352993E+02	1.6949518509E+02	4.1800000000E+00	0.000E+00	0.0
	5	1	9	9	501	0	4.2014077762E+01	6.1375721218E+01	3.0431764377E+00	7.4557998954E+01	4.1800000000E+00	0.000E+00	0.0
</event>
<event>
    11  -1  1.0000000E+00  1.0000000E+00  -1.0000000E+00  -1.0000000E+00
	2212	-1	0	0	0	0	0.0000000000E+00	0.0000000000E+00	6.5000000000E+03	6.5000000000E+03	9.3827000000E-01	0.000E+00	0.0
	2212	-1	0	0	0	0	0.0000000000E+00	0.0000000000E+00	-6.5000000000E+03	6.5000000000E+03	9.3827000000E-01	0.000E+00	0.0
	2212	1	0	0	0	0	0.0000000000E+00	0.0000000000E+00	6.3216670411E+03	6.3216670411E+03	9.3827000000E-01	0.000E+00	0.0
	2212	1	0	0	0	0	0.0000000000E+00	0.0000000000E+00	-4.9203592005E+03	4.9203592005E+03	9.3827000000E-01	0.000E+00	0.0
	51	2	1	2	0	0	-1.2232175529E+02	4.8012530864E+00	-1.2624243421E+03	1.6539374095E+03	1.0615121626E+03	0.000E+00	0.0
	1000022	2	5	5	0	0	1.2232175529E+02	-4.8012530864E+00	-1.2932621524E+03	1.5522316149E+03	8.4965306299E+02	0.000E+00	0.0
	14	1	6	6	0	0	1.6919750563E+02	1.7440032119E+02	-9.9245451154E+02	1.0722099726E+03	3.2500000000E+02	0.000E+00	0.0
	-14	1	6	6	0	0	-4.6875750335E+01	-1.7920157427E+02	-3.0080764087E+02	4.8002164222E+02	3.2500000000E+02	0.000E+00	0.0
	25	2	5	5	0	0	-1.2232175529E+02	4.8012530864E+00	-1.0804568819E+02	2.0574214361E+02	1.2518104917E+02	0.000E+00	0.0
	-5	1	9	9	0	501	-8.9228196069E+01	6.0502718173E+01	-8.3132014563E+01	1.3620078607E+02	4.1800000000E+00	0.000E+00	0.0
	5	1	9	9	501	0	-3.3093559225E+01	-5.5701465086E+01	-2.4913673626E+01	6.9541357540E+01	4.1800000000E+00	0.000E+00	0.0
</event>
<event>
    11  -1  1.0000000E+00  1.0000000E+00  -1.0000000E+00  -1.0000000E+00
	2212	-1	0	0	0	0	0.0000000000E+00	0.0000000000E+00	6.5000000000E+03	6.5000000000E+03	9.3827000000E-01	0.000E+00	0.0
	2212	-1	0	0	0	0	0.0000000000E+00	0.0000000000E+00	-6.5000000000E+03	6.5000000000E+03	9.3827000000E-01	0.000E+00	0.0
	2212	1	0	0	0	0	0.0000000000E+00	0.0000000000E+00	6.0414898542E+03	6.0414898542E+03	9.3827000000E-01	0.000E+00	0.0
	2212	1	0	0	0	0	0.0000000000E+00	0.0000000000E+00	-5.9000254995E+03	5.9000254995E+03	9.3827000000E-01	0.000E+00	0.0
	51	2	1	2	0	0	-7.3482207538E+01	-7.8087354515E+01	-2.3679219402E+02	1.0807152242E+03	1.0489888383E+03	0.000E+00	0.0
	1000022	2	5	5	0	0	7.3482207538E+01	7.8087354515E+01	-2.1892438122E+01	8.5485159717E+02	8.4781761280E+02	0.000E+00	0.0
	14	1	6	6	0	0	2.8243686665E+02	2.0470032792E+01	1.0581135918E+02	4.4385881721E+02	3.2500000000E+02	0.000E+00	0.0
	-14	1	6	6	0	0	-2.0895465912E+02	5.7617321723E+01	-1.2770379730E+02	4.1099277995E+02	3.2500000000E+02	0.000E+00	0.0
	25	2	5	5	0	0	-7.3482207538E+01	-7.8087354515E+01	-1.1957191658E+02	2.0363304919E+02	1.2518668350E+02	0.000E+00	0.0
	-5	1	9	9	0	501	1.7155233114E+00	-6.0740091888E+01	4.1541912224E-01	6.0909332256E+01	4.1800000000E+00	0.000E+00	0.0
	5	1	9	9	501	0	-7.5197730850E+01	-1.7347262627E+01	-1.1998733570E+02	1.4272371693E+02	4.1800000000E+00	0.000E+00	0.0
</event>
<event>
    11  -1  1.0000000E+00  1.0000000E+00  -1.0000000E+00  -1.0000000E+00
	2212	-1	0	0	0	0	0.0000000000E+00	0.0000000000E+00	6.5000000000E+03	6.5000000000E+03	9.3827000000E-01	0.000E+00	0.0
	2212	-1	0	0	0	0	0.0000000000E+00	0.0000000000E+00	-6.5000000000E+03	6.5000000000E+03	9.3827000000E-01	0.000E+00	0.0
	2212	1	0	0	0	0	0.0000000000E+00	0.0000000000E+00	6.2348388469E+03	6.2348388469E+03	9.3827000000E-01	0.000E+00	0.0
	2212	1	0	0	0	0	0.0000000000E+00	0.0000000000E+00	-5.4615449799E+03	5.4615449799E+03	9.3827000000E-01	0.000E+00	0.0
	51	2	1	2	0	0	4.0485925737E+01	-6.3727496845E+01	-9.2313455674E+02	1.3997533484E+03	1.0494911731E+03	0.000E+00	0.0
	1000022	2	5	5	0	0	-4.0485925737E+01	6.3727496845E+01	-4.9291258400E+02	9.8741410955E+02	8.5224615237E+02	0.000E+00	0.0
	14	1	6	6	0	0	-1.8443976395E+02	-1.4224094112E+02	-4.0132146459E+02	5.6651074994E+02	3.2500000000E+02	0.000E+00	0.0
	-14	1	6	6	0	0	1.4395383821E+02	2.0596843797E+02	-9.1591119408E+01	4.2090335961E+02	3.2500000000E+02	0.000E+00	0.0
	25	2	5	5	0	0	4.0485925737E+01	-6.3727496845E+01	-2.8038128301E+02	3.1620206368E+02	1.2517898056E+02	0.000E+00	0.0
	-5	1	9	9	0	501	3.9267899940E+01	-7.2662853090E-01	-1.3176913807E+01	4.1636515370E+01	4.1800000000E+00	0.000E+00	0.0
	5	1	9	9	501	0	1.2180257972E+00	-6.3000868314E+01	-2.6720436920E+02	2.7456554830E+02	4.1800000000E+00	0.000E+00	0.0
</event>
<event>
    11  -1  1.0000000E+00  1.0000000E+00  -1.0000000E+00  -1.0000000E+00
	2212	-1	0	0	0	0	0.0000000000E+00	0.0000000000E+00	6.5000000000E+03	6.5000000000E+03	9.3827000000E-01	0.000E+00	0.0
	2212	-1	0	0	0	0	0.0000000000E+00	0.0000000000E+00	-6.5000000000E+03	6.5000000000E+03	9.3827000000E-01	0.000E+00	0.0
	2212	1	0	0	0	0	0.0000000000E+00	0.0000000000E+00	6.1007175730E+03	6.1007175730E+03	9.3827000000E-01	0.000E+00	0.0
	2212	1	0	0	0	0	0.0000000000E+00	0.0000000000E+00	-5.8139199831E+03	5.8139199831E+03	9.3827000000E-01	0.000E+00	0.0
	51	2	1	2	0	0	-1.7059381846E+01	-1.2928368786E+02	-3.0529893112E+02	1.0981673410E+03	1.0467849717E+03	0.000E+00	0.0
	1000022	2	5	5	0	0	1.7059381846E+01	1.2928368786E+02	-2.2083427119E+02	8.9294150533E+02	8.5531950881E+02	0.000E+00	0.0
	14	1	6	6	0	0	9.7858142280E+01	-5.3432801606E+01	1.3699032467E+02	3.6989543029E+02	3.2500000000E+02	0.000E+00	0.0
	-14	1	6	6	0	0	-8.0798760434E+01	1.8271648947E+02	-3.5782459586E+02	5.2304607504E+02	3.2500000000E+02	0.000E+00	0.0
	25	2	5	5	0	0	-1.7059381846E+01	-1.2928368786E+02	-6.5963318667E+01	1.9242093856E+02	1.2517732913E+02	0.000E+00	0.0
	-5	1	9	9	0	501	-4.5208351320E+01	-1.3337433487E+02	-7.8243025782E+01	1.6115815746E+02	4.1800000000E+00	0.000E+00	0.0
	5	1	9	9	501	0	2.8148969474E+01	4.0906470048E+00	1.2279707116E+01	3.1262781101E+01	4.1800000000E+00	0.000E+00	0.0
</event>
<event>
    11  -1  1.0000000E+00  1.0000000E+00  -1.0000000E+00  -1.0000000E+00
	2212	-1	0	0	0	0	0.0000000000E+00	0.0000000000E+00	6.5000000000E+03	6.5000000000E+03	9.3827000000E-01	0.000E+00	0.0
	2212	-1	0	0	0	0	0.0000000000E+00	0.0000000000E+00	-6.5000000000E+03	6.5000000000E+03	9.3827000000E-01	0.000E+00	0.0
	2212	1	0	0	0	0	0.0000000000E+00	0.0000000000E+00	5.5637952605E+03	5.5637952605E+03	9.3827000000E-01	0.000E+00	0.0
	2212	1	0	0	0	0	0.0000000000E+00	0.0000000000E+00	-6.2071934315E+03	6.2071934315E+03	9.3827000000E-01	0.000E+00	0.0
	51	2	1	2	0	0	6.9084344658E+01	2.4449674752E+01	7.9524603605E+02	1.3169260723E+03	1.0471425828E+03	0.000E+00	0.0
	1000022	2	5	5	0	0	-6.9084344658E+01	-2.4449674752E+01	3.8029186726E+02	9.2857203630E+02	8.4395123616E+02	0.000E+00	0.0
	14	1	6	6	0	0	7.1752268141E+01	-2.5799618030E+02	1.5964390810E+02	4.5035718538E+02	3.2500000000E+02	0.000E+00	0.0
	-14	1	6	6	0	0	-1.4083661280E+02	2.3354650554E+02	2.2064795916E+02	4.7821485092E+02	3.2500000000E+02	0.000E+00	0.0
	25	2	5	5	0	0	6.9084344658E+01	2.4449674752E+01	2.6310630380E+02	3.0043927172E+02	1.2517346213E+02	0.000E+00	0.0
	-5	1	9	9	0	501	3.4331325052E+01	-2.1124371286E+01	1.1176745961E+01	4.2038922350E+01	4.1800000000E+00	0.000E+00	0.0
	5	1	9	9	501	0	3.4753019606E+01	4.5574046038E+01	2.5192955784E+02	2.5840034937E+02	4.1800000000E+00	0.000E+00	0.0
</event>
<event>
    11  -1  1.0000000E+00  1.0000000E+00  -1.0000000E+00  -1.0000000E+00
	2212	-1	0	0	0	0	0.0000000000E+00	0.0000000000E+00	6.5000000000E+03	6.5000000000E+03	9.3827000000E-01	0.000E+00	0.0
	2212	-1	0	0	0	0	0.0000000000E+00	0.0000000000E+00	-6.5000000000E+03	6.5000000000E+03	9.3827000000E-01	0.000E+00	0.0
	2212	1	0	0	0	0	0.0000000000E+00	0.0000000000E+00	5.6695983407E+03	5.6695983407E+03	9.3827000000E-01	0.000E+00	0.0
	2212	1	0	0	0	0	0.0000000000E+00	0.0000000000E+00	-6.1674375240E+03	6.1674375240E+03	9.3827000000E-01	0.000E+00	0.0
	51	2	1	2	0	0	-2.2135719183E+01	-1.3483910994E+02	4.5038796351E+02	1.1515913428E+03	1.0510193755E+03	0.000E+00	0.0
	1000022	2	5	5	0	0	2.2135719183E+01	1.3483910994E+02	4.5940430238E+02	9.7370496024E+02	8.4757150785E+02	0.000E+00	0.0
	14	1	6	6	0	0	1.3697676949E+02	5.2793477830E+01	-4.2707050262E+01	3.5916386069E+02	3.2500000000E+02	0.000E+00	0.0
	-14	1	6	6	0	0	-1.1484105031E+02	8.2045632110E+01	5.0211135264E+02	6.1454109955E+02	3.2500000000E+02	0.000E+00	0.0
	25	2	5	5	0	0	-2.2135719183E+01	-1.3483910994E+02	3.8434880931E+01	1.8925917508E+02	1.2518074790E+02	0.000E+00	0.0
	-5	1	9	9	0	501	-4.5470903731E+01	-5.1768146472E+00	-1.3014327453E+01	4.7762407970E+01	4.1800000000E+00	0.000E+00	0.0
	5	1	9	9	501	0	2.3335184548E+01	-1.2966229529E+02	5.1449208385E+01	1.4149676711E+02	4.1800000000E+00	0.000E+00	0.0
</event>
<event>
    11  -1  1.0000000E+00  1.0000000E+00  -1.0000000E+00  -1.0000000E+00
	2212	-1	0	0	0	0	0.0000000000E+00	0.0000000000E+00	6.5000000000E+03	6.5000000000E+03	9.3827000000E-01	0.000E+00	0.0
	2212	-1	0	0	0	0	0.0000000000E+00	0.0000000000E+00	-6.5000000000E+03	6.5000000000E+03	9.3827000000E-01	0.000E+00	0.0
	2212	1	0	0	0	0	0.0000000000E+00	0.0000000000E+00	6.1594285560E+03	6.1594285560E+03	9.3827000000E-01	0.000E+00	0.0
	2212	1	0	0	0	0	0.0000000000E+00	0.0000000000E+00	-5.7146217565E+03	5.7146217565E+03	9.3827000000E-01	0.000E+00	0.0
	51	2	1	2	0	0	1.8453983500E+01	-1.2980110656E+02	-4.8821301929E+02	1.1512820848E+03	1.0343643506E+03	0.000E+00	0.0
	1000022	2	5	5	0	0	-1.8453983500E+01	1.2980110656E+02	-3.2572682121E+02	9.0906256374E+02	8.3851529859E+02	0.000E+00	0.0
	14	1	6	6	0	0	-2.3997442372E+02	1.7734352876E+02	-2.4527046380E+02	5.0479803055E+02	3.2500000000E+02	0.000E+00	0.0
	-14	1	6	6	0	0	2.2152044022E+02	-4.7542422202E+01	-8.0456357404E+01	4.0426453319E+02	3.2500000000E+02	0.000E+00	0.0
	25	2	5	5	0	0	1.8453983500E+01	-1.2980110656E+02	-1.1907997832E+02	2.1688712376E+02	1.2518428993E+02	0.000E+00	0.0
	-5	1	9	9	0	501	3.8077935635E+01	-1.1049127094E+01	-8.1493636763E+01	9.0723192319E+01	4.1800000000E+00	0.000E+00	0.0
	5	1	9	9	501	0	-1.9623952135E+01	-1.1875197946E+02	-3.7586341555E+01	1.2616393144E+02	4.1800000000E+00	0.000E+00	0.0
</event>
<event>
    11  -1  1.0000000E+00  1.0000000E+00  -1.0000000E+00  -1.0000000E+00
	2212	-1	0	0	0	0	0.0000000000E+00	0.0000000000E+00	6.5000000000E+03	6.5000000000E+03	9.3827000000E-01	0.000E+00	0.0
	2212	-1	0	0	0	0	0.0000000000E+00	0.0000000000E+00	-6.5000000000E+03	6.5000000000E+03	9.3827000000E-01	0.000E+00	0.0
	2212	1	0	0	0	0	0.0000000000E+00	0.0000000000E+00	6.2527153900E+03	6.2527153900E+03	9.3827000000E-01	0.000E+00	0.0
	2212	1	0	0	0	0	0.0000000000E+00	0.0000000000E+00	-5.3479438064E+03	5.3479438064E+03	9.3827000000E-01	0.000E+00	0.0
	51	2	1	2	0	0	2.6811371161E+01	-1.5051708106E+02	-8.4189764371E+02	1.3681041444E+03	1.0674938248E+03	0.000E+00	0.0
	1000022	2	5	5	0	0	-2.6811371161E+01	1.5051708106E+02	-8.0404450929E+02	1.1775483239E+03	8.4661575748E+02	0.000E+00	0.0
	14	1	6	6	0	0	-8.2399529324E+01	3.1058329158E+02	-6.1183492435E+02	7.6368752648E+02	3.2500000000E+02	0.000E+00	0.0
	-14	1	6	6	0	0	5.5588158163E+01	-1.6006621052E+02	-1.9220958494E+02	4.1386079740E+02	3.2500000000E+02	0.000E+00	0.0
	25	2	5	5	0	0	2.6811371161E+01	-1.5051708106E+02	-1.0072707433E+02	2.2179247972E+02	1.2518673749E+02	0.000E+00	0.0
	-5	1	9	9	0	501	1.9402975216E+01	-1.6558479683E+02	-5.9474162024E+01	1.7705775537E+02	4.1800000000E+00	0.000E+00	0.0
	5	1	9	9	501	0	7.4083959453E+00	1.5067715770E+01	-4.1252912303E+01	4.4734724348E+01	4.1800000000E+00	0.000E+00	0.0
</event>
<event>
    11  -1  1.0000000E+00  1.0000000E+00  -1.0000000E+00  -1.0000000E+00
	2212	-1	0	0	0	0	0.0000000000E+00	0.0000000000E+00	6.5000000000E+03	6.5000000000E+03	9.3827000000E-01	0.000E+00	0.0
	2212	-1	0	0	0	0	0.0000000000E+00	0.0000000000E+00	-6.5000000000E+03	6.5000000000E+03	9.3827000000E-01	0.000E+00	0.0
	2212	1	0	0	0	0	0.0000000000E+00	0.0000000000E+00	6.1012853434E+03	6.1012853434E+03	9.3827000000E-01	0.000E+00	0.0
	2212	1	0	0	0	0	0.0000000000E+00	0.0000000000E+00	-5.2868792709E+03	5.2868792709E+03	9.3827000000E-01	0.000E+00	0.0
	51	2	1	2	0	0	1.5295105571E+02	2.8974193226E+02	-1.1682421481E+03	1.8457763106E+03	1.3909550890E+03	0.000E+00	0.0
	1000022	2	5	5	0	0	-1.5295105571E+02	-2.8974193226E+02	-2.3774232967E+02	9.3688409608E+02	8.4491773648E+02	0.000E+00	0.0
	14	1	6	6	0	0	-5.7653683409E+01	1.4012276582E+02	-1.0731981039E+02	3.7430051885E+02	3.2500000000E+02	0.000E+00	0.0
	-14	1	6	6	0	0	-9.5297372297E+01	-4.2986469809E+02	-1.3042251928E+02	5.6258357723E+02	3.2500000000E+02	0.000E+00	0.0
	25	2	5	5	0	0	1.5295105571E+02	2.8974193226E+02	-5.7666374282E+02	6.7495128956E+02	1.2519488108E+02	0.000E+00	0.0
	-5	1	9	9	0	501	-1.5702870388E+01	6.8178251936E+01	-1.4822440454E+02	1.6395975323E+02	4.1800000000E+00	0.000E+00	0.0
	5	1	9	9	501	0	1.6865392609E+02	2.2156368033E+02	-4.2843933827E+02	5.1099153634E+02	4.1800000000E+00	0.000E+00	0.0
</event>
<event>
    11  -1  1.0000000E+00  1.0000000E+00  -1.0000000E+00  -1.0000000E+00
	2212	-1	0	0	0	0	0.0000000000E+00	0.0000000000E+00	6.5000000000E+03	6.5000000000E+03	9.3827000000E-01	0.000E+00	0.0
	2212	-1	0	0	0	0	0.0000000000E+00	0.0000000000E+00	-6.5000000000E+03	6.5000000000E+03	9.3827000000E-01	0.000E+00	0.0
	2212	1	0	0	0	0	0.0000000000E+00	0.0000000000E+00	6.2720301913E+03	6.2720301913E+03	9.3827000000E-01	0.000E+00	0.0
	2212	1	0	0	0	0	0.0000000000E+00	0.0000000000E+00	-5.2887863556E+03	5.2887863556E+03	9.3827000000E-01	0.000E+00	0.0
	51	2	1	2	0	0	-3.0294441595E+01	1.3427925029E+02	-9.5398251759E+02	1.4260125825E+03	1.0509427060E+03	0.000E+00	0.0
	1000022	2	5	5	0	0	3.0294441595E+01	-1.3427925029E+02	-8.4524524289E+02	1.2075343846E+03	8.5132314612E+02	0.000E+00	0.0
	14	1	6	6	0	0	-8.3967609097E+01	-3.0581123446E+02	-3.1624755298E+02	5.5336117072E+02	3.2500000000E+02	0.000E+00	0.0
	-14	1	6	6	0	0	1.1426205069E+02	1.7153198417E+02	-5.2899768991E+02	6.5417321388E+02	3.2500000000E+02	0.000E+00	0.0
	25	2	5	5	0	0	-3.0294441595E+01	1.3427925029E+02	-1.3799859273E+02	2.3164906851E+02	1.2517591259E+02	0.000E+00	0.0
	-5	1	9	9	0	501	-5.6548191266E+01	3.8701992196E+01	-1.0806196574E+02	1.2802500917E+02	4.1800000000E+00	0.000E+00	0.0
	5	1	9	9	501	0	2.6253749671E+01	9.5577258093E+01	-2.9936626999E+01	1.0362405933E+02	4.1800000000E+00	0.000E+00	0.0
</event>
<event>
    11  -1  1.0000000E+00  1.0000000E+00  -1.0000000E+00  -1.0000000E+00
	2212	-1	0	0	0	0	0.0000000000E+00	0.0000000000E+00	6.5000000000E+03	6.5000000000E+03	9.3827000000E-01	0.000E+00	0.0
	2212	-1	0	0	0	0	0.0000000000E+00	0.0000000000E+00	-6.5000000000E+03	6.5000000000E+03	9.3827000000E-01	0.000E+00	0.0
	2212	1	0	0	0	0	0.0000000000E+00	0.0000000000E+00	6.3026223456E+03	6.3026223456E+03	9.3827000000E-01	0.000E+00	0.0
	2212	1	0	0	0	0	0.0000000000E+00	0.0000000000E+00	-5.0979339025E+03	5.0979339025E+03	9.3827000000E-01	0.000E+00	0.0
	51	2	1	2	0	0	1.9430873460E+01	1.2745866587E+02	-1.1192331216E+03	1.5415096890E+03	1.0521150461E+03	0.000E+00	0.0
	1000022	2	5	5	0	0	-1.9430873460E+01	-1.2745866587E+02	-1.0830207773E+03	1.3823842512E+03	8.4936973310E+02	0.000E+00	0.0
	14	1	6	6	0	0	-1.9540306490E+02	-2.6712766291E+02	-5.9764061484E+02	7.5653079948E+02	3.2500000000E+02	0.000E+00	0.0
	-14	1	6	6	0	0	1.7597219144E+02	1.3966899704E+02	-4.8538016247E+02	6.2585345170E+02	3.2500000000E+02	0.000E+00	0.0
	25	2	5	5	0	0	1.9430873460E+01	1.2745866587E+02	-1.2166766579E+02	2.1705950063E+02	1.2525388443E+02	0.000E+00	0.0
	-5	1	9	9	0	501	6.1106708773E+01	3.5931075033E+01	-1.9504820739E+01	7.3640901965E+01	4.1800000000E+00	0.000E+00	0.0
	5	1	9	9	501	0	-4.1675835313E+01	9.1527590838E+01	-1.0216284506E+02	1.4341859867E+02	4.1800000000E+00	0.000E+00	0.0
</event>
<event>
    11  -1  1.0000000E+00  1.0000000E+00  -1.0000000E+00  -1.0000000E+00
	2212	-1	0	0	0	0	0.0000000000E+00	0.0000000000E+00	6.5000000000E+03	6.5000000000E+03	9.3827000000E-01	0.000E+00	0.0
	2212	-1	0	0	0	0	0.0000000000E+00	0.0000000000E+00	-6.5000000000E+03	6.5000000000E+03	9.3827000000E-01	0.000E+00	0.0
	2212	1	0	0	0	0	0.0000000000E+00	0.0000000000E+00	5.9331717629E+03	5.9331717629E+03	9.3827000000E-01	0.000E+00	0.0
	2212	1	0	0	0	0	0.0000000000E+00	0.0000000000E+00	-6.0110702052E+03	6.0110702052E+03	9.3827000000E-01	0.000E+00	0.0
	51	2	1	2	0	0	-1.4323371364E+02	2.3041451272E+01	8.6580871424E+01	1.0663488674E+03	1.0528802660E+03	0.000E+00	0.0
	1000022	2	5	5	0	0	1.4323371364E+02	-2.3041451272E+01	5.5765024218E+01	8.6286586690E+02	8.4875259124E+02	0.000E+00	0.0
	14	1	6	6	0	0	6.8021381410E+01	-9.6582099596E+01	2.8781160770E+02	4.4990613668E+02	3.2500000000E+02	0.000E+00	0.0
	-14	1	6	6	0	0	7.5212332228E+01	7.3540648324E+01	-2.3204658349E+02	4.1295973022E+02	3.2500000000E+02	0.000E+00	0.0
	25	2	5	5	0	0	-1.4323371364E+02	2.3041451272E+01	2.2133418061E+01	1.9289216494E+02	1.2518264218E+02	0.000E+00	0.0
	-5	1	9	9	0	501	-1.5811645109E+02	2.5273040143E+01	-6.4629781099E+00	1.6030839388E+02	4.1800000000E+00	0.000E+00	0.0
	5	1	9	9	501	0	1.4882737447E+01	-2.2315888711E+00	2.8596396171E+01	3.2583771064E+01	4.1800000000E+00	0.000E+00	0.0
</event>
<event>
    11  -1  1.0000000E+00  1.0000000E+00  -1.0000000E+00  -1.0000000E+00
	2212	-1	0	0	0	0	0.0000000000E+00	0.0000000000E+00	6.5000000000E+03	6.5000000000E+03	9.3827000000E-01	0.000E+00	0.0
	2212	-1	0	0	0	0	0.0000000000E+00	0.0000000000E+00	-6.5000000000E+03	6.5000000000E+03	9.3827000000E-01	0.000E+00	0.0
	2212	1	0	0	0	0	0.0000000000E+00	0.0000000000E+00	6.0790951608E+03	6.0790951608E+03	9.3827000000E-01	0.000E+00	0.0
	2212	1	0	0	0	0	0.0000000000E+00	0.0000000000E+00	-5.8435765493E+03	5.8435765493E+03	9.3827000000E-01	0.000E+00	0.0
	51	2	1	2	0	0	-8.9947366258E+01	-2.7924633014E+01	-3.4793599008E+02	1.1113491777E+03	1.0512693412E+03	0.000E+00	0.0
	1000022	2	5	5	0	0	8.9947366258E+01	2.7924633014E+01	-8.2693511736E+01	8.5847113416E+02	8.4927272268E+02	0.000E+00	0.0
	14	1	6	6	0	0	2.6193922302E+01	-2.1947609333E+02	1.0144145437E+02	4.0592024558E+02	3.2500000000E+02	0.000E+00	0.0
	-14	1	6	6	0	0	6.3753443956E+01	2.4740072634E+02	-1.8413496611E+02	4.5255088858E+02	3.2500000000E+02	0.000E+00	0.0
	25	2	5	5	0	0	-8.9947366258E+01	-2.7924633014E+01	-1.5282509977E+02	2.1885715572E+02	1.2519037369E+02	0.000E+00	0.0
	-5	1	9	9	0	501	-1.0837893098E+02	1.4494433159E+01	-9.6869033024E+01	1.4614090198E+02	4.1800000000E+00	0.000E+00	0.0
	5	1	9	9	501	0	1.8431564717E+01	-4.2419066174E+01	-5.5956066742E+01	7.2716253741E+01	4.1800000000E+00	0.000E+00	0.0
</event>
<event>
    11  -1  1.0000000E+00  1.0000000E+00  -1.0000000E+00  -1.0000000E+00
	2212	-1	0	0	0	0	0.0000000000E+00	0.0000000000E+00	6.5000000000E+03	6.5000000000E+03	9.3827000000E-01	0.000E+00	0.0
	2212	-1	0	0	0	0	0.0000000000E+00	0.0000000000E+00	-6.5000000000E+03	6.5000000000E+03	9.3827000000E-01	0.000E+00	0.0
	2212	1	0	0	0	0	0.0000000000E+00	0.0000000000E+00	5.8935215025E+03	5.8935215025E+03	9.3827000000E-01	0.000E+00	0.0
	2212	1	0	0	0	0	0.0000000000E+00	0.0000000000E+00	-6.0461294333E+03	6.0461294333E+03	9.3827000000E-01	0.000E+00	0.0
	51	2	1	2	0	0	6.4509858646E+01	-7.3721319613E+01	2.3541941350E+02	1.0798470320E+03	1.0493097528E+03	0.000E+00	0.0
	1000022	2	5	5	0	0	-6.4509858646E+01	7.3721319613E+01	4.4975086671E+01	8.6838753392E+02	8.6167151272E+02	0.000E+00	0.0
	14	1	6	6	0	0	-2.9774470586E+02	3.9181974099E+01	-7.6121008185E+01	4.4900617462E+02	3.2500000000E+02	0.000E+00	0.0
	-14	1	6	6	0	0	2.3323484721E+02	3.4539345514E+01	1.2109609486E+02	4.1938135930E+02	3.2500000000E+02	0.000E+00	0.0
	25	2	5	5	0	0	6.4509858646E+01	-7.3721319613E+01	1.0763284415E+02	1.9196153026E+02	1.2517206210E+02	0.000E+00	0.0
	-5	1	9	9	0	501	8.3095777281E+01	-5.5006390719E+01	2.1832903146E+01	1.0210171047E+02	4.1800000000E+00	0.000E+00	0.0
	5	1	9	9	501	0	-1.8585918636E+01	-1.8714928894E+01	8.5799941008E+01	8.9859819786E+01	4.1800000000E+00	0.000E+00	0.0
</event>
<event>
    11  -1  1.0000000E+00  1.0000000E+00  -1.0000000E+00  -1.0000000E+00
	2212	-1	0	0	0	0	0.0000000000E+00	0.0000000000E+00	6.5000000000E+03	6.5000000000E+03	9.3827000000E-01	0.000E+00	0.0
	2212	-1	0	0	0	0	0.0000000000E+00	0.0000000000E+00	-6.5000000000E+03	6.5000000000E+03	9.3827000000E-01	0.000E+00	0.0
	2212	1	0	0	0	0	0.0000000000E+00	0.0000000000E+00	6.2086201677E+03	6.2086201677E+03	9.3827000000E-01	0.000E+00	0.0
	2212	1	0	0	0	0	0.0000000000E+00	0.0000000000E+00	-5.5392029285E+03	5.5392029285E+03	9.3827000000E-01	0.000E+00	0.0
	51	2	1	2	0	0	-4.7034892049E+01	-1.4435722428E+02	-6.4491134919E+02	1.2485149162E+03	1.0582190502E+03	0.000E+00	0.0
	1000022	2	5	5	0	0	4.7034892049E+01	1.4435722428E+02	-5.7536929720E+02	1.0340782888E+03	8.4570490712E+02	0.000E+00	0.0
	14	1	6	6	0	0	-2.8480192017E+01	2.6952870588E+02	-9.1193931660E+01	4.3289511178E+02	3.2500000000E+02	0.000E+00	0.0
	-14	1	6	6	0	0	7.5515084066E+01	-1.2517148160E+02	-4.8417536554E+02	6.0118317702E+02	3.2500000000E+02	0.000E+00	0.0
	25	2	5	5	0	0	-4.7034892049E+01	-1.4435722428E+02	-9.4047942056E+01	2.1809861504E+02	1.2518267135E+02	0.000E+00	0.0
	-5	1	9	9	0	501	2.1802468571E+01	1.1581052954E+01	-2.0686673825E+01	3.2478905419E+01	4.1800000000E+00	0.000E+00	0.0
	5	1	9	9	501	0	-6.8837360620E+01	-1.5593827724E+02	-7.3361268232E+01	1.8561970962E+02	4.1800000000E+00	0.000E+00	0.0
</event>
<event>
    11  -1  1.0000000E+00  1.0000000E+00  -1.0000000E+00  -1.0000000E+00
	2212	-1	0	0	0	0	0.0000000000E+00	0.0000000000E+00	6.5000000000E+03	6.5000000000E+03	9.3827000000E-01	0.000E+00	0.0
	2212	-1	0	0	0	0	0.0000000000E+00	0.0000000000E+00	-6.5000000000E+03	6.5000000000E+03	9.3827000000E-01	0.000E+00	0.0
	2212	1	0	0	0	0	0.0000000000E+00	0.0000000000E+00	6.0978632065E+03	6.0978632065E+03	9.3827000000E-01	0.000E+00	0.0
	2212	1	0	0	0	0	0.0000000000E+00	0.0000000000E+00	-5.8150293809E+03	5.8150293809E+03	9.3827000000E-01	0.000E+00	0.0
	51	2	1	2	0	0	8.1397735705E+01	4.5600350951E+01	-1.8394985178E+02	1.0697429996E+03	1.0496702119E+03	0.000E+00	0.0
	1000022	2	5	5	0	0	-8.1397735705E+01	-4.5600350951E+01	-3.3441887534E+02	9.2267245716E+02	8.5485875771E+02	0.000E+00	0.0
	14	1	6	6	0	0	1.6053297809E+02	1.4826686007E+02	-2.5286036750E+02	4.6617299825E+02	3.2500000000E+02	0.000E+00	0.0
	-14	1	6	6	0	0	-2.4193071379E+02	-1.9386721102E+02	-8.1558507845E+01	4.5649945891E+02	3.2500000000E+02	0.000E+00	0.0
	25	2	5	5	0	0	8.1397735705E+01	4.5600350951E+01	5.1585049778E+01	1.6443495548E+02	1.2519126902E+02	0.000E+00	0.0
	-5	1	9	9	0	501	1.8449446206E+01	8.1408711461E+01	2.6466689638E+01	8.7668229294E+01	4.1800000000E+00	0.000E+00	0.0
	5	1	9	9	501	0	6.2948289499E+01	-3.5808360510E+01	2.5118360140E+01	7.6766726186E+01	4.1800000000E+00	0.000E+00	0.0
</event>
<event>
    11  -1  1.0000000E+00  1.0000000E+00  -1.0000000E+00  -1.0000000E+00
	2212	-1	0	0	0	0	0.0000000000E+00	0.0000000000E+00	6.5000000000E+03	6.5000000000E+03	9.3827000000E-01	0.000E+00	0.0
	2212	-1	0	0	0	0	0.0000000000E+00	0.0000000000E+00	-6.5000000000E+03	6.5000000000E+03	9.3827000000E-01	0.000E+00	0.0
	2212	1	0	0	0	0	0.0000000000E+00	0.0000000000E+00	5.0408682581E+03	5.0408682581E+03	9.3827000000E-01	0.000E+00	0.0
	2212	1	0	0	0	0	0.0000000000E+00	0.0000000000E+00	-6.3267792421E+03	6.3267792421E+03	9.3827000000E-01	0.000E+00	0.0
	51	2	1	2	0	0	4.3959026126E+01	6.1748837576E+01	1.2271561803E+03	1.5882900335E+03	1.0054887491E+03	0.000E+00	0.0
	1000022	2	5	5	0	0	-4.3959026126E+01	-6.1748837576E+01	1.1555811724E+03	1.4363884414E+03	8.4976384577E+02	0.000E+00	0.0
	14	1	6	6	0	0	-1.9336715080E+02	-1.9969701293E+02	8.2882559466E+02	9.3265568049E+02	3.2500000000E+02	0.000E+00	0.0
	-14	1	6	6	0	0	1.4940812467E+02	1.3794817535E+02	3.2675557772E+02	5.0373276087E+02	3.2500000000E+02	0.000E+00	0.0
	25	2	5	5	0	0	4.3959026126E+01	6.1748837576E+01	1.3032981166E+02	1.9596405842E+02	1.2518281617E+02	0.000E+00	0.0
	-5	1	9	9	0	501	-1.7900164973E+01	-2.0397187845E+01	7.3361497785E+01	7.8331621554E+01	4.1800000000E+00	0.000E+00	0.0
	5	1	9	9	501	0	6.1859191099E+01	8.2146025421E+01	5.6968313876E+01	1.1763243686E+02	4.1800000000E+00	0.000E+00	0.0
</event>
<event>
    11  -1  1.0000000E+00  1.0000000E+00  -1.0000000E+00  -1.0000000E+00
	2212	-1	0	0	0	0	0.0000000000E+00	0.0000000000E+00	6.5000000000E+03	6.5000000000E+03	9.3827000000E-01	0.000E+00	0.0
	2212	-1	0	0	0	0	0.0000000000E+00	0.0000000000E+00	-6.5000000000E+03	6.5000000000E+03	9.3827000000E-01	0.000E+00	0.0
	2212	1	0	0	0	0	0.0000000000E+00	0.0000000000E+00	5.2312794366E+03	5.2312794366E+03	9.3827000000E-01	0.000E+00	0.0
	2212	1	0	0	0	0	0.0000000000E+00	0.0000000000E+00	-6.2853218094E+03	6.2853218094E+03	9.3827000000E-01	0.000E+00	0.0
	51	2	1	2	0	0	-6.9528191687E+01	-1.1503887126E+02	1.1258328634E+03	1.5411146250E+03	1.0437751384E+03	0.000E+00	0.0
	1000022	2	5	5	0	0	6.9528191687E+01	1.1503887126E+02	8.0120287030E+02	1.1708848922E+03	8.4319468700E+02	0.000E+00	0.0
	14	1	6	6	0	0	5.9798268924E+00	-4.5699404680E+01	4.6938695820E+01	3.3159076447E+02	3.2500000000E+02	0.000E+00	0.0
	-14	1	6	6	0	0	6.3548364794E+01	1.6073827594E+02	7.5426417448E+02	8.3929412777E+02	3.2500000000E+02	0.000E+00	0.0
	25	2	5	5	0	0	-6.9528191687E+01	-1.1503887126E+02	2.5283950256E+02	3.1251386177E+02	1.2517582995E+02	0.000E+00	0.0
	-5	1	9	9	0	501	8.2110719697E+00	-7.6793257098E+01	1.9077557300E+02	2.0585776083E+02	4.1800000000E+00	0.000E+00	0.0
	5	1	9	9	501	0	-7.7739263656E+01	-3.8245614157E+01	6.2063929556E+01	1.0665610094E+02	4.1800000000E+00	0.000E+00	0.0
</event>
<event>
    11  -1  1.0000000E+00  1.0000000E+00  -1.0000000E+00  -1.0000000E+00
	2212	-1	0	0	0	0	0.0000000000E+00	0.0000000000E+00	6.5000000000E+03	6.5000000000E+03	9.3827000000E-01	0.000E+00	0.0
	2212	-1	0	0	0	0	0.0000000000E+00	0.0000000000E+00	-6.5000000000E+03	6.5000000000E+03	9.3827000000E-01	0.000E+00	0.0
	2212	1	0	0	0	0	0.0000000000E+00	0.0000000000E+00	6.0595482153E+03	6.0595482153E+03	9.3827000000E-01	0.000E+00	0.0
	2212	1	0	0	0	0	0.0000000000E+00	0.0000000000E+00	-5.8795699341E+03	5.8795699341E+03	9.3827000000E-01	0.000E+00	0.0
	51	2	1	2	0	0	1.3952812842E+02	1.8292128495E+01	-1.9500530735E+02	1.0728037517E+03	1.0455037634E+03	0.000E+00	0.0
	1000022	2	5	5	0	0	-1.3952812842E+02	-1.8292128495E+01	-1.3409000130E+02	8.6704831054E+02	8.4497925642E+02	0.000E+00	0.0
	14	1	6	6	0	0	-1.0118787394E+02	2.0692228307E+01	2.0198462807E+02	3.9634573811E+02	3.2500000000E+02	0.000E+00	0.0
	-14	1	6	6	0	0	-3.8340254483E+01	-3.8984356802E+01	-3.3607462936E+02	4.7070257243E+02	3.2500000000E+02	0.000E+00	0.0
	25	2	5	5	0	0	1.3952812842E+02	1.8292128495E+01	-4.5888279963E+01	1.9383354005E+02	1.2515193337E+02	0.000E+00	0.0
	-5	1	9	9	0	501	5.1195608962E+01	5.5095206422E+01	1.9561152099E+01	7.7824052960E+01	4.1800000000E+00	0.000E+00	0.0
	5	1	9	9	501	0	8.8332519458E+01	-3.6803077927E+01	-6.5449432062E+01	1.1600948709E+02	4.1800000000E+00	0.000E+00	0.0
</event>
<event>
    11  -1  1.0000000E+00  1.0000000E+00  -1.0000000E+00  -1.0000000E+00
	2212	-1	0	0	0	0	0.0000000000E+00	0.0000000000E+00	6.5000000000E+03	6.5000000000E+03	9.3827000000E-01	0.000E+00	0.0
	2212	-1	0	0	0	0	0.0000000000E+00	0.0000000000E+00	-6.5000000000E+03	6.5000000000E+03	9.3827000000E-01	0.000E+00	0.0
	2212	1	0	0	0	0	0.0000000000E+00	0.0000000000E+00	6.0831211551E+03	6.0831211551E+03	9.3827000000E-01	0.000E+00	0.0
	2212	1	0	0	0	0	0.0000000000E+00	0.0000000000E+00	-5.8548638219E+03	5.8548638219E+03	9.3827000000E-01	0.000E+00	0.0
	51	2	1	2	0	0	-3.4718811987E+01	-7.3021687500E+01	-3.1536304651E+02	1.0870905725E+03	1.0371954970E+03	0.000E+00	0.0
	1000022	2	5	5	0	0	3.4718811987E+01	7.3021687500E+01	-1.0497216456E+02	8.6860698459E+02	8.5844124761E+02	0.000E+00	0.0
	14	1	6	6	0	0	-2.3332871112E+02	-5.7306617485E+01	-1.3626945300E+02	4.2652162859E+02	3.2500000000E+02	0.000E+00	0.0
	-14	1	6	6	0	0	2.6804752310E+02	1.3032830498E+02	3.1297288438E+01	4.4208535600E+02	3.2500000000E+02	0.000E+00	0.0
	25	2	5	5	0	0	-3.4718811987E+01	-7.3021687500E+01	-1.2328516860E+02	1.9340803841E+02	1.2517936640E+02	0.000E+00	0.0
	-5	1	9	9	0	501	8.3588645488E+00	1.1442528980E+01	-9.2441670626E+01	9.3614832981E+01	4.1800000000E+00	0.000E+00	0.0
	5	1	9	9	501	0	-4.3077676536E+01	-8.4464216480E+01	-3.0843497977E+01	9.9793205424E+01	4.1800000000E+00	0.000E+00	0.0
</event>
<event>
    11  -1  1.0000000E+00  1.0000000E+00  -1.0000000E+00  -1.0000000E+00
	2212	-1	0	0	0	0	0.0000000000E+00	0.0000000000E+00	6.5000000000E+03	6.5000000000E+03	9.3827000000E-01	0.000E+00	0.0
	2212	-1	0	0	0	0	0.0000000000E+00	0.0000000000E+00	-6.5000000000E+03	6.5000000000E+03	9.3827000000E-01	0.000E+00	0.0
	2212	1	0	0	0	0	0.0000000000E+00	0.0000000000E+00	6.2790889684E+03	6.2790889684E+03	9.3827000000E-01	0.000E+00	0.0
	2212	1	0	0	0	0	0.0000000000E+00	0.0000000000E+00	-5.2521636874E+03	5.2521636874E+03	9.3827000000E-01	0.000E+00	0.0
	51	2	1	2	0	0	3.1985749002E-01	-1.6445176340E+01	-8.3483395604E+02	1.3415891729E+03	1.0500682018E+03	0.000E+00	0.0
	1000022	2	5	5	0	0	-3.1985749002E-01	1.6445176340E+01	-1.0412736019E+03	1.3416907545E+03	8.4593901698E+02	0.000E+00	0.0
	14	1	6	6	0	0	2.4117883809E+02	4.5987667636E+01	-7.0640953559E+02	8.1542720674E+02	3.2500000000E+02	0.000E+00	0.0
	-14	1	6	6	0	0	-2.4149869558E+02	-2.9542491296E+01	-3.3486406633E+02	5.2626354774E+02	3.2500000000E+02	0.000E+00	0.0
	25	2	5	5	0	0	3.1985749002E-01	-1.6445176340E+01	1.4348320997E+01	1.2705658974E+02	1.2516771367E+02	0.000E+00	0.0
	-5	1	9	9	0	501	-3.3294394228E+01	-4.6196724504E+01	-2.9411751155E+01	6.4227545087E+01	4.1800000000E+00	0.000E+00	0.0
	5	1	9	9	501	0	3.3614251718E+01	2.9751548164E+01	4.3760072152E+01	6.2829044649E+01	4.1800000000E+00	0.000E+00	0.0
</event>
<event>
    11  -1  1.0000000E+00  1.0000000E+00  -1.0000000E+00  -1.0000000E+00
	2212	-1	0	0	0	0	0.0000000000E+00	0.0000000000E+00	6.5000000000E+03	6.5000000000E+03	9.3827000000E-01	0.000E+00	0.0
	2212	-1	0	0	0	0	0.0000000000E+00	0.0000000000E+00	-6.5000000000E+03	6.5000000000E+03	9.3827000000E-01	0.000E+00	0.0
	2212	1	0	0	0	0	0.0000000000E+00	0.0000000000E+00	5.0335286627E+03	5.0335286627E+03	9.3827000000E-01	0.000E+00	0.0
	2212	1	0	0	0	0	0.0000000000E+00	0.0000000000E+00	-6.3206304896E+03	6.3206304896E+03	9.3827000000E-01	0.000E+00	0.0
	51	2	1	2	0	0	-8.5691594084E-02	-7.1929213023E+01	1.4289893423E+03	1.7604957662E+03	1.0257489865E+03	0.000E+00	0.0
	1000022	2	5	5	0	0	8.5691594084E-02	7.1929213023E+01	9.4319382350E+02	1.2728586049E+03	8.5169279699E+02	0.000E+00	0.0
	14	1	6	6	0	0	-1.0404022872E+02	9.4759086034E+01	8.4621890073E+02	9.1734131136E+02	3.2500000000E+02	0.000E+00	0.0
	-14	1	6	6	0	0	1.0412592031E+02	-2.2829873011E+01	9.6974922763E+01	3.5551729357E+02	3.2500000000E+02	0.000E+00	0.0
	25	2	5	5	0	0	-8.5691594084E-02	-7.1929213023E+01	3.4390800337E+02	3.7298224281E+02	1.2517675361E+02	0.000E+00	0.0
	-5	1	9	9	0	501	5.0087920331E+01	-1.4583677676E+01	2.2997120091E+02	2.3585103151E+02	4.1800000000E+00	0.000E+00	0.0
	5	1	9	9	501	0	-5.0173611926E+01	-5.7345535347E+01	1.1393680246E+02	1.3713121130E+02	4.1800000000E+00	0.000E+00	0.0
</event>
<event>
    11  -1  1.0000000E+00  1.0000000E+00  -1.0000000E+00  -1.0000000E+00
	2212	-1	0	0	0	0	0.0000000000E+00	0.0000000000E+00	6.5000000000E+03	6.5000000000E+03	9.3827000000E-01	0.000E+00	0.0
	2212	-1	0	0	0	0	0.0000000000E+00	0.0000000000E+00	-6.5000000000E+03	6.5000000000E+03	9.3827000000E-01	0.000E+00	0.0
	2212	1	0	0	0	0	0.0000000000E+00	0.0000000000E+00	4.9442788767E+03	4.9442788767E+03	9.3827000000E-01	0.000E+00	0.0
	2212	1	0	0	0	0	0.0000000000E+00	0.0000000000E+00	-6.3252327847E+03	6.3252327847E+03	9.3827000000E-01	0.000E+00	0.0
	51	2	1	2	0	0	-7.0094323936E+01	-2.0108746456E+01	1.5859152058E+03	1.8994738245E+03	1.0428596234E+03	0.000E+00	0.0
	1000022	2	5	5	0	0	7.0094323936E+01	2.0108746456E+01	9.4188574582E+02	1.2681409987E+03	8.4599956175E+02	0.000E+00	0.0
	14	1	6	6	0	0	-1.2609477313E+02	1.5504197137E+02	2.1727996914E+02	4.3905977917E+02	3.2500000000E+02	0.000E+00	0.0
	-14	1	6	6	0	0	1.9618909706E+02	-1.3493322491E+02	7.2460577668E+02	8.2908121954E+02	3.2500000000E+02	0.000E+00	0.0
	25	2	5	5	0	0	-7.0094323936E+01	-2.0108746456E+01	4.3906816215E+02	4.6234733988E+02	1.2516643219E+02	0.000E+00	0.0
	-5	1	9	9	0	501	-3.7569605500E+01	5.0139353958E+01	2.5504216769E+02	2.6265835180E+02	4.1800000000E+00	0.000E+00	0.0
	5	1	9	9	501	0	-3.2524718436E+01	-7.0248100415E+01	1.8402599446E+02	1.9968898807E+02	4.1800000000E+00	0.000E+00	0.0
</event>
<event>
    11  -1  1.0000000E+00  1.0000000E+00  -1.0000000E+00  -1.0000000E+00
	2212	-1	0	0	0	0	0.0000000000E+00	0.0000000000E+00	6.5000000000E+03	6.5000000000E+03	9.3827000000E-01	0.000E+00	0.0
	2212	-1	0	0	0	0	0.0000000000E+00	0.0000000000E+00	-6.5000000000E+03	6.5000000000E+03	9.3827000000E-01	0.000E+00	0.0
	2212	1	0	0	0	0	0.0000000000E+00	0.0000000000E+00	6.3064462668E+03	6.3064462668E+03	9.3827000000E-01	0.000E+00	0.0
	2212	1	0	0	0	0	0.0000000000E+00	0.0000000000E+00	-5.0715298366E+03	5.0715298366E+03	9.3827000000E-01	0.000E+00	0.0
	51	2	1	2	0	0	8.3600977537E-01	-1.2724884322E+02	-1.2305121804E+03	1.6236674921E+03	1.0516382133E+03	0.000E+00	0.0
	1000022	2	5	5	0	0	-8.3600977537E-01	1.2724884322E+02	-1.0385079676E+03	1.3566191184E+03	8.6355293221E+02	0.000E+00	0.0
	14	1	6	6	0	0	1.8878824621E+02	2.3747868969E+02	-3.5622954133E+02	5.6970309468E+02	3.2500000000E+02	0.000E+00	0.0
	-14	1	6	6	0	0	-1.8962425599E+02	-1.1022984647E+02	-6.8227842624E+02	7.8691602375E+02	3.2500000000E+02	0.000E+00	0.0
	25	2	5	5	0	0	8.3600977537E-01	-1.2724884322E+02	-1.9640846262E+02	2.6540477824E+02	1.2518164844E+02	0.000E+00	0.0
	-5	1	9	9	0	501	-1.2667861330E+01	-8.2137490431E+01	-2.3960789749E+01	8.6594652781E+01	4.1800000000E+00	0.000E+00	0.0
	5	1	9	9	501	0	1.3503871106E+01	-4.5111352792E+01	-1.7244767287E+02	1.7881012545E+02	4.1800000000E+00	0.000E+00	0.0
</event>
<event>
    11  -1  1.0000000E+00  1.0000000E+00  -1.0000000E+00  -1.0000000E+00
	2212	-1	0	0	0	0	0.0000000000E+00	0.0000000000E+00	6.5000000000E+03	6.5000000000E+03	9.3827000000E-01	0.000E+00	0.0
	2212	-1	0	0	0	0	0.0000000000E+00	0.0000000000E+00	-6.5000000000E+03	6.5000000000E+03	9.3827000000E-01	0.000E+00	0.0
	2212	1	0	0	0	0	0.0000000000E+00	0.0000000000E+00	6.3157300579E+03	6.3157300579E+03	9.3827000000E-01	0.000E+00	0.0
	2212	1	0	0	0	0	0.0000000000E+00	0.0000000000E+00	-4.9913650681E+03	4.9913650681E+03	9.3827000000E-01	0.000E+00	0.0
	51	2	1	2	0	0	6.3746876217E+01	1.0991279519E+02	-1.2267899556E+03	1.6226960184E+03	1.0545066553E+03	0.000E+00	0.0
	1000022	2	5	5	0	0	-6.3746876217E+01	-1.0991279519E+02	-1.1943358121E+03	1.4721725747E+03	8.5129875537E+02	0.000E+00	0.0
	14	1	6	6	0	0	2.1761378143E+01	-2.0654786695E+02	-2.3632276350E+02	4.5233729391E+02	3.2500000000E+02	0.000E+00	0.0
	-14	1	6	6	0	0	-8.5508254360E+01	9.6635071752E+01	-9.5801304865E+02	1.0198352808E+03	3.2500000000E+02	0.000E+00	0.0
	25	2	5	5	0	0	6.3746876217E+01	1.0991279519E+02	-1.3002917762E+02	2.2073229919E+02	1.2518256308E+02	0.000E+00	0.0
	-5	1	9	9	0	501	-6.5242415039E+00	8.3893542055E+01	-1.8426794764E+01	8.6242166549E+01	4.1800000000E+00	0.000E+00	0.0
	5	1	9	9	501	0	7.0271117721E+01	2.6019253138E+01	-1.1160238285E+02	1.3449013264E+02	4.1800000000E+00	0.000E+00	0.0
</event>
<event>
    11  -1  1.0000000E+00  1.0000000E+00  -1.0000000E+00  -1.0000000E+00
	2212	-1	0	0	0	0	0.0000000000E+00	0.0000000000E+00	6.5000000000E+03	6.5000000000E+03	9.3827000000E-01	0.000E+00	0.0
	2212	-1	0	0	0	0	0.0000000000E+00	0.0000000000E+00	-6.5000000000E+03	6.5000000000E+03	9.3827000000E-01	0.000E+00	0.0
	2212	1	0	0	0	0	0.0000000000E+00	0.0000000000E+00	6.0123924500E+03	6.0123924500E+03	9.3827000000E-01	0.000E+00	0.0
	2212	1	0	0	0	0	0.0000000000E+00	0.0000000000E+00	-5.9512069360E+03	5.9512069360E+03	9.3827000000E-01	0.000E+00	0.0
	51	2	1	2	0	0	5.8115171036E+01	4.8523678268E+01	5.0739037087E+01	1.0385995070E+03	1.0345929468E+03	0.000E+00	0.0
	1000022	2	5	5	0	0	-5.8115171036E+01	-4.8523678268E+01	-1.6272685999E+02	8.5832413821E+02	8.3934997160E+02	0.000E+00	0.0
	14	1	6	6	0	0	-2.5186387872E+02	1.0874936192E+02	-2.4996724718E+01	4.2604186809E+02	3.2500000000E+02	0.000E+00	0.0
	-14	1	6	6	0	0	1.9374870768E+02	-1.5727304019E+02	-1.3773013527E+02	4.3228227012E+02	3.2500000000E+02	0.000E+00	0.0
	25	2	5	5	0	0	5.8115171036E+01	4.8523678268E+01	1.0154134590E+02	1.7807647578E+02	1.2517454151E+02	0.000E+00	0.0
	-5	1	9	9	0	501	6.2622026057E+01	-1.8132365160E+01	1.2228453214E+01	6.6462833838E+01	4.1800000000E+00	0.000E+00	0.0
	5	1	9	9	501	0	-4.5068550215E+00	6.6656043429E+01	8.9312892688E+01	1.1161364194E+02	4.1800000000E+00	0.000E+00	0.0
</event>
<event>
    11  -1  1.0000000E+00  1.0000000E+00  -1.0000000E+00  -1.0000000E+00
	2212	-1	0	0	0	0	0.0000000000E+00	0.0000000000E+00	6.5000000000E+03	6.5000000000E+03	9.3827000000E-01	0.000E+00	0.0
	2212	-1	0	0	0	0	0.0000000000E+00	0.0000000000E+00	-6.5000000000E+03	6.5000000000E+03	9.3827000000E-01	0.000E+00	0.0
	2212	1	0	0	0	0	0.0000000000E+00	0.0000000000E+00	5.7525066055E+03	5.7525066055E+03	9.3827000000E-01	0.000E+00	0.0
	2212	1	0	0	0	0	0.0000000000E+00	0.0000000000E+00	-6.1601737257E+03	6.1601737257E+03	9.3827000000E-01	0.000E+00	0.0
	51	2	1	2	0	0	8.7532531227E+01	-2.7043986651E+01	4.3086497099E+02	1.1000497832E+03	1.0080037605E+03	0.000E+00	0.0
	1000022	2	5	5	0	0	-8.7532531227E+01	2.7043986651E+01	3.2297630028E+02	9.1057702652E+02	8.4642986091E+02	0.000E+00	0.0
	14	1	6	6	0	0	-6.0697979821E+01	-1.4273469921E+02	-7.5987352813E+01	3.6804417792E+02	3.2500000000E+02	0.000E+00	0.0
	-14	1	6	6	0	0	-2.6834551406E+01	1.6977868586E+02	3.9896365309E+02	5.4253284860E+02	3.2500000000E+02	0.000E+00	0.0
	25	2	5	5	0	0	8.7532531227E+01	-2.7043986651E+01	8.4690819939E+01	1.7674264223E+02	1.2518827966E+02	0.000E+00	0.0
	-5	1	9	9	0	501	5.9642102808E+01	4.3134770969E+01	6.5724999388E+01	9.8767590021E+01	4.1800000000E+00	0.000E+00	0.0
	5	1	9	9	501	0	2.7890428418E+01	-7.0178757620E+01	1.8965820551E+01	7.7975052213E+01	4.1800000000E+00	0.000E+00	0.0
</event>
<event>
    11  -1  1.0000000E+00  1.0000000E+00  -1.0000000E+00  -1.0000000E+00
	2212	-1	0	0	0	0	0.0000000000E+00	0.0000000000E+00	6.5000000000E+03	6.5000000000E+03	9.3827000000E-01	0.000E+00	0.0
	2212	-1	0	0	0	0	0.0000000000E+00	0.0000000000E+00	-6.5000000000E+03	6.5000000000E+03	9.3827000000E-01	0.000E+00	0.0
	2212	1	0	0	0	0	0.0000000000E+00	0.0000000000E+00	5.1077104633E+03	5.1077104633E+03	9.3827000000E-01	0.000E+00	0.0
	2212	1	0	0	0	0	0.0000000000E+00	0.0000000000E+00	-6.3039518884E+03	6.3039518884E+03	9.3827000000E-01	0.000E+00	0.0
	51	2	1	2	0	0	5.4782255638E+01	4.7445537842E+01	1.0197254281E+03	1.4618190931E+03	1.0449033150E+03	0.000E+00	0.0
	1000022	2	5	5	0	0	-5.4782255638E+01	-4.7445537842E+01	1.1662096521E+03	1.4406075505E+03	8.4264641901E+02	0.000E+00	0.0
	14	1	6	6	0	0	1.3681164086E+02	-7.6660638769E+01	2.2269848940E+02	4.2404468608E+02	3.2500000000E+02	0.000E+00	0.0
	-14	1	6	6	0	0	-1.9159389650E+02	2.9215100927E+01	9.4351116268E+02	1.0165628645E+03	3.2500000000E+02	0.000E+00	0.0
	25	2	5	5	0	0	5.4782255638E+01	4.7445537842E+01	3.0031773043E+01	1.4773009772E+02	1.2518026915E+02	0.000E+00	0.0
	-5	1	9	9	0	501	-8.3160915808E-01	6.7588803254E+01	-1.9492240499E+01	7.0472389904E+01	4.1800000000E+00	0.000E+00	0.0
	5	1	9	9	501	0	5.5613864796E+01	-2.0143265412E+01	4.9524013542E+01	7.7257707812E+01	4.1800000000E+00	0.000E+00	0.0
</event>
<event>
    11  -1  1.0000000E+00  1.0000000E+00  -1.0000000E+00  -1.0000000E+00
	2212	-1	0	0	0	0	0.0000000000E+00	0.0000000000E+00	6.5000000000E+03	6.5000000000E+03	9.3827000000E-01	0.000E+00	0.0
	2212	-1	0	0	0	0	0.0000000000E+00	0.0000000000E+00	-6.5000000000E+03	6.5000000000E+03	9.3827000000E-01	0.000E+00	0.0
	2212	1	0	0	0	0	0.0000000000E+00	0.0000000000E+00	5.1394725861E+03	5.1394725861E+03	9.3827000000E-01	0.000E+00	0.0
	2212	1	0	0	0	0	0.0000000000E+00	0.0000000000E+00	-6.2969694391E+03	6.2969694391E+03	9.3827000000E-01	0.000E+00	0.0
	51	2	1	2	0	0	2.2724881575E+01	-6.7932798662E+01	1.3413860369E+03	1.7056853054E+03	1.0511491692E+03	0.000E+00	0.0
	1000022	2	5	5	0	0	-2.2724881575E+01	6.7932798662E+01	7.7890404943E+02	1.1584231064E+03	8.5447135103E+02	0.000E+00	0.0
	14	1	6	6	0	0	-2.4870895609E+01	-2.4034627506E+02	4.2942180542E+02	5.9026517800E+02	3.2500000000E+02	0.000E+00	0.0
	-14	1	6	6	0	0	2.1460140345E+00	3.0827907373E+02	3.4948224402E+02	5.6815792836E+02	3.2500000000E+02	0.000E+00	0.0
	25	2	5	5	0	0	2.2724881575E+01	-6.7932798662E+01	3.7859280360E+02	4.0513486846E+02	1.2518172920E+02	0.000E+00	0.0
	-5	1	9	9	0	501	6.6352601068E+01	-7.4545882281E+01	2.6519940934E+02	2.8338658286E+02	4.1800000000E+00	0.000E+00	0.0
	5	1	9	9	501	0	-4.3627719493E+01	6.6130836185E+00	1.1339339426E+02	1.2174828560E+02	4.1800000000E+00	0.000E+00	0.0
</event>
<event>
    11  -1  1.0000000E+00  1.0000000E+00  -1.0000000E+00  -1.0000000E+00
	2212	-1	0	0	0	0	0.0000000000E+00	0.0000000000E+00	6.5000000000E+03	6.5000000000E+03	9.3827000000E-01	0.000E+00	0.0
	2212	-1	0	0	0	0	0.0000000000E+00	0.0000000000E+00	-6.5000000000E+03	6.5000000000E+03	9.3827000000E-01	0.000E+00	0.0
	2212	1	0	0	0	0	0.0000000000E+00	0.0000000000E+00	5.9834642767E+03	5.9834642767E+03	9.3827000000E-01	0.000E+00	0.0
	2212	1	0	0	0	0	0.0000000000E+00	0.0000000000E+00	-5.9486829800E+03	5.9486829800E+03	9.3827000000E-01	0.000E+00	0.0
	51	2	1	2	0	0	-3.6931955507E+00	1.6115455819E+02	6.9403618249E+00	1.0794129620E+03	1.0672861578E+03	0.000E+00	0.0
	1000022	2	5	5	0	0	3.6931955507E+00	-1.6115455819E+02	-7.0132953393E+01	8.6072120744E+02	8.4257814739E+02	0.000E+00	0.0
	14	1	6	6	0	0	-4.0052355681E+01	-1.2427284912E+02	2.2641328272E+02	4.1705623939E+02	3.2500000000E+02	0.000E+00	0.0
	-14	1	6	6	0	0	4.3745551231E+01	-3.6881709069E+01	-2.9654623611E+02	4.4366496804E+02	3.2500000000E+02	0.000E+00	0.0
	25	2	5	5	0	0	-3.6931955507E+00	1.6115455819E+02	3.5351656655E+01	2.0713153582E+02	1.2517708330E+02	0.000E+00	0.0
	-5	1	9	9	0	501	-3.8725653560E+01	1.4570108971E+02	5.8985137063E+01	1.6194197288E+02	4.1800000000E+00	0.000E+00	0.0
	5	1	9	9	501	0	3.5032458009E+01	1.5453468475E+01	-2.3633480408E+01	4.5189562935E+01	4.1800000000E+00	0.000E+00	0.0
</event>
<event>
    11  -1  1.0000000E+00  1.0000000E+00  -1.0000000E+00  -1.0000000E+00
	2212	-1	0	0	0	0	0.0000000000E+00	0.0000000000E+00	6.5000000000E+03	6.5000000000E+03	9.3827000000E-01	0.000E+00	0.0
	2212	-1	0	0	0	0	0.0000000000E+00	0.0000000000E+00	-6.5000000000E+03	6.5000000000E+03	9.3827000000E-01	0.000E+00	0.0
	2212	1	0	0	0	0	0.0000000000E+00	0.0000000000E+00	4.8982876973E+03	4.8982876973E+03	9.3827000000E-01	0.000E+00	0.0
	2212	1	0	0	0	0	0.0000000000E+00	0.0000000000E+00	-6.3271006623E+03	6.3271006623E+03	9.3827000000E-01	0.000E+00	0.0
	51	2	1	2	0	0	8.5169733318E+01	-8.9325203685E+01	1.3386536910E+03	1.7073273163E+03	1.0524922732E+03	0.000E+00	0.0
	1000022	2	5	5	0	0	-8.5169733318E+01	8.9325203685E+01	1.2786563383E+03	1.5434192531E+03	8.5553964484E+02	0.000E+00	0.0
	14	1	6	6	0	0	-1.5613340920E+02	1.8203991079E+02	1.0608350419E+03	1.1351264937E+03	3.2500000000E+02	0.000E+00	0.0
	-14	1	6	6	0	0	7.0963675886E+01	-9.2714707109E+01	2.1782129639E+02	4.0829275939E+02	3.2500000000E+02	0.000E+00	0.0
	25	2	5	5	0	0	8.5169733318E+01	-8.9325203685E+01	1.5015662679E+02	2.3119238733E+02	1.2517999801E+02	0.000E+00	0.0
	-5	1	9	9	0	501	7.3578633190E+01	1.0518185372E+01	5.3425604960E+01	9.1630863529E+01	4.1800000000E+00	0.000E+00	0.0
	5	1	9	9	501	0	1.1591100128E+01	-9.9843389057E+01	9.6731021831E+01	1.3956152380E+02	4.1800000000E+00	0.000E+00	0.0
</event>
<event>
    11  -1  1.0000000E+00  1.0000000E+00  -1.0000000E+00  -1.0000000E+00
	2212	-1	0	0	0	0	0.0000000000E+00	0.0000000000E+00	6.5000000000E+03	6.5000000000E+03	9.3827000000E-01	0.000E+00	0.0
	2212	-1	0	0	0	0	0.0000000000E+00	0.0000000000E+00	-6.5000000000E+03	6.5000000000E+03	9.3827000000E-01	0.000E+00	0.0
	2212	1	0	0	0	0	0.0000000000E+00	0.0000000000E+00	5.8076765909E+03	5.8076765909E+03	9.3827000000E-01	0.000E+00	0.0
	2212	1	0	0	0	0	0.0000000000E+00	0.0000000000E+00	-6.1041713582E+03	6.1041713582E+03	9.3827000000E-01	0.000E+00	0.0
	51	2	1	2	0	0	-1.2412779858E+02	-2.3818295717E+01	2.4304374042E+02	1.0822250321E+03	1.0469793402E+03	0.000E+00	0.0
	1000022	2	5	5	0	0	1.2412779858E+02	2.3818295717E+01	2.9985172562E+02	9.1023109169E+02	8.5007915004E+02	0.000E+00	0.0
	14	1	6	6	0	0	6.8948359908E+00	-2.3419892514E+02	2.5903076822E+02	4.7709392596E+02	3.2500000000E+02	0.000E+00	0.0
	-14	1	6	6	0	0	1.1723296259E+02	2.5801722086E+02	4.0820957408E+01	4.3313716574E+02	3.2500000000E+02	0.000E+00	0.0
	25	2	5	5	0	0	-1.2412779858E+02	-2.3818295717E+01	-3.3569583214E+00	1.7792095921E+02	1.2517818087E+02	0.000E+00	0.0
	-5	1	9	9	0	501	-1.4794984162E+02	-2.7235726799E+01	-1.4267601984E+01	1.5116870482E+02	4.1800000000E+00	0.000E+00	0.0
	5	1	9	9	501	0	2.3822043042E+01	3.4174310814E+00	1.0910643663E+01	2.6752254392E+01	4.1800000000E+00	0.000E+00	0.0
</event>
<event>
    11  -1  1.0000000E+00  1.0000000E+00  -1.0000000E+00  -1.0000000E+00
	2212	-1	0	0	0	0	0.0000000000E+00	0.0000000000E+00	6.5000000000E+03	6.5000000000E+03	9.3827000000E-01	0.000E+00	0.0
	2212	-1	0	0	0	0	0.0000000000E+00	0.0000000000E+00	-6.5000000000E+03	6.5000000000E+03	9.3827000000E-01	0.000E+00	0.0
	2212	1	0	0	0	0	0.0000000000E+00	0.0000000000E+00	4.9234037932E+03	4.9234037932E+03	9.3827000000E-01	0.000E+00	0.0
	2212	1	0	0	0	0	0.0000000000E+00	0.0000000000E+00	-6.3254757993E+03	6.3254757993E+03	9.3827000000E-01	0.000E+00	0.0
	51	2	1	2	0	0	7.9241945620E+01	4.9857693198E+01	1.5531087612E+03	1.8765736519E+03	1.0491028411E+03	0.000E+00	0.0
	1000022	2	5	5	0	0	-7.9241945620E+01	-4.9857693198E+01	1.0236784054E+03	1.3417094131E+03	8.6226538611E+02	0.000E+00	0.0
	14	1	6	6	0	0	-2.7400761458E+02	-1.0496994639E+02	7.5902406961E+02	8.7626559942E+02	3.2500000000E+02	0.000E+00	0.0
	-14	1	6	6	0	0	1.9476566896E+02	5.5112253193E+01	2.6465433575E+02	4.6544381368E+02	3.2500000000E+02	0.000E+00	0.0
	25	2	5	5	0	0	7.9241945620E+01	4.9857693198E+01	3.7839360078E+02	4.0941099444E+02	1.2518214624E+02	0.000E+00	0.0
	-5	1	9	9	0	501	1.0034475911E+01	5.8302083773E+01	2.9371807295E+02	2.9964579499E+02	4.1800000000E+00	0.000E+00	0.0
	5	1	9	9	501	0	6.9207469709E+01	-8.4443905749E+00	8.4675527828E+01	1.0976519944E+02	4.1800000000E+00	0.000E+00	0.0
</event>
<event>
    11  -1  1.0000000E+00  1.0000000E+00  -1.0000000E+00  -1.0000000E+00
	2212	-1	0	0	0	0	0.0000000000E+00	0.0000000000E+00	6.5000000000E+03	6.5000000000E+03	9.3827000000E-01	0.000E+00	0.0
	2212	-1	0	0	0	0	0.0000000000E+00	0.0000000000E+00	-6.5000000000E+03	6.5000000000E+03	9.3827000000E-01	0.000E+00	0.0
	2212	1	0	0	0	0	0.0000000000E+00	0.0000000000E+00	6.2188536557E+03	6.2188536557E+03	9.3827000000E-01	0.000E+00	0.0
	2212	1	0	0	0	0	0.0000000000E+00	0.0000000000E+00	-5.5215199368E+03	5.5215199368E+03	9.3827000000E-01	0.000E+00	0.0
	51	2	1	2	0	0	-5.8023011062E+01	4.8354210137E+01	-8.4472818569E+02	1.3489458395E+03	1.0489920738E+03	0.000E+00	0.0
	1000022	2	5	5	0	0	5.8023011062E+01	-4.8354210137E+01	-4.3136864417E+02	9.5612735830E+02	8.4993871466E+02	0.000E+00	0.0
	14	1	6	6	0	0	-2.5686005374E+00	-1.5582740053E+02	4.8382256997E+01	3.6366828190E+02	3.2500000000E+02	0.000E+00	0.0
	-14	1	6	6	0	0	6.0591611599E+01	1.0747319040E+02	-4.7975090116E+02	5.9245907641E+02	3.2500000000E+02	0.000E+00	0.0
	25	2	5	5	0	0	-5.8023011062E+01	4.8354210137E+01	-2.6596507472E+02	3.0349904914E+02	1.2517768335E+02	0.000E+00	0.0
	-5	1	9	9	0	501	1.2699451654E+01	-3.3103284310E+01	-4.3907858549E+01	5.6590422748E+01	4.1800000000E+00	0.000E+00	0.0
	5	1	9	9	501	0	-7.0722462716E+01	8.1457494447E+01	-2.2205721617E+02	2.4690862639E+02	4.1800000000E+00	0.000E+00	0.0
</event>
<event>
    11  -1  1.0000000E+00  1.0000000E+00  -1.0000000E+00  -1.0000000E+00
	2212	-1	0	0	0	0	0.0000000000E+00	0.0000000000E+00	6.5000000000E+03	6.5000000000E+03	9.3827000000E-01	0.000E+00	0.0
	2212	-1	0	0	0	0	0.0000000000E+00	0.0000000000E+00	-6.5000000000E+03	6.5000000000E+03	9.3827000000E-01	0.000E+00	0.0
	2212	1	0	0	0	0	0.0000000000E+00	0.0000000000E+00	5.6197110152E+03	5.6197110152E+03	9.3827000000E-01	0.000E+00	0.0
	2212	1	0	0	0	0	0.0000000000E+00	0.0000000000E+00	-6.2284461931E+03	6.2284461931E+03	9.3827000000E-01	0.000E+00	0.0
	51	2	1	2	0	0	2.7345293454E+01	5.5538941804E+00	5.9579101363E+02	1.1453946231E+03	9.7784625574E+02	0.000E+00	0.0
	1000022	2	5	5	0	0	-2.7345293454E+01	-5.5538941804E+00	5.4180329104E+02	1.0071502720E+03	8.4854125029E+02	0.000E+00	0.0
	14	1	6	6	0	0	2.3856118062E+02	7.8538949756E+01	1.8830317137E+02	4.5184387555E+02	3.2500000000E+02	0.000E+00	0.0
	-14	1	6	6	0	0	-2.6590647407E+02	-8.4092843937E+01	3.5350011967E+02	5.5530639647E+02	3.2500000000E+02	0.000E+00	0.0
	25	2	5	5	0	0	2.7345293454E+01	5.5538941804E+00	6.6931886857E+01	1.4469251963E+02	1.2520957209E+02	0.000E+00	0.0
	-5	1	9	9	0	501	-3.9072047987E+01	-1.4760542221E+01	6.2085290808E+01	7.4943674017E+01	4.1800000000E+00	0.000E+00	0.0
	5	1	9	9	501	0	6.6417341442E+01	2.0314436401E+01	4.8465960495E+00	6.9748845609E+01	4.1800000000E+00	0.000E+00	0.0
</event>
<event>
    11  -1  1.0000000E+00  1.0000000E+00  -1.0000000E+00  -1.0000000E+00
	2212	-1	0	0	0	0	0.0000000000E+00	0.0000000000E+00	6.5000000000E+03	6.5000000000E+03	9.3827000000E-01	0.000E+00	0.0
	2212	-1	0	0	0	0	0.0000000000E+00	0.0000000000E+00	-6.5000000000E+03	6.5000000000E+03	9.3827000000E-01	0.000E+00	0.0
	2212	1	0	0	0	0	0.0000000000E+00	0.0000000000E+00	4.9034664606E+03	4.9034664606E+03	9.3827000000E-01	0.000E+00	0.0
	2212	1	0	0	0	0	0.0000000000E+00	0.0000000000E+00	-6.3239473319E+03	6.3239473319E+03	9.3827000000E-01	0.000E+00	0.0
	51	2	1	2	0	0	6.7498111530E+00	-3.3121847819E+01	1.1804613532E+03	1.5871129702E+03	1.0603282309E+03	0.000E+00	0.0
	1000022	2	5	5	0	0	-6.7498111530E+00	3.3121847819E+01	1.4074397873E+03	1.6422707973E+03	8.4559091765E+02	0.000E+00	0.0
	14	1	6	6	0	0	-2.1405228471E+01	-2.0004938636E+02	1.0025040824E+03	1.0729013822E+03	3.2500000000E+02	0.000E+00	0.0
	-14	1	6	6	0	0	1.4655417318E+01	2.3317123418E+02	4.0493570494E+02	5.6936941509E+02	3.2500000000E+02	0.000E+00	0.0
	25	2	5	5	0	0	6.7498111530E+00	-3.3121847819E+01	1.3041084028E+01	1.3031541018E+02	1.2517755192E+02	0.000E+00	0.0
	-5	1	9	9	0	501	5.7011781791E+01	-3.2022142343E+01	3.6142692846E+01	7.4829990708E+01	4.1800000000E+00	0.000E+00	0.0
	5	1	9	9	501	0	-5.0261970638E+01	-1.0997054755E+00	-2.3101608818E+01	5.5485419477E+01	4.1800000000E+00	0.000E+00	0.0
</event>
<event>
    11  -1  1.0000000E+00  1.0000000E+00  -1.0000000E+00  -1.0000000E+00
	2212	-1	0	0	0	0	0.0000000000E+00	0.0000000000E+00	6.5000000000E+03	6.5000000000E+03	9.3827000000E-01	0.000E+00	0.0
	2212	-1	0	0	0	0	0.0000000000E+00	0.0000000000E+00	-6.5000000000E+03	6.5000000000E+03	9.3827000000E-01	0.000E+00	0.0
	2212	1	0	0	0	0	0.0000000000E+00	0.0000000000E+00	5.6924544359E+03	5.6924544359E+03	9.3827000000E-01	0.000E+00	0.0
	2212	1	0	0	0	0	0.0000000000E+00	0.0000000000E+00	-6.1493295010E+03	6.1493295010E+03	9.3827000000E-01	0.000E+00	0.0
	51	2	1	2	0	0	-1.3004622139E+02	5.9338405711E+00	4.2816356419E+02	1.1545565779E+03	1.0642977138E+03	0.000E+00	0.0
	1000022	2	5	5	0	0	1.3004622139E+02	-5.9338405711E+00	4.1054886043E+02	9.7164876071E+02	8.7097859746E+02	0.000E+00	0.0
	14	1	6	6	0	0	2.4668921349E+02	2.1223265419E+02	1.3635447594E+02	4.7970387810E+02	3.2500000000E+02	0.000E+00	0.0
	-14	1	6	6	0	0	-1.1664299210E+02	-2.1816649476E+02	2.7419438450E+02	4.9194488261E+02	3.2500000000E+02	0.000E+00	0.0
	25	2	5	5	0	0	-1.3004622139E+02	5.9338405711E+00	4.6326204676E+01	1.8656730238E+02	1.2535553803E+02	0.000E+00	0.0
	-5	1	9	9	0	501	-1.2322689888E+02	5.1804085805E+01	2.8720900548E+01	1.3678777153E+02	4.1800000000E+00	0.000E+00	0.0
	5	1	9	9	501	0	-6.8193225154E+00	-4.5870245234E+01	1.7605304128E+01	4.9779530841E+01	4.1800000000E+00	0.000E+00	0.0
</event>
<event>
    11  -1  1.0000000E+00  1.0000000E+00  -1.0000000E+00  -1.0000000E+00
	2212	-1	0	0	0	0	0.0000000000E+00	0.0000000000E+00	6.5000000000E+03	6.5000000000E+03	9.3827000000E-01	0.000E+00	0.0
	2212	-1	0	0	0	0	0.0000000000E+00	0.0000000000E+00	-6.5000000000E+03	6.5000000000E+03	9.3827000000E-01	0.000E+00	0.0
	2212	1	0	0	0	0	0.0000000000E+00	0.0000000000E+00	6.1947519295E+03	6.1947519295E+03	9.3827000000E-01	0.000E+00	0.0
	2212	1	0	0	0	0	0.0000000000E+00	0.0000000000E+00	-5.5833947218E+03	5.5833947218E+03	9.3827000000E-01	0.000E+00	0.0
	51	2	1	2	0	0	-7.2854080580E+01	1.0431816598E+02	-7.2526122804E+02	1.2889382515E+03	1.0579073544E+03	0.000E+00	0.0
	1000022	2	5	5	0	0	7.2854080580E+01	-1.0431816598E+02	-3.8793774156E+02	9.3589180173E+02	8.4214474789E+02	0.000E+00	0.0
	14	1	6	6	0	0	-1.3210314656E+01	1.6057086343E+02	-6.8510435813E+00	3.6280773337E+02	3.2500000000E+02	0.000E+00	0.0
	-14	1	6	6	0	0	8.6064395236E+01	-2.6488902941E+02	-3.8108669798E+02	5.7308406836E+02	3.2500000000E+02	0.000E+00	0.0
	25	2	5	5	0	0	-7.2854080580E+01	1.0431816598E+02	-2.2341946608E+02	2.8596154701E+02	1.2517089013E+02	0.000E+00	0.0
	-5	1	9	9	0	501	-2.3508742094E+01	-1.5526577343E+01	-1.1018578748E+02	1.1380736233E+02	4.1800000000E+00	0.000E+00	0.0
	5	1	9	9	501	0	-4.9345338486E+01	1.1984474333E+02	-1.1323367860E+02	1.7215418468E+02	4.1800000000E+00	0.000E+00	0.0
</event>
<event>
    11  -1  1.0000000E+00  1.0000000E+00  -1.0000000E+00  -1.0000000E+00
	2212	-1	0	0	0	0	0.0000000000E+00	0.0000000000E+00	6.5000000000E+03	6.5000000000E+03	9.3827000000E-01	0.000E+00	0.0
	2212	-1	0	0	0	0	0.0000000000E+00	0.0000000000E+00	-6.5000000000E+03	6.5000000000E+03	9.3827000000E-01	0.000E+00	0.0
	2212	1	0	0	0	0	0.0000000000E+00	0.0000000000E+00	6.2804403858E+03	6.2804403858E+03	9.3827000000E-01	0.000E+00	0.0
	2212	1	0	0	0	0	0.0000000000E+00	0.0000000000E+00	-5.2085620187E+03	5.2085620187E+03	9.3827000000E-01	0.000E+00	0.0
	51	2	1	2	0	0	1.1371937885E+02	-3.6434344396E+01	-1.2386937255E+03	1.6379292426E+03	1.0649838024E+03	0.000E+00	0.0
	1000022	2	5	5	0	0	-1.1371937885E+02	3.6434344396E+01	-7.1156287408E+02	1.1112941048E+03	8.4521790390E+02	0.000E+00	0.0
	14	1	6	6	0	0	2.4670528002E+01	2.7522005409E+02	-3.3425563112E+02	5.4194699009E+02	3.2500000000E+02	0.000E+00	0.0
	-14	1	6	6	0	0	-1.3838990685E+02	-2.3878570970E+02	-3.7730724296E+02	5.6934711474E+02	3.2500000000E+02	0.000E+00	0.0
	25	2	5	5	0	0	1.1371937885E+02	-3.6434344396E+01	-3.6031549302E+02	3.9970349058E+02	1.2520410255E+02	0.000E+00	0.0
	-5	1	9	9	0	501	1.1325450527E+02	1.0825263633E+01	-1.7783163996E+02	2.1115239489E+02	4.1800000000E+00	0.000E+00	0.0
	5	1	9	9	501	0	4.6487358019E-01	-4.7259608030E+01	-1.8248385306E+02	1.8855109570E+02	4.1800000000E+00	0.000E+00	0.0
</event>
<event>
    11  -1  1.0000000E+00  1.0000000E+00  -1.0000000E+00  -1.0000000E+00
	2212	-1	0	0	0	0	0.0000000000E+00	0.0000000000E+00	6.5000000000E+03	6.5000000000E+03	9.3827000000E-01	0.000E+00	0.0
	2212	-1	0	0	0	0	0.0000000000E+00	0.0000000000E+00	-6.5000000000E+03	6.5000000000E+03	9.3827000000E-01	0.000E+00	0.0
	2212	1	0	0	0	0	0.0000000000E+00	0.0000000000E+00	5.2680393877E+03	5.2680393877E+03	9.3827000000E-01	0.000E+00	0.0
	2212	1	0	0	0	0	0.0000000000E+00	0.0000000000E+00	-6.2829496749E+03	6.2829496749E+03	9.3827000000E-01	0.000E+00	0.0
	51	2	1	2	0	0	8.1460874826E+01	4.3752073784E+01	1.0626995053E+03	1.4857557546E+03	1.0342097493E+03	0.000E+00	0.0
	1000022	2	5	5	0	0	-8.1460874826E+01	-4.3752073784E+01	8.1590741654E+02	1.1963748840E+03	8.7009070374E+02	0.000E+00	0.0
	14	1	6	6	0	0	-1.2571089008E+02	2.5357582383E+02	3.6960382412E+02	5.6774634576E+02	3.2500000000E+02	0.000E+00	0.0
	-14	1	6	6	0	0	4.4250015250E+01	-2.9732789762E+02	4.4630359242E+02	6.2862853829E+02	3.2500000000E+02	0.000E+00	0.0
	25	2	5	5	0	0	8.1460874826E+01	4.3752073784E+01	1.9900287069E+02	2.5263605335E+02	1.2519071381E+02	0.000E+00	0.0
	-5	1	9	9	0	501	4.0336556707E+01	5.6637454455E-01	-4.2459354243E+00	4.0778167624E+01	4.1800000000E+00	0.000E+00	0.0
	5	1	9	9	501	0	4.1124318119E+01	4.3185699239E+01	2.0324880611E+02	2.1185788573E+02	4.1800000000E+00	0.000E+00	0.0
</event>
<event>
    11  -1  1.0000000E+00  1.0000000E+00  -1.0000000E+00  -1.0000000E+00
	2212	-1	0	0	0	0	0.0000000000E+00	0.0000000000E+00	6.5000000000E+03	6.5000000000E+03	9.3827000000E-01	0.000E+00	0.0
	2212	-1	0	0	0	0	0.0000000000E+00	0.0000000000E+00	-6.5000000000E+03	6.5000000000E+03	9.3827000000E-01	0.000E+00	0.0
	2212	1	0	0	0	0	0.0000000000E+00	0.0000000000E+00	6.1629582759E+03	6.1629582759E+03	9.3827000000E-01	0.000E+00	0.0
	2212	1	0	0	0	0	0.0000000000E+00	0.0000000000E+00	-5.6666549332E+03	5.6666549332E+03	9.3827000000E-01	0.000E+00	0.0
	51	2	1	2	0	0	9.2210538944E+01	-9.9428450110E+01	-4.3025806373E+02	1.1519544409E+03	1.0599472781E+03	0.000E+00	0.0
	1000022	2	5	5	0	0	-9.2210538944E+01	9.9428450110E+01	-4.7578813382E+02	9.8469145733E+02	8.5138364893E+02	0.000E+00	0.0
	14	1	6	6	0	0	1.1250083442E+02	-1.5232782957E+02	-3.3672682967E+02	5.0484667299E+02	3.2500000000E+02	0.000E+00	0.0
	-14	1	6	6	0	0	-2.0471137337E+02	2.5175627968E+02	-1.3906130415E+02	4.7984478434E+02	3.2500000000E+02	0.000E+00	0.0
	25	2	5	5	0	0	9.2210538944E+01	-9.9428450110E+01	-2.0515208928E+01	1.8569533355E+02	1.2519218395E+02	0.000E+00	0.0
	-5	1	9	9	0	501	7.7701537817E+01	-6.9689466807E+01	-7.0198855151E+01	1.2585508503E+02	4.1800000000E+00	0.000E+00	0.0
	5	1	9	9	501	0	1.4509001127E+01	-2.9738983303E+01	4.9683646223E+01	5.9840248526E+01	4.1800000000E+00	0.000E+00	0.0
</event>
<event>
    11  -1  1.0000000E+00  1.0000000E+00  -1.0000000E+00  -1.0000000E+00
	2212	-1	0	0	0	0	0.0000000000E+00	0.0000000000E+00	6.5000000000E+03	6.5000000000E+03	9.3827000000E-01	0.000E+00	0.0
	2212	-1	0	0	0	0	0.0000000000E+00	0.0000000000E+00	-6.5000000000E+03	6.5000000000E+03	9.3827000000E-01	0.000E+00	0.0
	2212	1	0	0	0	0	0.0000000000E+00	0.0000000000E+00	5.0830163805E+03	5.0830163805E+03	9.3827000000E-01	0.000E+00	0.0
	2212	1	0	0	0	0	0.0000000000E+00	0.0000000000E+00	-6.3065953723E+03	6.3065953723E+03	9.3827000000E-01	0.000E+00	0.0
	51	2	1	2	0	0	-6.2077229442E+01	1.0931280074E+02	1.2073942919E+03	1.6030622584E+03	1.0469979739E+03	0.000E+00	0.0
	1000022	2	5	5	0	0	6.2077229442E+01	-1.0931280074E+02	1.0403463886E+03	1.3552552664E+03	8.5941454374E+02	0.000E+00	0.0
	14	1	6	6	0	0	-6.4643678331E+01	-2.4974408143E+02	2.6173238482E+02	4.9059122762E+02	3.2500000000E+02	0.000E+00	0.0
	-14	1	6	6	0	0	1.2672090777E+02	1.4043128069E+02	7.7861400375E+02	8.6466403874E+02	3.2500000000E+02	0.000E+00	0.0
	25	2	5	5	0	0	-6.2077229442E+01	1.0931280074E+02	1.8323260327E+02	2.5513298079E+02	1.2536259475E+02	0.000E+00	0.0
	-5	1	9	9	0	501	-5.4373675418E+01	9.7121710042E+00	1.1741758440E+01	5.6623000056E+01	4.1800000000E+00	0.000E+00	0.0
	5	1	9	9	501	0	-7.7035540246E+00	9.9600629738E+01	1.7149084483E+02	1.9850998073E+02	4.1800000000E+00	0.000E+00	0.0
</event>
<event>
    11  -1  1.0000000E+00  1.0000000E+00  -1.0000000E+00  -1.0000000E+00
	2212	-1	0	0	0	0	0.0000000000E+00	0.0000000000E+00	6.5000000000E+03	6.5000000000E+03	9.3827000000E-01	0.000E+00	0.0
	2212	-1	0	0	0	0	0.0000000000E+00	0.0000000000E+00	-6.5000000000E+03	6.5000000000E+03	9.3827000000E-01	0.000E+00	0.0
	2212	1	0	0	0	0	0.0000000000E+00	0.0000000000E+00	6.2293885513E+03	6.2293885513E+03	9.3827000000E-01	0.000E+00	0.0
	2212	1	0	0	0	0	0.0000000000E+00	0.0000000000E+00	-5.4869867745E+03	5.4869867745E+03	9.3827000000E-01	0.000E+00	0.0
	51	2	1	2	0	0	3.0828300145E+01	1.6749087736E+01	-6.0228076317E+02	1.2085135249E+03	1.0471541941E+03	0.000E+00	0.0
	1000022	2	5	5	0	0	-3.0828300145E+01	-1.6749087736E+01	-7.6295306629E+02	1.1519978374E+03	8.6242142835E+02	0.000E+00	0.0
	14	1	6	6	0	0	-8.6799018854E+00	-5.3952900954E+01	-8.8268949485E+00	3.2968040629E+02	3.2500000000E+02	0.000E+00	0.0
	-14	1	6	6	0	0	-2.2148398259E+01	3.7203813218E+01	-7.5412617135E+02	8.2231743115E+02	3.2500000000E+02	0.000E+00	0.0
	25	2	5	5	0	0	3.0828300145E+01	1.6749087736E+01	2.0551289459E+01	1.3162683682E+02	1.2518926728E+02	0.000E+00	0.0
	-5	1	9	9	0	501	-2.5717543650E+01	-2.7543029423E+01	4.1967827766E+01	5.6557771248E+01	4.1800000000E+00	0.000E+00	0.0
	5	1	9	9	501	0	5.6545843794E+01	4.4292117159E+01	-2.1416538307E+01	7.5069065572E+01	4.1800000000E+00	0.000E+00	0.0
</event>
<event>
    11  -1  1.0000000E+00  1.0000000E+00  -1.0000000E+00  -1.0000000E+00
	2212	-1	0	0	0	0	0.0000000000E+00	0.0000000000E+00	6.5000000000E+03	6.5000000000E+03	9.3827000000E-01	0.000E+00	0.0
	2212	-1	0	0	0	0	0.0000000000E+00	0.0000000000E+00	-6.5000000000E+03	6.5000000000E+03	9.3827000000E-01	0.000E+00	0.0
	2212	1	0	0	0	0	0.0000000000E+00	0.0000000000E+00	5.2013539193E+03	5.2013539193E+03	9.3827000000E-01	0.000E+00	0.0
	2212	1	0	0	0	0	0.0000000000E+00	0.0000000000E+00	-6.3003328261E+03	6.3003328261E+03	9.3827000000E-01	0.000E+00	0.0
	51	2	1	2	0	0	-9.8942391648E+01	-3.9530586696E-01	1.1204956434E+03	1.5173952060E+03	1.0184242590E+03	0.000E+00	0.0
	1000022	2	5	5	0	0	9.8942391648E+01	3.9530586696E-01	9.1010168058E+02	1.2510572786E+03	8.5268370001E+02	0.000E+00	0.0
	14	1	6	6	0	0	5.1523456807E+01	1.6667210463E+02	1.3466917300E+02	3.9267676685E+02	3.2500000000E+02	0.000E+00	0.0
	-14	1	6	6	0	0	4.7418934841E+01	-1.6627679876E+02	7.7543250757E+02	8.5838051177E+02	3.2500000000E+02	0.000E+00	0.0
	25	2	5	5	0	0	-9.8942391648E+01	-3.9530586696E-01	1.8887722629E+02	2.4725597601E+02	1.2518449555E+02	0.000E+00	0.0
	-5	1	9	9	0	501	-3.9652597701E+00	1.4710306766E+01	1.3699513367E+02	1.3790306545E+02	4.1800000000E+00	0.000E+00	0.0
	5	1	9	9	501	0	-9.4977131878E+01	-1.5105612633E+01	5.1882092625E+01	1.0935291056E+02	4.1800000000E+00	0.000E+00	0.0
</event>
<event>
    11  -1  1.0000000E+00  1.0000000E+00  -1.0000000E+00  -1.0000000E+00
	2212	-1	0	0	0	0	0.0000000000E+00	0.0000000000E+00	6.5000000000E+03	6.5000000000E+03	9.3827000000E-01	0.000E+00	0.0
	2212	-1	0	0	0	0	0.0000000000E+00	0.0000000000E+00	-6.5000000000E+03	6.5000000000E+03	9.3827000000E-01	0.000E+00	0.0
	2212	1	0	0	0	0	0.0000000000E+00	0.0000000000E+00	6.2422833681E+03	6.2422833681E+03	9.3827000000E-01	0.000E+00	0.0
	2212	1	0	0	0	0	0.0000000000E+00	0.0000000000E+00	-5.4332702351E+03	5.4332702351E+03	9.3827000000E-01	0.000E+00	0.0
	51	2	1	2	0	0	1.2418868313E+02	-4.3957822299E+01	-9.1780287283E+02	1.3997761397E+03	1.0486448440E+03	0.000E+00	0.0
	1000022	2	5	5	0	0	-1.2418868313E+02	4.3957822299E+01	-5.5590768279E+02	1.0128554430E+03	8.3635379919E+02	0.000E+00	0.0
	14	1	6	6	0	0	2.9734411705E+01	-1.1771234579E+02	-1.9970993446E+01	3.4751139862E+02	3.2500000000E+02	0.000E+00	0.0
	-14	1	6	6	0	0	-1.5392309484E+02	1.6167016809E+02	-5.3593668934E+02	6.6534404435E+02	3.2500000000E+02	0.000E+00	0.0
	25	2	5	5	0	0	1.2418868313E+02	-4.3957822299E+01	-2.5310545015E+02	3.1159095384E+02	1.2518560006E+02	0.000E+00	0.0
	-5	1	9	9	0	501	-1.0516600974E+01	1.5522139570E+01	-8.9068869118E+01	9.1116801737E+01	4.1800000000E+00	0.000E+00	0.0
	5	1	9	9	501	0	1.3470528411E+02	-5.9479961869E+01	-1.6403658103E+02	2.2047415211E+02	4.1800000000E+00	0.000E+00	0.0
</event>
<event>
    11  -1  1.0000000E+00  1.0000000E+00  -1.0000000E+00  -1.0000000E+00
	2212	-1	0	0	0	0	0.0000000000E+00	0.0000000000E+00	6.5000000000E+03	6.5000000000E+03	9.3827000000E-01	0.000E+00	0.0
	2212	-1	0	0	0	0	0.0000000000E+00	0.0000000000E+00	-6.5000000000E+03	6.5000000000E+03	9.3827000000E-01	0.000E+00	0.0
	2212	1	0	0	0	0	0.0000000000E+00	0.0000000000E+00	5.8756356905E+03	5.8756356905E+03	9.3827000000E-01	0.000E+00	0.0
	2212	1	0	0	0	0	0.0000000000E+00	0.0000000000E+00	-6.0661793970E+03	6.0661793970E+03	9.3827000000E-01	0.000E+00	0.0
	51	2	1	2	0	0	-6.1063134774E+01	8.2610444440E+01	1.3576580626E+02	1.0547198449E+03	1.0408882769E+03	0.000E+00	0.0
	1000022	2	5	5	0	0	6.1063134774E+01	-8.2610444440E+01	2.1520345137E+02	8.9438873474E+02	8.6201246592E+02	0.000E+00	0.0
	14	1	6	6	0	0	7.0547888737E+01	-2.6429570324E+02	-6.3073291852E+01	4.2945600881E+02	3.2500000000E+02	0.000E+00	0.0
	-14	1	6	6	0	0	-9.4847539630E+00	1.8168525880E+02	2.7827674322E+02	4.6493272593E+02	3.2500000000E+02	0.000E+00	0.0
	25	2	5	5	0	0	-6.1063134774E+01	8.2610444440E+01	-2.4659744841E+01	1.6379617779E+02	1.2517145396E+02	0.000E+00	0.0
	-5	1	9	9	0	501	1.7968543805E+01	-9.9467514671E+00	-3.5825107945E+01	4.1505628420E+01	4.1800000000E+00	0.000E+00	0.0
	5	1	9	9	501	0	-7.9031678579E+01	9.2557195907E+01	1.1165363104E+01	1.2229054938E+02	4.1800000000E+00	0.000E+00	0.0
</event>
<event>
    11  -1  1.0000000E+00  1.0000000E+00  -1.0000000E+00  -1.0000000E+00
	2212	-1	0	0	0	0	0.0000000000E+00	0.0000000000E+00	6.5000000000E+03	6.5000000000E+03	9.3827000000E-01	0.000E+00	0.0
	2212	-1	0	0	0	0	0.0000000000E+00	0.0000000000E+00	-6.5000000000E+03	6.5000000000E+03	9.3827000000E-01	0.000E+00	0.0
	2212	1	0	0	0	0	0.0000000000E+00	0.0000000000E+00	5.4213250737E+03	5.4213250737E+03	9.3827000000E-01	0.000E+00	0.0
	2212	1	0	0	0	0	0.0000000000E+00	0.0000000000E+00	-6.2461159869E+03	6.2461159869E+03	9.3827000000E-01	0.000E+00	0.0
	51	2	1	2	0	0	-3.7539783300E+01	-1.0087002415E+02	9.3869438539E+02	1.4100228448E+03	1.0466294840E+03	0.000E+00	0.0
	1000022	2	5	5	0	0	3.7539783300E+01	1.0087002415E+02	5.7189471242E+02	1.0305338757E+03	8.5050132849E+02	0.000E+00	0.0
	14	1	6	6	0	0	4.1979605401E+01	2.2915914211E+02	5.0751531357E+01	4.0308425623E+02	3.2500000000E+02	0.000E+00	0.0
	-14	1	6	6	0	0	-4.4398221004E+00	-1.2828911796E+02	5.2114318107E+02	6.2744961947E+02	3.2500000000E+02	0.000E+00	0.0
	25	2	5	5	0	0	-3.7539783300E+01	-1.0087002415E+02	2.5289620072E+02	3.0202506374E+02	1.2521443082E+02	0.000E+00	0.0
	-5	1	9	9	0	501	-2.7421041427E+01	1.0282427756E+01	1.4046529970E+02	1.4354655918E+02	4.1800000000E+00	0.000E+00	0.0
	5	1	9	9	501	0	-1.0118741873E+01	-1.1115245191E+02	1.1243090103E+02	1.5847850456E+02	4.1800000000E+00	0.000E+00	0.0
</event>
<event>
    11  -1  1.0000000E+00  1.0000000E+00  -1.0000000E+00  -1.0000000E+00
	2212	-1	0	0	0	0	0.0000000000E+00	0.0000000000E+00	6.5000000000E+03	6.5000000000E+03	9.3827000000E-01	0.000E+00	0.0
	2212	-1	0	0	0	0	0.0000000000E+00	0.0000000000E+00	-6.5000000000E+03	6.5000000000E+03	9.3827000000E-01	0.000E+00	0.0
	2212	1	0	0	0	0	0.0000000000E+00	0.0000000000E+00	5.3741607226E+03	5.3741607226E+03	9.3827000000E-01	0.000E+00	0.0
	2212	1	0	0	0	0	0.0000000000E+00	0.0000000000E+00	-6.2513450992E+03	6.2513450992E+03	9.3827000000E-01	0.000E+00	0.0
	51	2	1	2	0	0	-1.4660025420E+02	-6.0524562508E+01	8.7777357086E+02	1.3839881192E+03	1.0581974368E+03	0.000E+00	0.0
	1000022	2	5	5	0	0	1.4660025420E+02	6.0524562508E+01	7.1882474297E+02	1.1177836243E+03	8.4117558362E+02	0.000E+00	0.0
	14	1	6	6	0	0	-1.1628921347E+02	-1.6061692263E+02	2.7945726234E+02	4.7227358435E+02	3.2500000000E+02	0.000E+00	0.0
	-14	1	6	6	0	0	2.6288946766E+02	2.2114148513E+02	4.3936748063E+02	6.4551003997E+02	3.2500000000E+02	0.000E+00	0.0
	25	2	5	5	0	0	-1.4660025420E+02	-6.0524562508E+01	1.5835963362E+02	2.5671055384E+02	1.2517059438E+02	0.000E+00	0.0
	-5	1	9	9	0	501	-1.2688062945E+02	-1.2639577340E+01	1.6011504491E+02	2.0472604390E+02	4.1800000000E+00	0.000E+00	0.0
	5	1	9	9	501	0	-1.9719624749E+01	-4.7884985168E+01	-1.7554112969E+00	5.1984509939E+01	4.1800000000E+00	0.000E+00	0.0
</event>
<event>
    11  -1  1.0000000E+00  1.0000000E+00  -1.0000000E+00  -1.0000000E+00
	2212	-1	0	0	0	0	0.0000000000E+00	0.0000000000E+00	6.5000000000E+03	6.5000000000E+03	9.3827000000E-01	0.000E+00	0.0
	2212	-1	0	0	0	0	0.0000000000E+00	0.0000000000E+00	-6.5000000000E+03	6.5000000000E+03	9.3827000000E-01	0.000E+00	0.0
	2212	1	0	0	0	0	0.0000000000E+00	0.0000000000E+00	5.0945381044E+03	5.0945381044E+03	9.3827000000E-01	0.000E+00	0.0
	2212	1	0	0	0	0	0.0000000000E+00	0.0000000000E+00	-6.2937570427E+03	6.2937570427E+03	9.3827000000E-01	0.000E+00	0.0
	51	2	1	2	0	0	-7.5442024785E+01	9.2394618068E+01	1.0421786700E+03	1.5032734667E+03	1.0767852482E+03	0.000E+00	0.0
	1000022	2	5	5	0	0	7.5442024785E+01	-9.2394618068E+01	1.1394501899E+03	1.4287531286E+03	8.5367470536E+02	0.000E+00	0.0
	14	1	6	6	0	0	1.9621813614E+02	-9.7680250482E+01	9.6290501652E+02	1.0396413127E+03	3.2500000000E+02	0.000E+00	0.0
	-14	1	6	6	0	0	-1.2077611135E+02	5.2856324143E+00	1.7654517338E+02	3.8911181584E+02	3.2500000000E+02	0.000E+00	0.0
	25	2	5	5	0	0	-7.5442024785E+01	9.2394618068E+01	5.9768748467E+01	1.8295172435E+02	1.2518292854E+02	0.000E+00	0.0
	-5	1	9	9	0	501	-5.1193381846E+01	2.5677513021E+01	-3.2870692521E+01	6.6166848546E+01	4.1800000000E+00	0.000E+00	0.0
	5	1	9	9	501	0	-2.4248642940E+01	6.6717105047E+01	9.2639440988E+01	1.1678487581E+02	4.1800000000E+00	0.000E+00	0.0
</event>
<event>
    11  -1  1.0000000E+00  1.0000000E+00  -1.0000000E+00  -1.0000000E+00
	2212	-1	0	0	0	0	0.0000000000E+00	0.0000000000E+00	6.5000000000E+03	6.5000000000E+03	9.3827000000E-01	0.000E+00	0.0
	2212	-1	0	0	0	0	0.0000000000E+00	0.0000000000E+00	-6.5000000000E+03	6.5000000000E+03	9.3827000000E-01	0.000E+00	0.0
	2212	1	0	0	0	0	0.0000000000E+00	0.0000000000E+00	6.0447906752E+03	6.0447906752E+03	9.3827000000E-01	0.000E+00	0.0
	2212	1	0	0	0	0	0.0000000000E+00	0.0000000000E+00	-5.9495994684E+03	5.9495994684E+03	9.3827000000E-01	0.000E+00	0.0
	51	2	1	2	0	0	-7.2804439780E+00	-1.2156868018E+01	-1.1419507475E+02	1.0076860260E+03	1.0010943100E+03	0.000E+00	0.0
	1000022	2	5	5	0	0	7.2804439780E+00	1.2156868018E+01	-6.4099318967E+01	8.7583458192E+02	8.7337088221E+02	0.000E+00	0.0
	14	1	6	6	0	0	-1.3148751038E+02	2.6412644715E+02	-1.7124517454E+01	4.3928350136E+02	3.2500000000E+02	0.000E+00	0.0
	-14	1	6	6	0	0	1.3876795436E+02	-2.5196957913E+02	-4.6974801513E+01	4.3655108056E+02	3.2500000000E+02	0.000E+00	0.0
	25	2	5	5	0	0	-7.2804439780E+00	-1.2156868018E+01	-3.1091887816E+01	1.2977527452E+02	1.2519633415E+02	0.000E+00	0.0
	-5	1	9	9	0	501	6.0476306346E+00	-6.1309154526E+01	-4.5480193580E+01	7.6689677748E+01	4.1800000000E+00	0.000E+00	0.0
	5	1	9	9	501	0	-1.3328074613E+01	4.9152286508E+01	1.4388305764E+01	5.3085596771E+01	4.1800000000E+00	0.000E+00	0.0
</event>
<event>
    11  -1  1.0000000E+00  1.0000000E+00  -1.0000000E+00  -1.0000000E+00
	2212	-1	0	0	0	0	0.0000000000E+00	0.0000000000E+00	6.5000000000E+03	6.5000000000E+03	9.3827000000E-01	0.000E+00	0.0
	2212	-1	0	0	0	0	0.0000000000E+00	0.0000000000E+00	-6.5000000000E+03	6.5000000000E+03	9.3827000000E-01	0.000E+00	0.0
	2212	1	0	0	0	0	0.0000000000E+00	0.0000000000E+00	6.2494066364E+03	6.2494066364E+03	9.3827000000E-01	0.000E+00	0.0
	2212	1	0	0	0	0	0.0000000000E+00	0.0000000000E+00	-5.4054056836E+03	5.4054056836E+03	9.3827000000E-01	0.000E+00	0.0
	51	2	1	2	0	0	1.0793703875E+02	4.3242846341E+01	-7.3920527135E+02	1.2872983599E+03	1.0474694678E+03	0.000E+00	0.0
	1000022	2	5	5	0	0	-1.0793703875E+02	-4.3242846341E+01	-8.0210364691E+02	1.1692744213E+03	8.4280013274E+02	0.000E+00	0.0
	14	1	6	6	0	0	-2.2855327643E+02	-2.0884224956E+02	-5.4932448457E+02	7.0938993136E+02	3.2500000000E+02	0.000E+00	0.0
	-14	1	6	6	0	0	1.2061623768E+02	1.6559940322E+02	-2.5277916234E+02	4.5988448990E+02	3.2500000000E+02	0.000E+00	0.0
	25	2	5	5	0	0	1.0793703875E+02	4.3242846341E+01	-4.1897305876E+01	1.7591325870E+02	1.2517884108E+02	0.000E+00	0.0
	-5	1	9	9	0	501	1.1809740778E+02	5.5916149509E+01	5.4422191218E-02	1.3073289128E+02	4.1800000000E+00	0.000E+00	0.0
	5	1	9	9	501	0	-1.0160369034E+01	-1.2673303168E+01	-4.1951728068E+01	4.5180367417E+01	4.1800000000E+00	0.000E+00	0.0
</event>
<event>
    11  -1  1.0000000E+00  1.0000000E+00  -1.0000000E+00  -1.0000000E+00
	2212	-1	0	0	0	0	0.0000000000E+00	0.0000000000E+00	6.5000000000E+03	6.5000000000E+03	9.3827000000E-01	0.000E+00	0.0
	2212	-1	0	0	0	0	0.0000000000E+00	0.0000000000E+00	-6.5000000000E+03	6.5000000000E+03	9.3827000000E-01	0.000E+00	0.0
	2212	1	0	0	0	0	0.0000000000E+00	0.0000000000E+00	5.8762841280E+03	5.8762841280E+03	9.3827000000E-01	0.000E+00	0.0
	2212	1	0	0	0	0	0.0000000000E+00	0.0000000000E+00	-6.0582403505E+03	6.0582403505E+03	9.3827000000E-01	0.000E+00	0.0
	51	2	1	2	0	0	-1.3058325903E+02	-3.7664517603E+01	1.5773864330E+02	1.0702719762E+03	1.0498238042E+03	0.000E+00	0.0
	1000022	2	5	5	0	0	1.3058325903E+02	3.7664517603E+01	1.7541807562E+02	8.8058369626E+02	8.5216520783E+02	0.000E+00	0.0
	14	1	6	6	0	0	3.3215523182E+02	7.8058744063E+01	1.5274156923E+02	4.9535366408E+02	3.2500000000E+02	0.000E+00	0.0
	-14	1	6	6	0	0	-2.0157197279E+02	-4.0394226460E+01	2.2676506384E+01	3.8523003217E+02	3.2500000000E+02	0.000E+00	0.0
	25	2	5	5	0	0	-1.3058325903E+02	-3.7664517603E+01	6.5381468965E+00	1.8489182521E+02	1.2518640598E+02	0.000E+00	0.0
	-5	1	9	9	0	501	-6.6806305097E+01	1.6086952930E+01	-4.9086663252E+01	8.4550844848E+01	4.1800000000E+00	0.000E+00	0.0
	5	1	9	9	501	0	-6.3776953929E+01	-5.3751470533E+01	5.5624810149E+01	1.0034098037E+02	4.1800000000E+00	0.000E+00	0.0
</event>
<event>
    11  -1  1.0000000E+00  1.0000000E+00  -1.0000000E+00  -1.0000000E+00
	2212	-1	0	0	0	0	0.0000000000E+00	0.0000000000E+00	6.5000000000E+03	6.5000000000E+03	9.3827000000E-01	0.000E+00	0.0
	2212	-1	0	0	0	0	0.0000000000E+00	0.0000000000E+00	-6.5000000000E+03	6.5000000000E+03	9.3827000000E-01	0.000E+00	0.0
	2212	1	0	0	0	0	0.0000000000E+00	0.0000000000E+00	5.5112251088E+03	5.5112251088E+03	9.3827000000E-01	0.000E+00	0.0
	2212	1	0	0	0	0	0.0000000000E+00	0.0000000000E+00	-6.2225598686E+03	6.2225598686E+03	9.3827000000E-01	0.000E+00	0.0
	51	2	1	2	0	0	-1.9130640878E+01	-1.0899979353E+01	8.8742770232E+02	1.3730681195E+03	1.0475224785E+03	0.000E+00	0.0
	1000022	2	5	5	0	0	1.9130640878E+01	1.0899979353E+01	4.1319945420E+02	9.4211980240E+02	8.4638711128E+02	0.000E+00	0.0
	14	1	6	6	0	0	9.3857612510E+01	5.8971541636E+01	4.8827538730E+02	5.9692943301E+02	3.2500000000E+02	0.000E+00	0.0
	-14	1	6	6	0	0	-7.4726971631E+01	-4.8071562283E+01	-7.5075933097E+01	3.4519036939E+02	3.2500000000E+02	0.000E+00	0.0
	25	2	5	5	0	0	-1.9130640878E+01	-1.0899979353E+01	2.9813530563E+02	3.2409522019E+02	1.2517292164E+02	0.000E+00	0.0
	-5	1	9	9	0	501	5.4688572544E+00	4.9306989072E+01	2.0134178135E+02	2.0740557584E+02	4.1800000000E+00	0.000E+00	0.0
	5	1	9	9	501	0	-2.4599498133E+01	-6.0206968425E+01	9.6793524279E+01	1.1668964435E+02	4.1800000000E+00	0.000E+00	0.0
</event>
<event>
    11  -1  1.0000000E+00  1.0000000E+00  -1.0000000E+00  -1.0000000E+00
	2212	-1	0	0	0	0	0.0000000000E+00	0.0000000000E+00	6.5000000000E+03	6.5000000000E+03	9.3827000000E-01	0.000E+00	0.0
	2212	-1	0	0	0	0	0.0000000000E+00	0.0000000000E+00	-6.5000000000E+03	6.5000000000E+03	9.3827000000E-01	0.000E+00	0.0
	2212	1	0	0	0	0	0.0000000000E+00	0.0000000000E+00	5.2975529965E+03	5.2975529965E+03	9.3827000000E-01	0.000E+00	0.0
	2212	1	0	0	0	0	0.0000000000E+00	0.0000000000E+00	-6.2695241049E+03	6.2695241049E+03	9.3827000000E-01	0.000E+00	0.0
	51	2	1	2	0	0	4.5594200299E+01	-1.3522951136E+02	1.0872459918E+03	1.5202006106E+03	1.0528723560E+03	0.000E+00	0.0
	1000022	2	5	5	0	0	-4.5594200299E+01	1.3522951136E+02	6.7923651488E+02	1.0840262148E+03	8.3269726750E+02	0.000E+00	0.0
	14	1	6	6	0	0	5.2020519170E+01	-1.6173816631E+02	4.4253516998E+02	5.7474145973E+02	3.2500000000E+02	0.000E+00	0.0
	-14	1	6	6	0	0	-9.7614719469E+01	2.9696767767E+02	2.3670134490E+02	5.0928475504E+02	3.2500000000E+02	0.000E+00	0.0
	25	2	5	5	0	0	4.5594200299E+01	-1.3522951136E+02	2.9273459346E+02	3.4889668386E+02	1.2517788124E+02	0.000E+00	0.0
	-5	1	9	9	0	501	4.3046026256E+01	-1.5726314531E+02	2.2794002930E+02	2.8028340408E+02	4.1800000000E+00	0.000E+00	0.0
	5	1	9	9	501	0	2.5481740432E+00	2.2033633946E+01	6.4794564164E+01	6.8613279772E+01	4.1800000000E+00	0.000E+00	0.0
</event>
<event>
    11  -1  1.0000000E+00  1.0000000E+00  -1.0000000E+00  -1.0000000E+00
	2212	-1	0	0	0	0	0.0000000000E+00	0.0000000000E+00	6.5000000000E+03	6.5000000000E+03	9.3827000000E-01	0.000E+00	0.0
	2212	-1	0	0	0	0	0.0000000000E+00	0.0000000000E+00	-6.5000000000E+03	6.5000000000E+03	9.3827000000E-01	0.000E+00	0.0
	2212	1	0	0	0	0	0.0000000000E+00	0.0000000000E+00	5.6406149087E+03	5.6406149087E+03	9.3827000000E-01	0.000E+00	0.0
	2212	1	0	0	0	0	0.0000000000E+00	0.0000000000E+00	-6.1795501798E+03	6.1795501798E+03	9.3827000000E-01	0.000E+00	0.0
	51	2	1	2	0	0	2.1129584516E+01	1.2079146097E+02	4.7232051475E+02	1.1574467145E+03	1.0495519005E+03	0.000E+00	0.0
	1000022	2	5	5	0	0	-2.1129584516E+01	-1.2079146097E+02	5.1446938435E+02	1.0028297337E+03	8.5202798715E+02	0.000E+00	0.0
	14	1	6	6	0	0	1.5589862418E+02	-9.1913060014E+01	4.4439716467E+00	3.7201766155E+02	3.2500000000E+02	0.000E+00	0.0
	-14	1	6	6	0	0	-1.7702820869E+02	-2.8878400958E+01	5.1002541270E+02	6.3081207211E+02	3.2500000000E+02	0.000E+00	0.0
	25	2	5	5	0	0	2.1129584516E+01	1.2079146097E+02	2.4465886745E+01	1.7700517778E+02	1.2528055301E+02	0.000E+00	0.0
	-5	1	9	9	0	501	4.4303367800E+01	1.1363248423E+01	-2.7570297102E+01	5.3567765451E+01	4.1800000000E+00	0.000E+00	0.0
	5	1	9	9	501	0	-2.3173783284E+01	1.0942821255E+02	5.2036183847E+01	1.2343741233E+02	4.1800000000E+00	0.000E+00	0.0
</event>
<event>
    11  -1  1.0000000E+00  1.0000000E+00  -1.0000000E+00  -1.0000000E+00
	2212	-1	0	0	0	0	0.0000000000E+00	0.0000000000E+00	6.5000000000E+03	6.5000000000E+03	9.3827000000E-01	0.000E+00	0.0
	2212	-1	0	0	0	0	0.0000000000E+00	0.0000000000E+00	-6.5000000000E+03	6.5000000000E+03	9.3827000000E-01	0.000E+00	0.0
	2212	1	0	0	0	0	0.0000000000E+00	0.0000000000E+00	5.1412248130E+03	5.1412248130E+03	9.3827000000E-01	0.000E+00	0.0
	2212	1	0	0	0	0	0.0000000000E+00	0.0000000000E+00	-6.2967187013E+03	6.2967187013E+03	9.3827000000E-01	0.000E+00	0.0
	51	2	1	2	0	0	-5.6546901064E+00	-1.1590074080E+02	1.1054436202E+03	1.5298120451E+03	1.0511205158E+03	0.000E+00	0.0
	1000022	2	5	5	0	0	5.6546901064E+00	1.1590074080E+02	1.0208939286E+03	1.3446811846E+03	8.6745496571E+02	0.000E+00	0.0
	14	1	6	6	0	0	2.4234253594E+02	-1.0024783884E+02	5.2136337721E+02	6.6800022830E+02	3.2500000000E+02	0.000E+00	0.0
	-14	1	6	6	0	0	-2.3668784583E+02	2.1614857964E+02	4.9953055136E+02	6.7668095627E+02	3.2500000000E+02	0.000E+00	0.0
	25	2	5	5	0	0	-5.6546901064E+00	-1.1590074080E+02	1.3459995974E+02	2.1737530114E+02	1.2517953166E+02	0.000E+00	0.0
	-5	1	9	9	0	501	1.7663487240E+01	-1.2374813887E+02	6.0014731358E+01	1.3872577639E+02	4.1800000000E+00	0.000E+00	0.0
	5	1	9	9	501	0	-2.3318177347E+01	7.8473980674E+00	7.4585228381E+01	7.8649524753E+01	4.1800000000E+00	0.000E+00	0.0
</event>
<event>
    11  -1  1.0000000E+00  1.0000000E+00  -1.0000000E+00  -1.0000000E+00
	2212	-1	0	0	0	0	0.0000000000E+00	0.0000000000E+00	6.5000000000E+03	6.5000000000E+03	9.3827000000E-01	0.000E+00	0.0
	2212	-1	0	0	0	0	0.0000000000E+00	0.0000000000E+00	-6.5000000000E+03	6.5000000000E+03	9.3827000000E-01	0.000E+00	0.0
	2212	1	0	0	0	0	0.0000000000E+00	0.0000000000E+00	5.7019398204E+03	5.7019398204E+03	9.3827000000E-01	0.000E+00	0.0
	2212	1	0	0	0	0	0.0000000000E+00	0.0000000000E+00	-6.1553567336E+03	6.1553567336E+03	9.3827000000E-01	0.000E+00	0.0
	51	2	1	2	0	0	4.8116385967E+01	1.2785991503E+02	3.9330779918E+02	1.1285116914E+03	1.0488966909E+03	0.000E+00	0.0
	1000022	2	5	5	0	0	-4.8116385967E+01	-1.2785991503E+02	4.3397017331E+02	9.5639816148E+02	8.4125144130E+02	0.000E+00	0.0
	14	1	6	6	0	0	-7.9742875923E+01	5.9861910951E+01	4.6775066984E+02	5.7823703080E+02	3.2500000000E+02	0.000E+00	0.0
	-14	1	6	6	0	0	3.1626489957E+01	-1.8772182598E+02	-3.3780496535E+01	3.7816113068E+02	3.2500000000E+02	0.000E+00	0.0
	25	2	5	5	0	0	4.8116385967E+01	1.2785991503E+02	1.9446739973E+01	1.8630528452E+02	1.2517243656E+02	0.000E+00	0.0
	-5	1	9	9	0	501	-1.9994325181E+01	1.1030541267E+02	-3.4026174175E+00	1.1223238084E+02	4.1800000000E+00	0.000E+00	0.0
	5	1	9	9	501	0	6.8110711148E+01	1.7554502355E+01	2.2849357391E+01	7.4072903677E+01	4.1800000000E+00	0.000E+00	0.0
</event>
<event>
    11  -1  1.0000000E+00  1.0000000E+00  -1.0000000E+00  -1.0000000E+00
	2212	-1	0	0	0	0	0.0000000000E+00	0.0000000000E+00	6.5000000000E+03	6.5000000000E+03	9.3827000000E-01	0.000E+00	0.0
	2212	-1	0	0	0	0	0.0000000000E+00	0.0000000000E+00	-6.5000000000E+03	6.5000000000E+03	9.3827000000E-01	0.000E+00	0.0
	2212	1	0	0	0	0	0.0000000000E+00	0.0000000000E+00	6.1794138044E+03	6.1794138044E+03	9.3827000000E-01	0.000E+00	0.0
	2212	1	0	0	0	0	0.0000000000E+00	0.0000000000E+00	-5.6243713136E+03	5.6243713136E+03	9.3827000000E-01	0.000E+00	0.0
	51	2	1	2	0	0	9.7985181558E-01	1.3168756057E+02	-4.8938913687E+02	1.1746072442E+03	1.0596498842E+03	0.000E+00	0.0
	1000022	2	5	5	0	0	-9.7985181558E-01	-1.3168756057E+02	-5.2523676671E+02	1.0120912978E+03	8.5505120334E+02	0.000E+00	0.0
	14	1	6	6	0	0	-2.3637143407E+02	-1.0229457840E+02	-9.9804709024E+01	4.2652270228E+02	3.2500000000E+02	0.000E+00	0.0
	-14	1	6	6	0	0	2.3539158225E+02	-2.9392982172E+01	-4.2543205769E+02	5.8556859556E+02	3.2500000000E+02	0.000E+00	0.0
	25	2	5	5	0	0	9.7985181558E-01	1.3168756057E+02	-2.9805724116E+01	1.8412358410E+02	1.2518202472E+02	0.000E+00	0.0
	-5	1	9	9	0	501	-4.1151769569E+01	4.3585358728E+01	-5.6833529173E+01	8.2708367608E+01	4.1800000000E+00	0.000E+00	0.0
	5	1	9	9	501	0	4.2131621384E+01	8.8102201847E+01	2.7027805057E+01	1.0141521650E+02	4.1800000000E+00	0.000E+00	0.0
</event>
<event>
    11  -1  1.0000000E+00  1.0000000E+00  -1.0000000E+00  -1.0000000E+00
	2212	-1	0	0	0	0	0.0000000000E+00	0.0000000000E+00	6.5000000000E+03	6.5000000000E+03	9.3827000000E-01	0.000E+00	0.0
	2212	-1	0	0	0	0	0.0000000000E+00	0.0000000000E+00	-6.5000000000E+03	6.5000000000E+03	9.3827000000E-01	0.000E+00	0.0
	2212	1	0	0	0	0	0.0000000000E+00	0.0000000000E+00	5.9107508797E+03	5.9107508797E+03	9.3827000000E-01	0.000E+00	0.0
	2212	1	0	0	0	0	0.0000000000E+00	0.0000000000E+00	-6.0244665891E+03	6.0244665891E+03	9.3827000000E-01	0.000E+00	0.0
	51	2	1	2	0	0	-1.2918698539E+02	5.9158912649E+01	2.0290153653E+02	1.0872849967E+03	1.0586928621E+03	0.000E+00	0.0
	1000022	2	5	5	0	0	1.2918698539E+02	-5.9158912649E+01	3.5361895466E+00	8.4570461086E+02	8.3367543448E+02	0.000E+00	0.0
	14	1	6	6	0	0	2.9553150350E+02	9.2789353538E+01	-2.1272516569E+01	4.4947330694E+02	3.2500000000E+02	0.000E+00	0.0
	-14	1	6	6	0	0	-1.6634451812E+02	-1.5194826619E+02	2.4808706115E+01	3.9623130392E+02	3.2500000000E+02	0.000E+00	0.0
	25	2	5	5	0	0	-1.2918698539E+02	5.9158912649E+01	1.1017951987E+02	2.1907792041E+02	1.2516610753E+02	0.000E+00	0.0
	-5	1	9	9	0	501	-8.9423550745E+01	1.3384074248E+00	1.3778985889E+00	8.9541798992E+01	4.1800000000E+00	0.000E+00	0.0
	5	1	9	9	501	0	-3.9763434645E+01	5.7820505224E+01	1.0880162128E+02	1.2953612142E+02	4.1800000000E+00	0.000E+00	0.0
</event>
<event>
    11  -1  1.0000000E+00  1.0000000E+00  -1.0000000E+00  -1.0000000E+00
	2212	-1	0	0	0	0	0.0000000000E+00	0.0000000000E+00	6.5000000000E+03	6.5000000000E+03	9.3827000000E-01	0.000E+00	0.0
	2212	-1	0	0	0	0	0.0000000000E+00	0.0000000000E+00	-6.5000000000E+03	6.5000000000E+03	9.3827000000E-01	0.000E+00	0.0
	2212	1	0	0	0	0	0.0000000000E+00	0.0000000000E+00	6.1654678141E+03	6.1654678141E+03	9.3827000000E-01	0.000E+00	0.0
	2212	1	0	0	0	0	0.0000000000E+00	0.0000000000E+00	-5.6593438941E+03	5.6593438941E+03	9.3827000000E-01	0.000E+00	0.0
	51	2	1	2	0	0	1.0029176458E+02	6.3777199446E+01	-6.2564816140E+02	1.2371207257E+03	1.0606159054E+03	0.000E+00	0.0
	1000022	2	5	5	0	0	-1.0029176458E+02	-6.3777199446E+01	-2.9623860156E+02	9.0344305220E+02	8.4517812933E+02	0.000E+00	0.0
	14	1	6	6	0	0	-1.9329639374E+01	1.8052423584E+02	-3.1614636585E+02	4.8840163730E+02	3.2500000000E+02	0.000E+00	0.0
	-14	1	6	6	0	0	-8.0962125207E+01	-2.4430143528E+02	1.9907764286E+01	4.1504141490E+02	3.2500000000E+02	0.000E+00	0.0
	25	2	5	5	0	0	1.0029176458E+02	6.3777199446E+01	-2.0988531841E+02	2.7174523961E+02	1.2517052032E+02	0.000E+00	0.0
	-5	1	9	9	0	501	7.7119234754E+01	3.4096145519E+01	-2.1731425685E+02	2.3313704583E+02	4.1800000000E+00	0.000E+00	0.0
	5	1	9	9	501	0	2.3172529827E+01	2.9681053926E+01	7.4289384409E+00	3.8608193782E+01	4.1800000000E+00	0.000E+00	0.0
</event>
<event>
    11  -1  1.0000000E+00  1.0000000E+00  -1.0000000E+00  -1.0000000E+00
	2212	-1	0	0	0	0	0.0000000000E+00	0.0000000000E+00	6.5000000000E+03	6.5000000000E+03	9.3827000000E-01	0.000E+00	0.0
	2212	-1	0	0	0	0	0.0000000000E+00	0.0000000000E+00	-6.5000000000E+03	6.5000000000E+03	9.3827000000E-01	0.000E+00	0.0
	2212	1	0	0	0	0	0.0000000000E+00	0.0000000000E+00	5.8982577978E+03	5.8982577978E+03	9.3827000000E-01	0.000E+00	0.0
	2212	1	0	0	0	0	0.0000000000E+00	0.0000000000E+00	-6.0267801127E+03	6.0267801127E+03	9.3827000000E-01	0.000E+00	0.0
	51	2	1	2	0	0	-4.9361521408E+01	-7.2213426157E+01	2.6296890997E+02	1.1026465866E+03	1.0672513802E+03	0.000E+00	0.0
	1000022	2	5	5	0	0	4.9361521408E+01	7.2213426157E+01	-2.8830005512E+01	8.5569384884E+02	8.5072290142E+02	0.000E+00	0.0
	14	1	6	6	0	0	-2.0685394008E+02	1.5126803428E+02	-1.0626929455E+02	4.2730402957E+02	3.2500000000E+02	0.000E+00	0.0
	-14	1	6	6	0	0	2.5621546148E+02	-7.9054608123E+01	7.7439289033E+01	4.2838981927E+02	3.2500000000E+02	0.000E+00	0.0
	25	2	5	5	0	0	-4.9361521408E+01	-7.2213426157E+01	1.5735232034E+02	2.1926824069E+02	1.2516976451E+02	0.000E+00	0.0
	-5	1	9	9	0	501	2.7450924873E+01	-1.7443223796E+01	-3.2587264673E+00	3.2953164203E+01	4.1800000000E+00	0.000E+00	0.0
	5	1	9	9	501	0	-7.6812446281E+01	-5.4770202361E+01	1.6061104681E+02	1.8631507649E+02	4.1800000000E+00	0.000E+00	0.0
</event>
<event>
    11  -1  1.0000000E+00  1.0000000E+00  -1.0000000E+00  -1.0000000E+00
	2212	-1	0	0	0	0	0.0000000000E+00	0.0000000000E+00	6.5000000000E+03	6.5000000000E+03	9.3827000000E-01	0.000E+00	0.0
	2212	-1	0	0	0	0	0.0000000000E+00	0.0000000000E+00	-6.5000000000E+03	6.5000000000E+03	9.3827000000E-01	0.000E+00	0.0
	2212	1	0	0	0	0	0.0000000000E+00	0.0000000000E+00	6.2735320152E+03	6.2735320152E+03	9.3827000000E-01	0.000E+00	0.0
	2212	1	0	0	0	0	0.0000000000E+00	0.0000000000E+00	-5.3208797883E+03	5.3208797883E+03	9.3827000000E-01	0.000E+00	0.0
	51	2	1	2	0	0	-8.6252251259E+01	-4.3819912339E+01	-1.0725514837E+03	1.4926011636E+03	1.0335046748E+03	0.000E+00	0.0
	1000022	2	5	5	0	0	8.6252251259E+01	4.3819912339E+01	-6.7535662908E+02	1.0863452164E+03	8.4538731784E+02	0.000E+00	0.0
	14	1	6	6	0	0	1.7463125066E+02	-1.9041731598E+02	-2.0767677635E+02	4.6422997681E+02	3.2500000000E+02	0.000E+00	0.0
	-14	1	6	6	0	0	-8.8378999403E+01	2.3423722832E+02	-4.6767985273E+02	6.2211523958E+02	3.2500000000E+02	0.000E+00	0.0
	25	2	5	5	0	0	-8.6252251259E+01	-4.3819912339E+01	-2.7729559782E+02	3.1924298015E+02	1.2515428973E+02	0.000E+00	0.0
	-5	1	9	9	0	501	-4.1131582168E+01	-4.3687343954E+00	-6.7642002565E+00	4.2120300295E+01	4.1800000000E+00	0.000E+00	0.0
	5	1	9	9	501	0	-4.5120669091E+01	-3.9451177943E+01	-2.7053139756E+02	2.7712267985E+02	4.1800000000E+00	0.000E+00	0.0
</event>
<event>
    11  -1  1.0000000E+00  1.0000000E+00  -1.0000000E+00  -1.0000000E+00
	2212	-1	0	0	0	0	0.0000000000E+00	0.0000000000E+00	6.5000000000E+03	6.5000000000E+03	9.3827000000E-01	0.000E+00	0.0
	2212	-1	0	0	0	0	0.0000000000E+00	0.0000000000E+00	-6.5000000000E+03	6.5000000000E+03	9.3827000000E-01	0.000E+00	0.0
	2212	1	0	0	0	0	0.0000000000E+00	0.0000000000E+00	5.8213254996E+03	5.8213254996E+03	9.3827000000E-01	0.000E+00	0.0
	2212	1	0	0	0	0	0.0000000000E+00	0.0000000000E+00	-6.0999982089E+03	6.0999982089E+03	9.3827000000E-01	0.000E+00	0.0
	51	2	1	2	0	0	1.0391647647E+02	-6.2665464638E+01	2.5392874963E+02	1.0793931014E+03	1.0420576102E+03	0.000E+00	0.0
	1000022	2	5	5	0	0	-1.0391647647E+02	6.2665464638E+01	2.5825314857E+02	9.0314215221E+02	8.5688124253E+02	0.000E+00	0.0
	14	1	6	6	0	0	-2.3473958213E+02	2.3400516910E+02	2.1229939022E+02	5.1044796177E+02	3.2500000000E+02	0.000E+00	0.0
	-14	1	6	6	0	0	1.3082310566E+02	-1.7133970446E+02	4.5953758355E+01	3.9269419044E+02	3.2500000000E+02	0.000E+00	0.0
	25	2	5	5	0	0	1.0391647647E+02	-6.2665464638E+01	2.0419560791E+01	1.7553413931E+02	1.2517859666E+02	0.000E+00	0.0
	-5	1	9	9	0	501	1.2865767026E+02	-2.9172580852E+01	9.7695559706E+00	1.3235086782E+02	4.1800000000E+00	0.000E+00	0.0
	5	1	9	9	501	0	-2.4741193782E+01	-3.3492883786E+01	1.0650004820E+01	4.3183271492E+01	4.1800000000E+00	0.000E+00	0.0
</event>
<event>
    11  -1  1.0000000E+00  1.0000000E+00  -1.0000000E+00  -1.0000000E+00
	2212	-1	0	0	0	0	0.0000000000E+00	0.0000000000E+00	6.5000000000E+03	6.5000000000E+03	9.3827000000E-01	0.000E+00	0.0
	2212	-1	0	0	0	0	0.0000000000E+00	0.0000000000E+00	-6.5000000000E+03	6.5000000000E+03	9.3827000000E-01	0.000E+00	0.0
	2212	1	0	0	0	0	0.0000000000E+00	0.0000000000E+00	5.0571659582E+03	5.0571659582E+03	9.3827000000E-01	0.000E+00	0.0
	2212	1	0	0	0	0	0.0000000000E+00	0.0000000000E+00	-6.3095534269E+03	6.3095534269E+03	9.3827000000E-01	0.000E+00	0.0
	51	2	1	2	0	0	-7.0968304063E+01	-8.4299912733E+01	1.4046134848E+03	1.7561928174E+03	1.0483945798E+03	0.000E+00	0.0
	1000022	2	5	5	0	0	7.0968304063E+01	8.4299912733E+01	8.8513683732E+02	1.2299475802E+03	8.4685350199E+02	0.000E+00	0.0
	14	1	6	6	0	0	-8.4499797750E+00	1.2630452414E+01	5.2254661775E+01	3.2952462755E+02	3.2500000000E+02	0.000E+00	0.0
	-14	1	6	6	0	0	7.9418283838E+01	7.1669460319E+01	8.3288217554E+02	9.0042295267E+02	3.2500000000E+02	0.000E+00	0.0
	25	2	5	5	0	0	-7.0968304063E+01	-8.4299912733E+01	3.6725063139E+02	4.0333303459E+02	1.2514605496E+02	0.000E+00	0.0
	-5	1	9	9	0	501	-8.3803400565E+01	-1.0801224496E+02	3.2945174908E+02	3.5671498760E+02	4.1800000000E+00	0.000E+00	0.0
	5	1	9	9	501	0	1.2835096502E+01	2.3712332224E+01	3.7798882301E+01	4.6618046987E+01	4.1800000000E+00	0.000E+00	0.0
</event>
<event>
    11  -1  1.0000000E+00  1.0000000E+00  -1.0000000E+00  -1.0000000E+00
	2212	-1	0	0	0	0	0.0000000000E+00	0.0000000000E+00	6.5000000000E+03	6.5000000000E+03	9.3827000000E-01	0.000E+00	0.0
	2212	-1	0	0	0	0	0.0000000000E+00	0.0000000000E+00	-6.5000000000E+03	6.5000000000E+03	9.3827000000E-01	0.000E+00	0.0
	2212	1	0	0	0	0	0.0000000000E+00	0.0000000000E+00	5.4197832440E+03	5.4197832440E+03	9.3827000000E-01	0.000E+00	0.0
	2212	1	0	0	0	0	0.0000000000E+00	0.0000000000E+00	-6.2371792280E+03	6.2371792280E+03	9.3827000000E-01	0.000E+00	0.0
	51	2	1	2	0	0	-1.0976086571E+02	-1.0251879339E+02	7.5976371090E+02	1.3173503916E+03	1.0656517288E+03	0.000E+00	0.0
	1000022	2	5	5	0	0	1.0976086571E+02	1.0251879339E+02	7.2873750548E+02	1.1283589505E+03	8.4827944604E+02	0.000E+00	0.0
	14	1	6	6	0	0	6.8518126191E+01	6.1472020644E+01	1.0591063177E+01	3.3795075611E+02	3.2500000000E+02	0.000E+00	0.0
	-14	1	6	6	0	0	4.1242739523E+01	4.1046772742E+01	7.1814644230E+02	7.9040819436E+02	3.2500000000E+02	0.000E+00	0.0
	25	2	5	5	0	0	-1.0976086571E+02	-1.0251879339E+02	8.8658478482E+01	2.1467857756E+02	1.2517593705E+02	0.000E+00	0.0
	-5	1	9	9	0	501	1.6135184307E+01	4.7655883365E+00	-1.1927764368E+01	2.1042788970E+01	4.1800000000E+00	0.000E+00	0.0
	5	1	9	9	501	0	-1.2589605002E+02	-1.0728438172E+02	1.0058624285E+02	1.9363578859E+02	4.1800000000E+00	0.000E+00	0.0
</event>
<event>
    11  -1  1.0000000E+00  1.0000000E+00  -1.0000000E+00  -1.0000000E+00
	2212	-1	0	0	0	0	0.0000000000E+00	0.0000000000E+00	6.5000000000E+03	6.5000000000E+03	9.3827000000E-01	0.000E+00	0.0
	2212	-1	0	0	0	0	0.0000000000E+00	0.0000000000E+00	-6.5000000000E+03	6.5000000000E+03	9.3827000000E-01	0.000E+00	0.0
	2212	1	0	0	0	0	0.0000000000E+00	0.0000000000E+00	5.3095724214E+03	5.3095724214E+03	9.3827000000E-01	0.000E+00	0.0
	2212	1	0	0	0	0	0.0000000000E+00	0.0000000000E+00	-6.2701138534E+03	6.2701138534E+03	9.3827000000E-01	0.000E+00	0.0
	51	2	1	2	0	0	-2.0791708392E-01	-6.1916091959E+01	7.9399900132E+02	1.3148837572E+03	1.0462558173E+03	0.000E+00	0.0
	1000022	2	5	5	0	0	2.0791708392E-01	6.1916091959E+01	9.6132521683E+02	1.2806430946E+03	8.4384057598E+02	0.000E+00	0.0
	14	1	6	6	0	0	-1.5043301189E+02	9.6147132634E+01	1.6317445007E+02	4.0512376299E+02	3.2500000000E+02	0.000E+00	0.0
	-14	1	6	6	0	0	1.5064092898E+02	-3.4231040675E+01	7.9815076676E+02	8.7551933166E+02	3.2500000000E+02	0.000E+00	0.0
	25	2	5	5	0	0	-2.0791708392E-01	-6.1916091959E+01	-7.8378480783E-01	1.3967063052E+02	1.2519434907E+02	0.000E+00	0.0
	-5	1	9	9	0	501	1.7229093440E+01	-1.3358756890E+01	5.7549726337E+01	6.1682586261E+01	4.1800000000E+00	0.000E+00	0.0
	5	1	9	9	501	0	-1.7437010524E+01	-4.8557335069E+01	-5.8333511145E+01	7.7988044260E+01	4.1800000000E+00	0.000E+00	0.0
</event>
<event>
    11  -1  1.0000000E+00  1.0000000E+00  -1.0000000E+00  -1.0000000E+00
	2212	-1	0	0	0	0	0.0000000000E+00	0.0000000000E+00	6.5000000000E+03	6.5000000000E+03	9.3827000000E-01	0.000E+00	0.0
	2212	-1	0	0	0	0	0.0000000000E+00	0.0000000000E+00	-6.5000000000E+03	6.5000000000E+03	9.3827000000E-01	0.000E+00	0.0
	2212	1	0	0	0	0	0.0000000000E+00	0.0000000000E+00	6.2765576172E+03	6.2765576172E+03	9.3827000000E-01	0.000E+00	0.0
	2212	1	0	0	0	0	0.0000000000E+00	0.0000000000E+00	-5.3407191842E+03	5.3407191842E+03	9.3827000000E-01	0.000E+00	0.0
	51	2	1	2	0	0	-9.3243575733E+00	7.1764409087E+01	-1.0076202150E+03	1.4341078910E+03	1.0179046475E+03	0.000E+00	0.0
	1000022	2	5	5	0	0	9.3243575733E+00	-7.1764409087E+01	-7.2704931872E+02	1.1289069647E+03	8.6057721846E+02	0.000E+00	0.0
	14	1	6	6	0	0	-1.2080484479E+01	-2.1217324477E+02	-8.8201792584E+01	3.9820595189E+02	3.2500000000E+02	0.000E+00	0.0
	-14	1	6	6	0	0	2.1404842052E+01	1.4040883569E+02	-6.3884752614E+02	7.3070101277E+02	3.2500000000E+02	0.000E+00	0.0
	25	2	5	5	0	0	-9.3243575733E+00	7.1764409087E+01	-2.0878911426E+02	2.5381623399E+02	1.2487078260E+02	0.000E+00	0.0
	-5	1	9	9	0	501	4.8440260206E+01	3.0923632520E+01	-3.8310597776E+01	6.9194683026E+01	4.1800000000E+00	0.000E+00	0.0
	5	1	9	9	501	0	-5.7764617780E+01	4.0840776567E+01	-1.7047851648E+02	1.8462155096E+02	4.1800000000E+00	0.000E+00	0.0
</event>
<event>
    11  -1  1.0000000E+00  1.0000000E+00  -1.0000000E+00  -1.0000000E+00
	2212	-1	0	0	0	0	0.0000000000E+00	0.0000000000E+00	6.5000000000E+03	6.5000000000E+03	9.3827000000E-01	0.000E+00	0.0
	2212	-1	0	0	0	0	0.0000000000E+00	0.0000000000E+00	-6.5000000000E+03	6.5000000000E+03	9.3827000000E-01	0.000E+00	0.0
	2212	1	0	0	0	0	0.0000000000E+00	0.0000000000E+00	6.1383236913E+03	6.1383236913E+03	9.3827000000E-01	0.000E+00	0.0
	2212	1	0	0	0	0	0.0000000000E+00	0.0000000000E+00	-5.7431720188E+03	5.7431720188E+03	9.3827000000E-01	0.000E+00	0.0
	51	2	1	2	0	0	-4.3215575136E+01	-1.4512231471E+02	-2.7070298482E+02	1.0913822339E+03	1.0463780399E+03	0.000E+00	0.0
	1000022	2	5	5	0	0	4.3215575136E+01	1.4512231471E+02	-4.3890455083E+02	9.1721124594E+02	7.9101908496E+02	0.000E+00	0.0
	14	1	6	6	0	0	2.1012739951E+01	2.6560533008E+02	-1.0010553482E+02	4.3201139419E+02	3.2500000000E+02	0.000E+00	0.0
	-14	1	6	6	0	0	2.2202835185E+01	-1.2048301537E+02	-3.3879901602E+02	4.8519985175E+02	3.2500000000E+02	0.000E+00	0.0
	25	2	5	5	0	0	-4.3215575136E+01	-1.4512231471E+02	4.3752878413E+01	2.0129304396E+02	1.2520584258E+02	0.000E+00	0.0
	-5	1	9	9	0	501	-5.7946910284E+01	-1.1430913110E+02	8.0143190047E+01	1.5121119395E+02	4.1800000000E+00	0.000E+00	0.0
	5	1	9	9	501	0	1.4731335148E+01	-3.0813183603E+01	-3.6390311635E+01	5.0081850004E+01	4.1800000000E+00	0.000E+00	0.0
</event>
<event>
    11  -1  1.0000000E+00  1.0000000E+00  -1.0000000E+00  -1.0000000E+00
	2212	-1	0	0	0	0	0.0000000000E+00	0.0000000000E+00	6.5000000000E+03	6.5000000000E+03	9.3827000000E-01	0.000E+00	0.0
	2212	-1	0	0	0	0	0.0000000000E+00	0.0000000000E+00	-6.5000000000E+03	6.5000000000E+03	9.3827000000E-01	0.000E+00	0.0
	2212	1	0	0	0	0	0.0000000000E+00	0.0000000000E+00	4.8223627470E+03	4.8223627470E+03	9.3827000000E-01	0.000E+00	0.0
	2212	1	0	0	0	0	0.0000000000E+00	0.0000000000E+00	-5.4690143761E+03	5.4690143761E+03	9.3827000000E-01	0.000E+00	0.0
	51	2	1	2	0	0	-4.0473511533E+01	-5.7651000539E+02	1.7673654571E+03	3.2211895489E+03	2.6303002794E+03	0.000E+00	0.0
	1000022	2	5	5	0	0	4.0473511533E+01	5.7651000539E+02	-7.0360939020E+02	1.2345542991E+03	8.3370033709E+02	0.000E+00	0.0
	14	1	6	6	0	0	1.5775319053E+02	2.3879381147E+01	-2.3068588352E+02	4.2929858004E+02	3.2500000000E+02	0.000E+00	0.0
	-14	1	6	6	0	0	-1.1727967899E+02	5.5263062424E+02	-4.7292350668E+02	8.0525571909E+02	3.2500000000E+02	0.000E+00	0.0
	25	2	5	5	0	0	-4.0473511533E+01	-5.7651000539E+02	1.3502610193E+03	1.4740685777E+03	1.2518570249E+02	0.000E+00	0.0
	-5	1	9	9	0	501	-7.2797705597E+00	-2.3598925185E+02	7.0814592282E+02	7.4647976695E+02	4.1800000000E+00	0.000E+00	0.0
	5	1	9	9	501	0	-3.3193740974E+01	-3.4052075354E+02	6.4211509651E+02	7.2758881079E+02	4.1800000000E+00	0.000E+00	0.0
</event>
<event>
    11  -1  1.0000000E+00  1.0000000E+00  -1.0000000E+00  -1.0000000E+00
	2212	-1	0	0	0	0	0.0000000000E+00	0.0000000000E+00	6.5000000000E+03	6.5000000000E+03	9.3827000000E-01	0.000E+00	0.0
	2212	-1	0	0	0	0	0.0000000000E+00	0.0000000000E+00	-6.5000000000E+03	6.5000000000E+03	9.3827000000E-01	0.000E+00	0.0
	2212	1	0	0	0	0	0.0000000000E+00	0.0000000000E+00	5.3842303152E+03	5.3842303152E+03	9.3827000000E-01	0.000E+00	0.0
	2212	1	0	0	0	0	0.0000000000E+00	0.0000000000E+00	-6.2554129795E+03	6.2554129795E+03	9.3827000000E-01	0.000E+00	0.0
	51	2	1	2	0	0	5.6903816227E+00	-5.3358574197E+01	7.2989628944E+02	1.2756328791E+03	1.0448019578E+03	0.000E+00	0.0
	1000022	2	5	5	0	0	-5.6903816227E+00	5.3358574197E+01	8.7096914828E+02	1.2241276438E+03	8.5849968733E+02	0.000E+00	0.0
	14	1	6	6	0	0	4.8535090490E+01	-1.8501990227E+02	1.6984589930E+02	4.1359478811E+02	3.2500000000E+02	0.000E+00	0.0
	-14	1	6	6	0	0	-5.4225472113E+01	2.3837847647E+02	7.0112324898E+02	8.1053285567E+02	3.2500000000E+02	0.000E+00	0.0
	25	2	5	5	0	0	5.6903816227E+00	-5.3358574197E+01	2.1351601911E-01	1.3622906147E+02	1.2521498998E+02	0.000E+00	0.0
	-5	1	9	9	0	501	-4.8885617492E+01	5.6074020005E+00	-1.9990490452E+01	5.3276060884E+01	4.1800000000E+00	0.000E+00	0.0
	5	1	9	9	501	0	5.4575999114E+01	-5.8965976197E+01	2.0204006471E+01	8.2953000583E+01	4.1800000000E+00	0.000E+00	0.0
</event>
<event>
    11  -1  1.0000000E+00  1.0000000E+00  -1.0000000E+00  -1.0000000E+00
	2212	-1	0	0	0	0	0.0000000000E+00	0.0000000000E+00	6.5000000000E+03	6.5000000000E+03	9.3827000000E-01	0.000E+00	0.0
	2212	-1	0	0	0	0	0.0000000000E+00	0.0000000000E+00	-6.5000000000E+03	6.5000000000E+03	9.3827000000E-01	0.000E+00	0.0
	2212	1	0	0	0	0	0.0000000000E+00	0.0000000000E+00	4.9482723620E+03	4.9482723620E+03	9.3827000000E-01	0.000E+00	0.0
	2212	1	0	0	0	0	0.0000000000E+00	0.0000000000E+00	-6.3206508091E+03	6.3206508091E+03	9.3827000000E-01	0.000E+00	0.0
	51	2	1	2	0	0	6.6782721393E+01	1.3203829152E+01	1.1988104985E+03	1.5984321286E+03	1.0550850135E+03	0.000E+00	0.0
	1000022	2	5	5	0	0	-6.6782721393E+01	-1.3203829152E+01	1.3205870162E+03	1.5794599970E+03	8.6377632635E+02	0.000E+00	0.0
	14	1	6	6	0	0	-3.1629492481E+02	-5.6034725733E-01	6.2758769005E+02	7.7429587507E+02	3.2500000000E+02	0.000E+00	0.0
	-14	1	6	6	0	0	2.4951220342E+02	-1.2643481895E+01	6.9299932612E+02	8.0516412196E+02	3.2500000000E+02	0.000E+00	0.0
	25	2	5	5	0	0	6.6782721393E+01	1.3203829152E+01	5.1791430927E+01	1.5161683190E+02	1.2518401822E+02	0.000E+00	0.0
	-5	1	9	9	0	501	3.2244380807E+01	2.2929417470E+01	9.0385257880E+01	9.8754369630E+01	4.1800000000E+00	0.000E+00	0.0
	5	1	9	9	501	0	3.4538340586E+01	-9.7255883173E+00	-3.8593826952E+01	5.2862462271E+01	4.1800000000E+00	0.000E+00	0.0
</event>
<event>
    11  -1  1.0000000E+00  1.0000000E+00  -1.0000000E+00  -1.0000000E+00
	2212	-1	0	0	0	0	0.0000000000E+00	0.0000000000E+00	6.5000000000E+03	6.5000000000E+03	9.3827000000E-01	0.000E+00	0.0
	2212	-1	0	0	0	0	0.0000000000E+00	0.0000000000E+00	-6.5000000000E+03	6.5000000000E+03	9.3827000000E-01	0.000E+00	0.0
	2212	1	0	0	0	0	0.0000000000E+00	0.0000000000E+00	6.3407241227E+03	6.3407241227E+03	9.3827000000E-01	0.000E+00	0.0
	2212	1	0	0	0	0	0.0000000000E+00	0.0000000000E+00	-4.8414346462E+03	4.8414346462E+03	9.3827000000E-01	0.000E+00	0.0
	51	2	1	2	0	0	6.6094689248E+01	8.5467933258E+01	-1.4532701537E+03	1.7833522428E+03	1.0279483484E+03	0.000E+00	0.0
	1000022	2	5	5	0	0	-6.6094689248E+01	-8.5467933258E+01	-1.3088517450E+03	1.5656334943E+03	8.5231571165E+02	0.000E+00	0.0
	14	1	6	6	0	0	1.5584925380E+02	-1.1956005406E+02	-9.8216259086E+02	1.0530203945E+03	3.2500000000E+02	0.000E+00	0.0
	-14	1	6	6	0	0	-2.2194394304E+02	3.4092120797E+01	-3.2668915418E+02	5.1261309973E+02	3.2500000000E+02	0.000E+00	0.0
	25	2	5	5	0	0	6.6094689248E+01	8.5467933258E+01	-1.9043773151E+02	2.5220773682E+02	1.2517562609E+02	0.000E+00	0.0
	-5	1	9	9	0	501	7.0431059081E+01	6.0307659294E+01	-4.2605114155E+01	1.0212842898E+02	4.1800000000E+00	0.000E+00	0.0
	5	1	9	9	501	0	-4.3363698337E+00	2.5160273964E+01	-1.4783261735E+02	1.5007930784E+02	4.1800000000E+00	0.000E+00	0.0
</event>
<event>
    11  -1  1.0000000E+00  1.0000000E+00  -1.0000000E+00  -1.0000000E+00
	2212	-1	0	0	0	0	0.0000000000E+00	0.0000000000E+00	6.5000000000E+03	6.5000000000E+03	9.3827000000E-01	0.000E+00	0.0
	2212	-1	0	0	0	0	0.0000000000E+00	0.0000000000E+00	-6.5000000000E+03	6.5000000000E+03	9.3827000000E-01	0.000E+00	0.0
	2212	1	0	0	0	0	0.0000000000E+00	0.0000000000E+00	5.3242400401E+03	5.3242400401E+03	9.3827000000E-01	0.000E+00	0.0
	2212	1	0	0	0	0	0.0000000000E+00	0.0000000000E+00	-6.2608040658E+03	6.2608040658E+03	9.3827000000E-01	0.000E+00	0.0
	51	2	1	2	0	0	3.7568189502E+01	-1.4370729331E+02	9.4152954428E+02	1.4260045743E+03	1.0606356623E+03	0.000E+00	0.0
	1000022	2	5	5	0	0	-3.7568189502E+01	1.4370729331E+02	7.6919177038E+02	1.1585439894E+03	8.5352506743E+02	0.000E+00	0.0
	14	1	6	6	0	0	-1.0342527725E+02	-6.3785331079E+00	7.1279137243E+02	7.9021137316E+02	3.2500000000E+02	0.000E+00	0.0
	-14	1	6	6	0	0	6.5857087752E+01	1.5008582642E+02	5.6400397959E+01	3.6833261624E+02	3.2500000000E+02	0.000E+00	0.0
	25	2	5	5	0	0	3.7568189502E+01	-1.4370729331E+02	1.6737225532E+02	2.5641190475E+02	1.2518162021E+02	0.000E+00	0.0
	-5	1	9	9	0	501	1.9161874131E+00	-2.5695180393E+01	1.2234683933E+02	1.2510050185E+02	4.1800000000E+00	0.000E+00	0.0
	5	1	9	9	501	0	3.5652002089E+01	-1.1801211291E+02	4.5025415989E+01	1.3131140290E+02	4.1800000000E+00	0.000E+00	0.0
</event>
<event>
    11  -1  1.0000000E+00  1.0000000E+00  -1.0000000E+00  -1.0000000E+00
	2212	-1	0	0	0	0	0.0000000000E+00	0.0000000000E+00	6.5000000000E+03	6.5000000000E+03	9.3827000000E-01	0.000E+00	0.0
	2212	-1	0	0	0	0	0.0000000000E+00	0.0000000000E+00	-6.5000000000E+03	6.5000000000E+03	9.3827000000E-01	0.000E+00	0.0
	2212	1	0	0	0	0	0.0000000000E+00	0.0000000000E+00	5.0322533778E+03	5.0322533778E+03	9.3827000000E-01	0.000E+00	0.0
	2212	1	0	0	0	0	0.0000000000E+00	0.0000000000E+00	-6.3101323214E+03	6.3101323214E+03	9.3827000000E-01	0.000E+00	0.0
	51	2	1	2	0	0	-1.1266907712E+02	-9.2783658513E+01	1.3807025106E+03	1.7442342523E+03	1.0557985489E+03	0.000E+00	0.0
	1000022	2	5	5	0	0	1.1266907712E+02	9.2783658513E+01	9.4640813647E+02	1.2744021432E+03	8.4089793300E+02	0.000E+00	0.0
	14	1	6	6	0	0	7.6623306746E+01	3.1177266612E+02	5.6216502183E+02	7.2438100351E+02	3.2500000000E+02	0.000E+00	0.0
	-14	1	6	6	0	0	3.6045770377E+01	-2.1898900760E+02	3.8424311464E+02	5.5002113974E+02	3.2500000000E+02	0.000E+00	0.0
	25	2	5	5	0	0	-1.1266907712E+02	-9.2783658513E+01	3.3147080713E+02	3.8321215760E+02	1.2520197093E+02	0.000E+00	0.0
	-5	1	9	9	0	501	-2.4595721683E+01	-7.0114007959E+01	5.6141485240E+01	9.3221576913E+01	4.1800000000E+00	0.000E+00	0.0
	5	1	9	9	501	0	-8.8073355440E+01	-2.2669650554E+01	2.7532932189E+02	2.8999058069E+02	4.1800000000E+00	0.000E+00	0.0
</event>
<event>
    11  -1  1.0000000E+00  1.0000000E+00  -1.0000000E+00  -1.0000000E+00
	2212	-1	0	0	0	0	0.0000000000E+00	0.0000000000E+00	6.5000000000E+03	6.5000000000E+03	9.3827000000E-01	0.000E+00	0.0
	2212	-1	0	0	0	0	0.0000000000E+00	0.0000000000E+00	-6.5000000000E+03	6.5000000000E+03	9.3827000000E-01	0.000E+00	0.0
	2212	1	0	0	0	0	0.0000000000E+00	0.0000000000E+00	5.6108954179E+03	5.6108954179E+03	9.3827000000E-01	0.000E+00	0.0
	2212	1	0	0	0	0	0.0000000000E+00	0.0000000000E+00	-6.1682601059E+03	6.1682601059E+03	9.3827000000E-01	0.000E+00	0.0
	51	2	1	2	0	0	-9.6329502719E+01	9.7755841371E+01	7.1659761279E+02	1.3084928566E+03	1.0861886758E+03	0.000E+00	0.0
	1000022	2	5	5	0	0	9.6329502719E+01	-9.7755841371E+01	2.8922477508E+02	8.9464762324E+02	8.3540877518E+02	0.000E+00	0.0
	14	1	6	6	0	0	-8.1826031492E+01	-2.3145829931E+01	-1.0151980705E+02	3.5094515255E+02	3.2500000000E+02	0.000E+00	0.0
	-14	1	6	6	0	0	1.7815553421E+02	-7.4610011441E+01	3.9074458213E+02	5.4370247070E+02	3.2500000000E+02	0.000E+00	0.0
	25	2	5	5	0	0	-9.6329502719E+01	9.7755841371E+01	2.6813991294E+02	3.2619685289E+02	1.2517905699E+02	0.000E+00	0.0
	-5	1	9	9	0	501	-7.3560187321E+01	4.1776670689E+01	4.6906480022E+01	9.6819841152E+01	4.1800000000E+00	0.000E+00	0.0
	5	1	9	9	501	0	-2.2769315398E+01	5.5979170682E+01	2.2123343292E+02	2.2937701174E+02	4.1800000000E+00	0.000E+00	0.0
</event>
<event>
    11  -1  1.0000000E+00  1.0000000E+00  -1.0000000E+00  -1.0000000E+00
	2212	-1	0	0	0	0	0.0000000000E+00	0.0000000000E+00	6.5000000000E+03	6.5000000000E+03	9.3827000000E-01	0.000E+00	0.0
	2212	-1	0	0	0	0	0.0000000000E+00	0.0000000000E+00	-6.5000000000E+03	6.5000000000E+03	9.3827000000E-01	0.000E+00	0.0
	2212	1	0	0	0	0	0.0000000000E+00	0.0000000000E+00	5.1146683290E+03	5.1146683290E+03	9.3827000000E-01	0.000E+00	0.0
	2212	1	0	0	0	0	0.0000000000E+00	0.0000000000E+00	-6.3006524169E+03	6.3006524169E+03	9.3827000000E-01	0.000E+00	0.0
	51	2	1	2	0	0	-1.0745895863E+02	-4.6391920075E+01	1.0870172118E+03	1.5165606281E+03	1.0510233498E+03	0.000E+00	0.0
	1000022	2	5	5	0	0	1.0745895863E+02	4.6391920075E+01	1.0851618013E+03	1.3858451071E+03	8.5398529712E+02	0.000E+00	0.0
	14	1	6	6	0	0	2.0637296845E+02	-1.8380828445E+01	9.3017531759E+02	1.0068658195E+03	3.2500000000E+02	0.000E+00	0.0
	-14	1	6	6	0	0	-9.8914009826E+01	6.4772748520E+01	1.5498648375E+02	3.7897928761E+02	3.2500000000E+02	0.000E+00	0.0
	25	2	5	5	0	0	-1.0745895863E+02	-4.6391920075E+01	1.0082228654E+02	1.9883414709E+02	1.2518085535E+02	0.000E+00	0.0
	-5	1	9	9	0	501	8.8161890805E-01	1.2825778269E+01	7.0289864393E+01	7.1578036272E+01	4.1800000000E+00	0.000E+00	0.0
	5	1	9	9	501	0	-1.0834057753E+02	-5.9217698345E+01	3.0532422151E+01	1.2725611082E+02	4.1800000000E+00	0.000E+00	0.0
</event>
<event>
    11  -1  1.0000000E+00  1.0000000E+00  -1.0000000E+00  -1.0000000E+00
	2212	-1	0	0	0	0	0.0000000000E+00	0.0000000000E+00	6.5000000000E+03	6.5000000000E+03	9.3827000000E-01	0.000E+00	0.0
	2212	-1	0	0	0	0	0.0000000000E+00	0.0000000000E+00	-6.5000000000E+03	6.5000000000E+03	9.3827000000E-01	0.000E+00	0.0
	2212	1	0	0	0	0	0.0000000000E+00	0.0000000000E+00	5.4391362348E+03	5.4391362348E+03	9.3827000000E-01	0.000E+00	0.0
	2212	1	0	0	0	0	0.0000000000E+00	0.0000000000E+00	-6.2444878773E+03	6.2444878773E+03	9.3827000000E-01	0.000E+00	0.0
	51	2	1	2	0	0	1.4498254482E+02	7.5954615277E+00	8.7875989271E+02	1.3702374935E+03	1.0412752808E+03	0.000E+00	0.0
	1000022	2	5	5	0	0	-1.4498254482E+02	-7.5954615277E+00	5.8724356912E+02	1.0259972778E+03	8.2869643131E+02	0.000E+00	0.0
	14	1	6	6	0	0	-3.2472979014E+02	-6.0568068118E+01	2.8302631173E+02	5.4299799319E+02	3.2500000000E+02	0.000E+00	0.0
	-14	1	6	6	0	0	1.7974724532E+02	5.2972606591E+01	3.0421725739E+02	4.8299928462E+02	3.2500000000E+02	0.000E+00	0.0
	25	2	5	5	0	0	1.4498254482E+02	7.5954615277E+00	2.1810807330E+02	2.9037861010E+02	1.2518376980E+02	0.000E+00	0.0
	-5	1	9	9	0	501	-7.7313225480E-02	-8.0311229687E+00	-1.3714620739E+01	1.6433749891E+01	4.1800000000E+00	0.000E+00	0.0
	5	1	9	9	501	0	1.4505985804E+02	1.5626584496E+01	2.3182269404E+02	2.7394486020E+02	4.1800000000E+00	0.000E+00	0.0
</event>
<event>
    11  -1  1.0000000E+00  1.0000000E+00  -1.0000000E+00  -1.0000000E+00
	2212	-1	0	0	0	0	0.0000000000E+00	0.0000000000E+00	6.5000000000E+03	6.5000000000E+03	9.3827000000E-01	0.000E+00	0.0
	2212	-1	0	0	0	0	0.0000000000E+00	0.0000000000E+00	-6.5000000000E+03	6.5000000000E+03	9.3827000000E-01	0.000E+00	0.0
	2212	1	0	0	0	0	0.0000000000E+00	0.0000000000E+00	5.5544083705E+03	5.5544083705E+03	9.3827000000E-01	0.000E+00	0.0
	2212	1	0	0	0	0	0.0000000000E+00	0.0000000000E+00	-6.2102849798E+03	6.2102849798E+03	9.3827000000E-01	0.000E+00	0.0
	51	2	1	2	0	0	-1.1662094263E+02	-4.3366103208E+01	5.7540414457E+02	1.2009910012E+03	1.0468086703E+03	0.000E+00	0.0
	1000022	2	5	5	0	0	1.1662094263E+02	4.3366103208E+01	6.2292548292E+02	1.0559953533E+03	8.4356918261E+02	0.000E+00	0.0
	14	1	6	6	0	0	1.1220266466E+02	2.3686075399E+02	5.1431136585E+02	6.6244519455E+02	3.2500000000E+02	0.000E+00	0.0
	-14	1	6	6	0	0	4.4182779669E+00	-1.9349465079E+02	1.0861411707E+02	3.9355015880E+02	3.2500000000E+02	0.000E+00	0.0
	25	2	5	5	0	0	-1.1662094263E+02	-4.3366103208E+01	3.2951126344E+01	1.7931129637E+02	1.2484270548E+02	0.000E+00	0.0
	-5	1	9	9	0	501	-2.7869328956E+01	2.0144060632E+01	-3.6153298769E+01	5.0070111714E+01	4.1800000000E+00	0.000E+00	0.0
	5	1	9	9	501	0	-8.8751613670E+01	-6.3510163840E+01	6.9104425113E+01	1.2924118465E+02	4.1800000000E+00	0.000E+00	0.0
</event>
<event>
    11  -1  1.0000000E+00  1.0000000E+00  -1.0000000E+00  -1.0000000E+00
	2212	-1	0	0	0	0	0.0000000000E+00	0.0000000000E+00	6.5000000000E+03	6.5000000000E+03	9.3827000000E-01	0.000E+00	0.0
	2212	-1	0	0	0	0	0.0000000000E+00	0.0000000000E+00	-6.5000000000E+03	6.5000000000E+03	9.3827000000E-01	0.000E+00	0.0
	2212	1	0	0	0	0	0.0000000000E+00	0.0000000000E+00	6.3227166230E+03	6.3227166230E+03	9.3827000000E-01	0.000E+00	0.0
	2212	1	0	0	0	0	0.0000000000E+00	0.0000000000E+00	-4.9120267464E+03	4.9120267464E+03	9.3827000000E-01	0.000E+00	0.0
	51	2	1	2	0	0	8.6955118360E+01	-1.0818797358E+02	-1.2786197516E+03	1.6673989754E+03	1.0611715431E+03	0.000E+00	0.0
	1000022	2	5	5	0	0	-8.6955118360E+01	1.0818797358E+02	-1.2842173908E+03	1.5395888493E+03	8.3776708438E+02	0.000E+00	0.0
	14	1	6	6	0	0	2.8940341799E+01	3.6679768234E+00	-1.0734988927E+03	1.1219963771E+03	3.2500000000E+02	0.000E+00	0.0
	-14	1	6	6	0	0	-1.1589546016E+02	1.0451999676E+02	-2.1071849809E+02	4.1759247221E+02	3.2500000000E+02	0.000E+00	0.0
	25	2	5	5	0	0	8.6955118360E+01	-1.0818797358E+02	-1.2647248583E+02	2.2566778135E+02	1.2515920913E+02	0.000E+00	0.0
	-5	1	9	9	0	501	1.1705759225E+02	-1.0285019785E+02	-1.0899633556E+02	1.9020598483E+02	4.1800000000E+00	0.000E+00	0.0
	5	1	9	9	501	0	-3.0102473886E+01	-5.3377757329E+00	-1.7476150264E+01	3.5461796512E+01	4.1800000000E+00	0.000E+00	0.0
</event>
<event>
    11  -1  1.0000000E+00  1.0000000E+00  -1.0000000E+00  -1.0000000E+00
	2212	-1	0	0	0	0	0.0000000000E+00	0.0000000000E+00	6.5000000000E+03	6.5000000000E+03	9.3827000000E-01	0.000E+00	0.0
	2212	-1	0	0	0	0	0.0000000000E+00	0.0000000000E+00	-6.5000000000E+03	6.5000000000E+03	9.3827000000E-01	0.000E+00	0.0
	2212	1	0	0	0	0	0.0000000000E+00	0.0000000000E+00	6.3309514820E+03	6.3309514820E+03	9.3827000000E-01	0.000E+00	0.0
	2212	1	0	0	0	0	0.0000000000E+00	0.0000000000E+00	-4.8564564992E+03	4.8564564992E+03	9.3827000000E-01	0.000E+00	0.0
	51	2	1	2	0	0	-8.3408770714E+01	1.3496558085E+02	-1.5185516553E+03	1.8554046010E+03	1.0542079361E+03	0.000E+00	0.0
	1000022	2	5	5	0	0	8.3408770714E+01	-1.3496558085E+02	-1.1636730340E+03	1.4418457263E+03	8.3642778377E+02	0.000E+00	0.0
	14	1	6	6	0	0	-1.1999717621E+02	-2.1813502943E+02	-8.3531018046E+02	9.3024207115E+02	3.2500000000E+02	0.000E+00	0.0
	-14	1	6	6	0	0	2.0340594692E+02	8.3169448580E+01	-3.2836285354E+02	5.1160365519E+02	3.2500000000E+02	0.000E+00	0.0
	25	2	5	5	0	0	-8.3408770714E+01	1.3496558085E+02	-3.1082194875E+02	3.7074629250E+02	1.2517906586E+02	0.000E+00	0.0
	-5	1	9	9	0	501	-8.8959799364E+01	4.3979781033E+01	-2.2290730774E+02	2.4403525828E+02	4.1800000000E+00	0.000E+00	0.0
	5	1	9	9	501	0	5.5510286495E+00	9.0985799820E+01	-8.7914641011E+01	1.2671103422E+02	4.1800000000E+00	0.000E+00	0.0
</event>
<event>
    11  -1  1.0000000E+00  1.0000000E+00  -1.0000000E+00  -1.0000000E+00
	2212	-1	0	0	0	0	0.0000000000E+00	0.0000000000E+00	6.5000000000E+03	6.5000000000E+03	9.3827000000E-01	0.000E+00	0.0
	2212	-1	0	0	0	0	0.0000000000E+00	0.0000000000E+00	-6.5000000000E+03	6.5000000000E+03	9.3827000000E-01	0.000E+00	0.0
	2212	1	0	0	0	0	0.0000000000E+00	0.0000000000E+00	6.2480897903E+03	6.2480897903E+03	9.3827000000E-01	0.000E+00	0.0
	2212	1	0	0	0	0	0.0000000000E+00	0.0000000000E+00	-5.3736574440E+03	5.3736574440E+03	9.3827000000E-01	0.000E+00	0.0
	51	2	1	2	0	0	4.1264273528E+01	-1.1047993628E+02	-7.4713375163E+02	1.3065474188E+03	1.0653397383E+03	0.000E+00	0.0
	1000022	2	5	5	0	0	-4.1264273528E+01	1.1047993628E+02	-8.4559620821E+02	1.2038634570E+03	8.4873182988E+02	0.000E+00	0.0
	14	1	6	6	0	0	-1.6657130495E+01	-2.1753987958E+02	-3.3749691827E+02	5.1684642695E+02	3.2500000000E+02	0.000E+00	0.0
	-14	1	6	6	0	0	-2.4607143033E+01	3.2801981586E+02	-5.0809928993E+02	6.8701703000E+02	3.2500000000E+02	0.000E+00	0.0
	25	2	5	5	0	0	4.1264273528E+01	-1.1047993628E+02	-2.8836138112E+01	1.7438930882E+02	1.2518606783E+02	0.000E+00	0.0
	-5	1	9	9	0	501	1.1472193178E+00	2.4576230961E+01	1.1932113200E+01	2.7661434631E+01	4.1800000000E+00	0.000E+00	0.0
	5	1	9	9	501	0	4.0117054210E+01	-1.3505616725E+02	-4.0768251312E+01	1.4672787419E+02	4.1800000000E+00	0.000E+00	0.0
</event>
<event>
    11  -1  1.0000000E+00  1.0000000E+00  -1.0000000E+00  -1.0000000E+00
	2212	-1	0	0	0	0	0.0000000000E+00	0.0000000000E+00	6.5000000000E+03	6.5000000000E+03	9.3827000000E-01	0.000E+00	0.0
	2212	-1	0	0	0	0	0.0000000000E+00	0.0000000000E+00	-6.5000000000E+03	6.5000000000E+03	9.3827000000E-01	0.000E+00	0.0
	2212	1	0	0	0	0	0.0000000000E+00	0.0000000000E+00	6.0410740692E+03	6.0410740692E+03	9.3827000000E-01	0.000E+00	0.0
	2212	1	0	0	0	0	0.0000000000E+00	0.0000000000E+00	-5.9119026968E+03	5.9119026968E+03	9.3827000000E-01	0.000E+00	0.0
	51	2	1	2	0	0	1.2806943396E+01	-1.0896205312E+02	-1.8462899006E+02	1.0609886993E+03	1.0390247394E+03	0.000E+00	0.0
	1000022	2	5	5	0	0	-1.2806943396E+01	1.0896205312E+02	-5.2846316012E+01	8.6391275814E+02	8.5528695404E+02	0.000E+00	0.0
	14	1	6	6	0	0	-1.9198228551E+02	1.7232287252E+02	1.4381078772E+02	4.3915704823E+02	3.2500000000E+02	0.000E+00	0.0
	-14	1	6	6	0	0	1.7917534211E+02	-6.3360819395E+01	-1.9665710373E+02	4.2475570991E+02	3.2500000000E+02	0.000E+00	0.0
	25	2	5	5	0	0	1.2806943396E+01	-1.0896205312E+02	-7.6325056379E+01	1.8311047590E+02	1.2516862759E+02	0.000E+00	0.0
	-5	1	9	9	0	501	2.1099756161E+01	-1.3556593580E+02	-7.0610046241E+01	1.5435858800E+02	4.1800000000E+00	0.000E+00	0.0
	5	1	9	9	501	0	-8.2928127648E+00	2.6603882677E+01	-5.7150101379E+00	2.8751887901E+01	4.1800000000E+00	0.000E+00	0.0
</event>
<event>
    11  -1  1.0000000E+00  1.0000000E+00  -1.0000000E+00  -1.0000000E+00
	2212	-1	0	0	0	0	0.0000000000E+00	0.0000000000E+00	6.5000000000E+03	6.5000000000E+03	9.3827000000E-01	0.000E+00	0.0
	2212	-1	0	0	0	0	0.0000000000E+00	0.0000000000E+00	-6.5000000000E+03	6.5000000000E+03	9.3827000000E-01	0.000E+00	0.0
	2212	1	0	0	0	0	0.0000000000E+00	0.0000000000E+00	5.0480241620E+03	5.0480241620E+03	9.3827000000E-01	0.000E+00	0.0
	2212	1	0	0	0	0	0.0000000000E+00	0.0000000000E+00	-6.2823423150E+03	6.2823423150E+03	9.3827000000E-01	0.000E+00	0.0
	51	2	1	2	0	0	6.0922967275E+01	1.5081585013E+02	1.0616440359E+03	1.5548890268E+03	1.1243374930E+03	0.000E+00	0.0
	1000022	2	5	5	0	0	-6.0922967275E+01	-1.5081585013E+02	1.1610564306E+03	1.4517063160E+03	8.5612041457E+02	0.000E+00	0.0
	14	1	6	6	0	0	-1.0066970793E+01	-3.3090723471E+02	4.4223010994E+02	6.4093167501E+02	3.2500000000E+02	0.000E+00	0.0
	-14	1	6	6	0	0	-5.0855996482E+01	1.8009138458E+02	7.1882632067E+02	8.1077464099E+02	3.2500000000E+02	0.000E+00	0.0
	25	2	5	5	0	0	6.0922967275E+01	1.5081585013E+02	7.3261722390E+01	2.1792720695E+02	1.2517171793E+02	0.000E+00	0.0
	-5	1	9	9	0	501	8.1138568497E+01	1.3402111107E+02	1.9491695164E+01	1.5793202364E+02	4.1800000000E+00	0.000E+00	0.0
	5	1	9	9	501	0	-2.0215601223E+01	1.6794739064E+01	5.3770027226E+01	5.9995183314E+01	4.1800000000E+00	0.000E+00	0.0
</event>
<event>
    11  -1  1.0000000E+00  1.0000000E+00  -1.0000000E+00  -1.0000000E+00
	2212	-1	0	0	0	0	0.0000000000E+00	0.0000000000E+00	6.5000000000E+03	6.5000000000E+03	9.3827000000E-01	0.000E+00	0.0
	2212	-1	0	0	0	0	0.0000000000E+00	0.0000000000E+00	-6.5000000000E+03	6.5000000000E+03	9.3827000000E-01	0.000E+00	0.0
	2212	1	0	0	0	0	0.0000000000E+00	0.0000000000E+00	6.1652915902E+03	6.1652915902E+03	9.3827000000E-01	0.000E+00	0.0
	2212	1	0	0	0	0	0.0000000000E+00	0.0000000000E+00	-5.6622847652E+03	5.6622847652E+03	9.3827000000E-01	0.000E+00	0.0
	51	2	1	2	0	0	-8.4204222603E+01	-7.0876696857E+00	-3.6804671611E+02	1.1243488372E+03	1.0590379296E+03	0.000E+00	0.0
	1000022	2	5	5	0	0	8.4204222603E+01	7.0876696857E+00	-5.4953824472E+02	1.0143861670E+03	8.4843763898E+02	0.000E+00	0.0
	14	1	6	6	0	0	1.0109382529E+01	-2.6090985634E+02	-2.0188323785E+02	4.6320405274E+02	3.2500000000E+02	0.000E+00	0.0
	-14	1	6	6	0	0	7.4094840074E+01	2.6799752603E+02	-3.4765500687E+02	5.5118211426E+02	3.2500000000E+02	0.000E+00	0.0
	25	2	5	5	0	0	-8.4204222603E+01	-7.0876696857E+00	4.6531419729E+01	1.5803747754E+02	1.2518021058E+02	0.000E+00	0.0
	-5	1	9	9	0	501	-5.5837424227E+00	-1.8062561598E+01	7.2005002296E+01	7.4562906774E+01	4.1800000000E+00	0.000E+00	0.0
	5	1	9	9	501	0	-7.8620480180E+01	1.0974891912E+01	-2.5473582567E+01	8.3474570769E+01	4.1800000000E+00	0.000E+00	0.0
</event>
<event>
    11  -1  1.0000000E+00  1.0000000E+00  -1.0000000E+00  -1.0000000E+00
	2212	-1	0	0	0	0	0.0000000000E+00	0.0000000000E+00	6.5000000000E+03	6.5000000000E+03	9.3827000000E-01	0.000E+00	0.0
	2212	-1	0	0	0	0	0.0000000000E+00	0.0000000000E+00	-6.5000000000E+03	6.5000000000E+03	9.3827000000E-01	0.000E+00	0.0
	2212	1	0	0	0	0	0.0000000000E+00	0.0000000000E+00	6.2955264408E+03	6.2955264408E+03	9.3827000000E-01	0.000E+00	0.0
	2212	1	0	0	0	0	0.0000000000E+00	0.0000000000E+00	-5.1484001617E+03	5.1484001617E+03	9.3827000000E-01	0.000E+00	0.0
	51	2	1	2	0	0	1.0040293783E+02	-9.2068393538E+00	-1.0262011309E+03	1.4726574603E+03	1.0514112984E+03	0.000E+00	0.0
	1000022	2	5	5	0	0	-1.0040293783E+02	9.2068393538E+00	-1.0773930273E+03	1.3808617804E+03	8.5781000548E+02	0.000E+00	0.0
	14	1	6	6	0	0	-1.4874362379E+02	1.3309127112E+01	-9.7208743598E+02	1.0357995857E+03	3.2500000000E+02	0.000E+00	0.0
	-14	1	6	6	0	0	4.8340685959E+01	-4.1022877584E+00	-1.0530559135E+02	3.4506219476E+02	3.2500000000E+02	0.000E+00	0.0
	25	2	5	5	0	0	1.0040293783E+02	-9.2068393538E+00	-6.9733251739E+01	1.7521161712E+02	1.2518333978E+02	0.000E+00	0.0
	-5	1	9	9	0	501	-2.2965406792E+01	1.4933391909E+01	-3.5163166685E+01	4.4769820129E+01	4.1800000000E+00	0.000E+00	0.0
	5	1	9	9	501	0	1.2336834462E+02	-2.4140231263E+01	-3.4570085054E+01	1.3044179699E+02	4.1800000000E+00	0.000E+00	0.0
</event>
<event>
    11  -1  1.0000000E+00  1.0000000E+00  -1.0000000E+00  -1.0000000E+00
	2212	-1	0	0	0	0	0.0000000000E+00	0.0000000000E+00	6.5000000000E+03	6.5000000000E+03	9.3827000000E-01	0.000E+00	0.0
	2212	-1	0	0	0	0	0.0000000000E+00	0.0000000000E+00	-6.5000000000E+03	6.5000000000E+03	9.3827000000E-01	0.000E+00	0.0
	2212	1	0	0	0	0	0.0000000000E+00	0.0000000000E+00	4.9561719901E+03	4.9561719901E+03	9.3827000000E-01	0.000E+00	0.0
	2212	1	0	0	0	0	0.0000000000E+00	0.0000000000E+00	-6.3222070164E+03	6.3222070164E+03	9.3827000000E-01	0.000E+00	0.0
	51	2	1	2	0	0	3.6081228411E+01	-4.6255279387E+01	1.5858958327E+03	1.9016924436E+03	1.0478201907E+03	0.000E+00	0.0
	1000022	2	5	5	0	0	-3.6081228411E+01	4.6255279387E+01	9.1394905501E+02	1.2488749696E+03	8.4908445312E+02	0.000E+00	0.0
	14	1	6	6	0	0	1.6814421497E+02	-1.2117770148E+02	2.3585750742E+02	4.5189631131E+02	3.2500000000E+02	0.000E+00	0.0
	-14	1	6	6	0	0	-2.0422544338E+02	1.6743298087E+02	6.7809154759E+02	7.9697865825E+02	3.2500000000E+02	0.000E+00	0.0
	25	2	5	5	0	0	3.6081228411E+01	-4.6255279387E+01	4.5208597125E+02	4.7274602388E+02	1.2516258135E+02	0.000E+00	0.0
	-5	1	9	9	0	501	2.9209691206E+01	1.0603385850E+01	2.0737572009E+01	3.7591982452E+01	4.1800000000E+00	0.000E+00	0.0
	5	1	9	9	501	0	6.8715372053E+00	-5.6858665238E+01	4.3134839924E+02	4.3515404142E+02	4.1800000000E+00	0.000E+00	0.0
</event>
<event>
    11  -1  1.0000000E+00  1.0000000E+00  -1.0000000E+00  -1.0000000E+00
	2212	-1	0	0	0	0	0.0000000000E+00	0.0000000000E+00	6.5000000000E+03	6.5000000000E+03	9.3827000000E-01	0.000E+00	0.0
	2212	-1	0	0	0	0	0.0000000000E+00	0.0000000000E+00	-6.5000000000E+03	6.5000000000E+03	9.3827000000E-01	0.000E+00	0.0
	2212	1	0	0	0	0	0.0000000000E+00	0.0000000000E+00	6.2691878909E+03	6.2691878909E+03	9.3827000000E-01	0.000E+00	0.0
	2212	1	0	0	0	0	0.0000000000E+00	0.0000000000E+00	-5.3047607014E+03	5.3047607014E+03	9.3827000000E-01	0.000E+00	0.0
	51	2	1	2	0	0	-3.2482084138E+01	1.3542444709E+02	-1.0108453180E+03	1.4644814568E+03	1.0504774218E+03	0.000E+00	0.0
	1000022	2	5	5	0	0	3.2482084138E+01	-1.3542444709E+02	-7.5298682129E+02	1.1436110283E+03	8.4938928905E+02	0.000E+00	0.0
	14	1	6	6	0	0	-1.0608136170E+02	-7.9766269875E+01	-4.9640537615E+01	3.5454914481E+02	3.2500000000E+02	0.000E+00	0.0
	-14	1	6	6	0	0	1.3856344584E+02	-5.5658177217E+01	-7.0334628367E+02	7.8906188348E+02	3.2500000000E+02	0.000E+00	0.0
	25	2	5	5	0	0	-3.2482084138E+01	1.3542444709E+02	-2.1144036815E+02	2.8244037939E+02	1.2518255457E+02	0.000E+00	0.0
	-5	1	9	9	0	501	-8.0560590804E+01	8.5597009610E+01	-1.2557788024E+02	1.7205851694E+02	4.1800000000E+00	0.000E+00	0.0
	5	1	9	9	501	0	4.8078506665E+01	4.9827437482E+01	-8.5862487908E+01	1.1038186245E+02	4.1800000000E+00	0.000E+00	0.0
</event>
<event>
    11  -1  1.0000000E+00  1.0000000E+00  -1.0000000E+00  -1.0000000E+00
	2212	-1	0	0	0	0	0.0000000000E+00	0.0000000000E+00	6.5000000000E+03	6.5000000000E+03	9.3827000000E-01	0.000E+00	0.0
	2212	-1	0	0	0	0	0.0000000000E+00	0.0000000000E+00	-6.5000000000E+03	6.5000000000E+03	9.3827000000E-01	0.000E+00	0.0
	2212	1	0	0	0	0	0.0000000000E+00	0.0000000000E+00	6.0033269446E+03	6.0033269446E+03	9.3827000000E-01	0.000E+00	0.0
	2212	1	0	0	0	0	0.0000000000E+00	0.0000000000E+00	-5.9456119953E+03	5.9456119953E+03	9.3827000000E-01	0.000E+00	0.0
	51	2	1	2	0	0	6.4352918708E+01	1.8249530257E+01	-1.8558241744E+02	1.0678546314E+03	1.0494752673E+03	0.000E+00	0.0
	1000022	2	5	5	0	0	-6.4352918708E+01	-1.8249530257E+01	8.0092867537E+01	8.5324136499E+02	8.4683623919E+02	0.000E+00	0.0
	14	1	6	6	0	0	-1.3169640462E+01	2.0264811083E+02	2.0900454207E+02	4.3651757681E+02	3.2500000000E+02	0.000E+00	0.0
	-14	1	6	6	0	0	-5.1183278246E+01	-2.2089764109E+02	-1.2891167453E+02	4.1672378819E+02	3.2500000000E+02	0.000E+00	0.0
	25	2	5	5	0	0	6.4352918708E+01	1.8249530257E+01	-1.3780781690E+02	1.9781969508E+02	1.2516906113E+02	0.000E+00	0.0
	-5	1	9	9	0	501	1.9102955750E+01	4.7264499204E+01	-1.3439092284E+02	1.4379585650E+02	4.1800000000E+00	0.000E+00	0.0
	5	1	9	9	501	0	4.5249962958E+01	-2.9014968947E+01	-3.4168940561E+00	5.4023838587E+01	4.1800000000E+00	0.000E+00	0.0
</event>
<event>
    11  -1  1.0000000E+00  1.0000000E+00  -1.0000000E+00  -1.0000000E+00
	2212	-1	0	0	0	0	0.0000000000E+00	0.0000000000E+00	6.5000000000E+03	6.5000000000E+03	9.3827000000E-01	0.000E+00	0.0
	2212	-1	0	0	0	0	0.0000000000E+00	0.0000000000E+00	-6.5000000000E+03	6.5000000000E+03	9.3827000000E-01	0.000E+00	0.0
	2212	1	0	0	0	0	0.0000000000E+00	0.0000000000E+00	6.0124456167E+03	6.0124456167E+03	9.3827000000E-01	0.000E+00	0.0
	2212	1	0	0	0	0	0.0000000000E+00	0.0000000000E+00	-5.9540909277E+03	5.9540909277E+03	9.3827000000E-01	0.000E+00	0.0
	51	2	1	2	0	0	-7.9591239636E+01	4.1406954358E+01	-4.5234924255E+01	1.0366952031E+03	1.0318146367E+03	0.000E+00	0.0
	1000022	2	5	5	0	0	7.9591239636E+01	-4.1406954358E+01	-6.2956355795E+01	8.7937591286E+02	8.7251887778E+02	0.000E+00	0.0
	14	1	6	6	0	0	2.5047467649E+02	2.0618330762E+01	-2.3044560098E+02	4.7105504364E+02	3.2500000000E+02	0.000E+00	0.0
	-14	1	6	6	0	0	-1.7088343686E+02	-6.2025285121E+01	1.6748924519E+02	4.0832086922E+02	3.2500000000E+02	0.000E+00	0.0
	25	2	5	5	0	0	-7.9591239636E+01	4.1406954358E+01	4.6016667540E+00	1.5408754279E+02	1.2518983269E+02	0.000E+00	0.0
	-5	1	9	9	0	501	-6.8266563222E+00	6.6125724565E+01	-2.5673110251E+01	7.1384842059E+01	4.1800000000E+00	0.000E+00	0.0
	5	1	9	9	501	0	-7.2764583314E+01	-2.4718770207E+01	3.0274777005E+01	8.2702700730E+01	4.1800000000E+00	0.000E+00	0.0
</event>
<event>
    11  -1  1.0000000E+00  1.0000000E+00  -1.0000000E+00  -1.0000000E+00
	2212	-1	0	0	0	0	0.0000000000E+00	0.0000000000E+00	6.5000000000E+03	6.5000000000E+03	9.3827000000E-01	0.000E+00	0.0
	2212	-1	0	0	0	0	0.0000000000E+00	0.0000000000E+00	-6.5000000000E+03	6.5000000000E+03	9.3827000000E-01	0.000E+00	0.0
	2212	1	0	0	0	0	0.0000000000E+00	0.0000000000E+00	6.3365711923E+03	6.3365711923E+03	9.3827000000E-01	0.000E+00	0.0
	2212	1	0	0	0	0	0.0000000000E+00	0.0000000000E+00	-4.8367149845E+03	4.8367149845E+03	9.3827000000E-01	0.000E+00	0.0
	51	2	1	2	0	0	7.4683789017E+01	3.8542312176E+01	-1.7052964714E+03	2.0006034044E+03	1.0427438554E+03	0.000E+00	0.0
	1000022	2	5	5	0	0	-7.4683789017E+01	-3.8542312176E+01	-1.0393007713E+03	1.3421128483E+03	8.4501930531E+02	0.000E+00	0.0
	14	1	6	6	0	0	-2.9915760259E+02	-3.9319865223E+01	-6.5511791883E+02	7.9110417175E+02	3.2500000000E+02	0.000E+00	0.0
	-14	1	6	6	0	0	2.2447381357E+02	7.7755304675E-01	-3.8418285244E+02	5.5100867659E+02	3.2500000000E+02	0.000E+00	0.0
	25	2	5	5	0	0	7.4683789017E+01	3.8542312176E+01	-4.6055543648E+02	4.8460097490E+02	1.2515437119E+02	0.000E+00	0.0
	-5	1	9	9	0	501	8.0765148669E+01	7.5970131051E+01	-3.0901008485E+02	3.2832784681E+02	4.1800000000E+00	0.000E+00	0.0
	5	1	9	9	501	0	-6.0813596527E+00	-3.7427818875E+01	-1.5154535163E+02	1.5627312809E+02	4.1800000000E+00	0.000E+00	0.0
</event>
<event>
    11  -1  1.0000000E+00  1.0000000E+00  -1.0000000E+00  -1.0000000E+00
	2212	-1	0	0	0	0	0.0000000000E+00	0.0000000000E+00	6.5000000000E+03	6.5000000000E+03	9.3827000000E-01	0.000E+00	0.0
	2212	-1	0	0	0	0	0.0000000000E+00	0.0000000000E+00	-6.5000000000E+03	6.5000000000E+03	9.3827000000E-01	0.000E+00	0.0
	2212	1	0	0	0	0	0.0000000000E+00	0.0000000000E+00	5.5952041380E+03	5.5952041380E+03	9.3827000000E-01	0.000E+00	0.0
	2212	1	0	0	0	0	0.0000000000E+00	0.0000000000E+00	-4.1162614723E+03	4.1162614723E+03	9.3827000000E-01	0.000E+00	0.0
	51	2	1	2	0	0	-1.1058498244E+03	7.2761219595E+01	-7.7252515531E+02	3.2329831686E+03	2.9372073512E+03	0.000E+00	0.0
	1000022	2	5	5	0	0	1.1058498244E+03	-7.2761219595E+01	-1.6527477847E+03	2.1597840106E+03	8.3957947994E+02	0.000E+00	0.0
	14	1	6	6	0	0	1.9287773471E+02	-1.5977757161E+02	-5.9296984334E+02	7.2108871025E+02	3.2500000000E+02	0.000E+00	0.0
	-14	1	6	6	0	0	9.1297208972E+02	8.7016352012E+01	-1.0597779414E+03	1.4386953003E+03	3.2500000000E+02	0.000E+00	0.0
	25	2	5	5	0	0	-1.1058498244E+03	7.2761219595E+01	1.7380511898E+02	1.1287503791E+03	1.2518454274E+02	0.000E+00	0.0
	-5	1	9	9	0	501	-1.9691973342E+02	-1.6356479964E+01	-6.8314114451E+00	1.9776009817E+02	4.1800000000E+00	0.000E+00	0.0
	5	1	9	9	501	0	-9.0893009101E+02	8.9117699559E+01	1.8063653042E+02	9.3099028096E+02	4.1800000000E+00	0.000E+00	0.0
</event>
<event>
    11  -1  1.0000000E+00  1.0000000E+00  -1.0000000E+00  -1.0000000E+00
	2212	-1	0	0	0	0	0.0000000000E+00	0.0000000000E+00	6.5000000000E+03	6.5000000000E+03	9.3827000000E-01	0.000E+00	0.0
	2212	-1	0	0	0	0	0.0000000000E+00	0.0000000000E+00	-6.5000000000E+03	6.5000000000E+03	9.3827000000E-01	0.000E+00	0.0
	2212	1	0	0	0	0	0.0000000000E+00	0.0000000000E+00	6.2517950680E+03	6.2517950680E+03	9.3827000000E-01	0.000E+00	0.0
	2212	1	0	0	0	0	0.0000000000E+00	0.0000000000E+00	-5.3916609171E+03	5.3916609171E+03	9.3827000000E-01	0.000E+00	0.0
	51	2	1	2	0	0	-8.0652754689E+01	6.9082870735E+01	-7.3947056439E+02	1.2878178956E+03	1.0489904227E+03	0.000E+00	0.0
	1000022	2	5	5	0	0	8.0652754689E+01	-6.9082870735E+01	-8.3157193772E+02	1.1899215375E+03	8.4446673589E+02	0.000E+00	0.0
	14	1	6	6	0	0	2.5109153363E+02	1.2555969647E+02	-4.9457822163E+02	6.5501512421E+02	3.2500000000E+02	0.000E+00	0.0
	-14	1	6	6	0	0	-1.7043877894E+02	-1.9464256720E+02	-3.3699371609E+02	5.3490641333E+02	3.2500000000E+02	0.000E+00	0.0
	25	2	5	5	0	0	-8.0652754689E+01	6.9082870735E+01	-2.8562213112E+01	1.6662247733E+02	1.2517963119E+02	0.000E+00	0.0
	-5	1	9	9	0	501	-1.0442920773E+01	7.6503348645E+01	2.1159895524E+01	8.0168762786E+01	4.1800000000E+00	0.000E+00	0.0
	5	1	9	9	501	0	-7.0209833916E+01	-7.4204779098E+00	-4.9722108636E+01	8.6453714542E+01	4.1800000000E+00	0.000E+00	0.0
</event>
<event>
    11  -1  1.0000000E+00  1.0000000E+00  -1.0000000E+00  -1.0000000E+00
	2212	-1	0	0	0	0	0.0000000000E+00	0.0000000000E+00	6.5000000000E+03	6.5000000000E+03	9.3827000000E-01	0.000E+00	0.0
	2212	-1	0	0	0	0	0.0000000000E+00	0.0000000000E+00	-6.5000000000E+03	6.5000000000E+03	9.3827000000E-01	0.000E+00	0.0
	2212	1	0	0	0	0	0.0000000000E+00	0.0000000000E+00	6.2447430288E+03	6.2447430288E+03	9.3827000000E-01	0.000E+00	0.0
	2212	1	0	0	0	0	0.0000000000E+00	0.0000000000E+00	-5.4188555965E+03	5.4188555965E+03	9.3827000000E-01	0.000E+00	0.0
	51	2	1	2	0	0	-1.1337673077E+02	7.3758303674E+01	-7.7660609599E+02	1.3135030195E+03	1.0506562632E+03	0.000E+00	0.0
	1000022	2	5	5	0	0	1.1337673077E+02	-7.3758303674E+01	-7.3365842307E+02	1.1303161990E+03	8.4915573224E+02	0.000E+00	0.0
	14	1	6	6	0	0	1.4994042047E+02	-1.1429277790E+02	-6.0158527806E+01	3.8051152051E+02	3.2500000000E+02	0.000E+00	0.0
	-14	1	6	6	0	0	-3.6563689696E+01	4.0534474226E+01	-6.7349989526E+02	7.4980467851E+02	3.2500000000E+02	0.000E+00	0.0
	25	2	5	5	0	0	-1.1337673077E+02	7.3758303674E+01	-9.2229009255E+01	2.0608517569E+02	1.2518122483E+02	0.000E+00	0.0
	-5	1	9	9	0	501	-5.6724262888E+01	9.2402123233E+01	-1.6740735475E+01	1.0978851945E+02	4.1800000000E+00	0.000E+00	0.0
	5	1	9	9	501	0	-5.6652467887E+01	-1.8643819559E+01	-7.5488273780E+01	9.6296656244E+01	4.1800000000E+00	0.000E+00	0.0
</event>
<event>
    11  -1  1.0000000E+00  1.0000000E+00  -1.0000000E+00  -1.0000000E+00
	2212	-1	0	0	0	0	0.0000000000E+00	0.0000000000E+00	6.5000000000E+03	6.5000000000E+03	9.3827000000E-01	0.000E+00	0.0
	2212	-1	0	0	0	0	0.0000000000E+00	0.0000000000E+00	-6.5000000000E+03	6.5000000000E+03	9.3827000000E-01	0.000E+00	0.0
	2212	1	0	0	0	0	0.0000000000E+00	0.0000000000E+00	5.8363530875E+03	5.8363530875E+03	9.3827000000E-01	0.000E+00	0.0
	2212	1	0	0	0	0	0.0000000000E+00	0.0000000000E+00	-6.0931932888E+03	6.0931932888E+03	9.3827000000E-01	0.000E+00	0.0
	51	2	1	2	0	0	-7.2924602441E+01	9.7534200965E+01	1.9941839952E+02	1.0651303618E+03	1.0391843299E+03	0.000E+00	0.0
	1000022	2	5	5	0	0	7.2924602441E+01	-9.7534200965E+01	2.7094339858E+02	8.9523444341E+02	8.4451374496E+02	0.000E+00	0.0
	14	1	6	6	0	0	-2.1718167520E+02	-5.0126146982E+01	3.0201916265E+01	3.9524380628E+02	3.2500000000E+02	0.000E+00	0.0
	-14	1	6	6	0	0	2.9010627764E+02	-4.7408053983E+01	2.4074148232E+02	4.9999063713E+02	3.2500000000E+02	0.000E+00	0.0
	25	2	5	5	0	0	-7.2924602441E+01	9.7534200965E+01	-1.4103197256E+01	1.7521918031E+02	1.2518763109E+02	0.000E+00	0.0
	-5	1	9	9	0	501	-7.8507079694E+01	4.2988621399E+00	8.0154051826E+00	7.9142661681E+01	4.1800000000E+00	0.000E+00	0.0
	5	1	9	9	501	0	5.5824772528E+00	9.3235338825E+01	-2.2118602439E+01	9.6076518630E+01	4.1800000000E+00	0.000E+00	0.0
</event>
<event>
    11  -1  1.0000000E+00  1.0000000E+00  -1.0000000E+00  -1.0000000E+00
	2212	-1	0	0	0	0	0.0000000000E+00	0.0000000000E+00	6.5000000000E+03	6.5000000000E+03	9.3827000000E-01	0.000E+00	0.0
	2212	-1	0	0	0	0	0.0000000000E+00	0.0000000000E+00	-6.5000000000E+03	6.5000000000E+03	9.3827000000E-01	0.000E+00	0.0
	2212	1	0	0	0	0	0.0000000000E+00	0.0000000000E+00	6.2059718676E+03	6.2059718676E+03	9.3827000000E-01	0.000E+00	0.0
	2212	1	0	0	0	0	0.0000000000E+00	0.0000000000E+00	-5.5794530697E+03	5.5794530697E+03	9.3827000000E-01	0.000E+00	0.0
	51	2	1	2	0	0	8.8596837573E+01	2.7931315873E+01	-5.2441175469E+02	1.1688900827E+03	1.0405127481E+03	0.000E+00	0.0
	1000022	2	5	5	0	0	-8.8596837573E+01	-2.7931315873E+01	-6.2464451693E+02	1.0586808984E+03	8.4970283871E+02	0.000E+00	0.0
	14	1	6	6	0	0	6.6200975468E+01	-2.5349010837E+02	-3.9988175772E+02	5.7807458373E+02	3.2500000000E+02	0.000E+00	0.0
	-14	1	6	6	0	0	-1.5479781304E+02	2.2555879249E+02	-2.2476275921E+02	4.8060631469E+02	3.2500000000E+02	0.000E+00	0.0
	25	2	5	5	0	0	8.8596837573E+01	2.7931315873E+01	-1.8742808951E+00	1.5589416428E+02	1.2517954902E+02	0.000E+00	0.0
	-5	1	9	9	0	501	6.1905315404E+01	-4.4294488571E+01	1.3067166029E+01	7.7346577307E+01	4.1800000000E+00	0.000E+00	0.0
	5	1	9	9	501	0	2.6691522169E+01	7.2225804444E+01	-1.4941446924E+01	7.8547586975E+01	4.1800000000E+00	0.000E+00	0.0
</event>
<event>
    11  -1  1.0000000E+00  1.0000000E+00  -1.0000000E+00  -1.0000000E+00
	2212	-1	0	0	0	0	0.0000000000E+00	0.0000000000E+00	6.5000000000E+03	6.5000000000E+03	9.3827000000E-01	0.000E+00	0.0
	2212	-1	0	0	0	0	0.0000000000E+00	0.0000000000E+00	-6.5000000000E+03	6.5000000000E+03	9.3827000000E-01	0.000E+00	0.0
	2212	1	0	0	0	0	0.0000000000E+00	0.0000000000E+00	6.2152605506E+03	6.2152605506E+03	9.3827000000E-01	0.000E+00	0.0
	2212	1	0	0	0	0	0.0000000000E+00	0.0000000000E+00	-5.5556540887E+03	5.5556540887E+03	9.3827000000E-01	0.000E+00	0.0
	51	2	1	2	0	0	-3.3566205613E+01	-1.2429540784E+02	-6.2667236168E+02	1.2185501330E+03	1.0370969768E+03	0.000E+00	0.0
	1000022	2	5	5	0	0	3.3566205613E+01	1.2429540784E+02	-5.8187535026E+02	1.0334112807E+03	8.4426530980E+02	0.000E+00	0.0
	14	1	6	6	0	0	-1.5013115631E+02	-1.0787142582E+02	-4.2637438000E+02	5.6709410200E+02	3.2500000000E+02	0.000E+00	0.0
	-14	1	6	6	0	0	1.8369736192E+02	2.3216683366E+02	-1.5550097026E+02	4.6631717873E+02	3.2500000000E+02	0.000E+00	0.0
	25	2	5	5	0	0	-3.3566205613E+01	-1.2429540784E+02	-7.7731111621E+01	1.9567407995E+02	1.2518059467E+02	0.000E+00	0.0
	-5	1	9	9	0	501	3.4351373732E+01	-3.3268597384E+00	-3.7570560527E+01	5.1186954308E+01	4.1800000000E+00	0.000E+00	0.0
	5	1	9	9	501	0	-6.7917579345E+01	-1.2096854810E+02	-4.0160551094E+01	1.4448712564E+02	4.1800000000E+00	0.000E+00	0.0
</event>
<event>
    11  -1  1.0000000E+00  1.0000000E+00  -1.0000000E+00  -1.0000000E+00
	2212	-1	0	0	0	0	0.0000000000E+00	0.0000000000E+00	6.5000000000E+03	6.5000000000E+03	9.3827000000E-01	0.000E+00	0.0
	2212	-1	0	0	0	0	0.0000000000E+00	0.0000000000E+00	-6.5000000000E+03	6.5000000000E+03	9.3827000000E-01	0.000E+00	0.0
	2212	1	0	0	0	0	0.0000000000E+00	0.0000000000E+00	6.1632174435E+03	6.1632174435E+03	9.3827000000E-01	0.000E+00	0.0
	2212	1	0	0	0	0	0.0000000000E+00	0.0000000000E+00	-5.6778329643E+03	5.6778329643E+03	9.3827000000E-01	0.000E+00	0.0
	51	2	1	2	0	0	-1.0284651887E+02	-2.4325663008E+01	-3.8765084469E+02	1.1265027236E+03	1.0524096467E+03	0.000E+00	0.0
	1000022	2	5	5	0	0	1.0284651887E+02	2.4325663008E+01	-5.0061848682E+02	9.9441259954E+02	8.5268306213E+02	0.000E+00	0.0
	14	1	6	6	0	0	2.4122119178E+02	1.6149321264E+02	-1.0839861753E+02	4.4904674743E+02	3.2500000000E+02	0.000E+00	0.0
	-14	1	6	6	0	0	-1.3837467291E+02	-1.3716754964E+02	-3.9221986929E+02	5.4536585211E+02	3.2500000000E+02	0.000E+00	0.0
	25	2	5	5	0	0	-1.0284651887E+02	-2.4325663008E+01	1.5234007654E+01	1.6453699261E+02	1.2518467407E+02	0.000E+00	0.0
	-5	1	9	9	0	501	1.9116744481E+01	-3.6259439611E+01	3.0249034330E+00	4.1313669907E+01	4.1800000000E+00	0.000E+00	0.0
	5	1	9	9	501	0	-1.2196326335E+02	1.1933776602E+01	1.2209104221E+01	1.2322332270E+02	4.1800000000E+00	0.000E+00	0.0
</event>
<event>
    11  -1  1.0000000E+00  1.0000000E+00  -1.0000000E+00  -1.0000000E+00
	2212	-1	0	0	0	0	0.0000000000E+00	0.0000000000E+00	6.5000000000E+03	6.5000000000E+03	9.3827000000E-01	0.000E+00	0.0
	2212	-1	0	0	0	0	0.0000000000E+00	0.0000000000E+00	-6.5000000000E+03	6.5000000000E+03	9.3827000000E-01	0.000E+00	0.0
	2212	1	0	0	0	0	0.0000000000E+00	0.0000000000E+00	5.4309190831E+03	5.4309190831E+03	9.3827000000E-01	0.000E+00	0.0
	2212	1	0	0	0	0	0.0000000000E+00	0.0000000000E+00	-6.2410990035E+03	6.2410990035E+03	9.3827000000E-01	0.000E+00	0.0
	51	2	1	2	0	0	6.5271328869E+01	1.3526376570E+02	8.1387658611E+02	1.3386919694E+03	1.0522093227E+03	0.000E+00	0.0
	1000022	2	5	5	0	0	-6.5271328869E+01	-1.3526376570E+02	6.6413057944E+02	1.0839387750E+03	8.4338437783E+02	0.000E+00	0.0
	14	1	6	6	0	0	-2.0605240556E+01	-3.0099531842E+02	1.8602796375E+02	4.8088892787E+02	3.2500000000E+02	0.000E+00	0.0
	-14	1	6	6	0	0	-4.4666088314E+01	1.6573155273E+02	4.7810261570E+02	6.0304984715E+02	3.2500000000E+02	0.000E+00	0.0
	25	2	5	5	0	0	6.5271328869E+01	1.3526376570E+02	1.4604934096E+02	2.4404313833E+02	1.2517991328E+02	0.000E+00	0.0
	-5	1	9	9	0	501	-3.0160974286E+01	7.7755231952E+01	5.3856725227E+01	9.9365888100E+01	4.1800000000E+00	0.000E+00	0.0
	5	1	9	9	501	0	9.5432303155E+01	5.7508533746E+01	9.2192615730E+01	1.4467725023E+02	4.1800000000E+00	0.000E+00	0.0
</event>
<event>
    11  -1  1.0000000E+00  1.0000000E+00  -1.0000000E+00  -1.0000000E+00
	2212	-1	0	0	0	0	0.0000000000E+00	0.0000000000E+00	6.5000000000E+03	6.5000000000E+03	9.3827000000E-01	0.000E+00	0.0
	2212	-1	0	0	0	0	0.0000000000E+00	0.0000000000E+00	-6.5000000000E+03	6.5000000000E+03	9.3827000000E-01	0.000E+00	0.0
	2212	1	0	0	0	0	0.0000000000E+00	0.0000000000E+00	5.5730049502E+03	5.5730049502E+03	9.3827000000E-01	0.000E+00	0.0
	2212	1	0	0	0	0	0.0000000000E+00	0.0000000000E+00	-6.2027019072E+03	6.2027019072E+03	9.3827000000E-01	0.000E+00	0.0
	51	2	1	2	0	0	-1.6753049776E+00	-1.3292053052E+02	5.4986120364E+02	1.1926413789E+03	1.0499406846E+03	0.000E+00	0.0
	1000022	2	5	5	0	0	1.6753049776E+00	1.3292053052E+02	5.9792754639E+02	1.0389557092E+03	8.3919064638E+02	0.000E+00	0.0
	14	1	6	6	0	0	1.2024874171E+02	2.9760349033E+02	2.4653090481E+02	5.1906655100E+02	3.2500000000E+02	0.000E+00	0.0
	-14	1	6	6	0	0	-1.1857343674E+02	-1.6468295981E+02	3.5139664158E+02	5.1988915825E+02	3.2500000000E+02	0.000E+00	0.0
	25	2	5	5	0	0	-1.6753049776E+00	-1.3292053052E+02	3.1769410679E+01	1.8533743332E+02	1.2517984923E+02	0.000E+00	0.0
	-5	1	9	9	0	501	2.9137690762E+01	-1.1597373726E+02	-2.1304970708E+01	1.2153306930E+02	4.1800000000E+00	0.000E+00	0.0
	5	1	9	9	501	0	-3.0812995739E+01	-1.6946793261E+01	5.3074381387E+01	6.3804364019E+01	4.1800000000E+00	0.000E+00	0.0
</event>
<event>
    11  -1  1.0000000E+00  1.0000000E+00  -1.0000000E+00  -1.0000000E+00
	2212	-1	0	0	0	0	0.0000000000E+00	0.0000000000E+00	6.5000000000E+03	6.5000000000E+03	9.3827000000E-01	0.000E+00	0.0
	2212	-1	0	0	0	0	0.0000000000E+00	0.0000000000E+00	-6.5000000000E+03	6.5000000000E+03	9.3827000000E-01	0.000E+00	0.0
	2212	1	0	0	0	0	0.0000000000E+00	0.0000000000E+00	6.2673545865E+03	6.2673545865E+03	9.3827000000E-01	0.000E+00	0.0
	2212	1	0	0	0	0	0.0000000000E+00	0.0000000000E+00	-5.2945507899E+03	5.2945507899E+03	9.3827000000E-01	0.000E+00	0.0
	51	2	1	2	0	0	1.0719188501E+02	-7.6140587110E+01	-8.8445436090E+02	1.3861154085E+03	1.0591359308E+03	0.000E+00	0.0
	1000022	2	5	5	0	0	-1.0719188501E+02	7.6140587110E+01	-8.9140442740E+02	1.2391343949E+03	8.5062606719E+02	0.000E+00	0.0
	14	1	6	6	0	0	9.2048796094E+01	8.4997994923E+01	-1.0278046485E+02	3.6316176004E+02	3.2500000000E+02	0.000E+00	0.0
	-14	1	6	6	0	0	-1.9924068111E+02	-8.8574078132E+00	-7.8862396255E+02	8.7597263484E+02	3.2500000000E+02	0.000E+00	0.0
	25	2	5	5	0	0	1.0719188501E+02	-7.6140587110E+01	-8.1399369243E+01	1.9896022877E+02	1.2518716428E+02	0.000E+00	0.0
	-5	1	9	9	0	501	8.3159606037E+01	7.2983742749E+00	-7.4137979842E+01	1.1172599876E+02	4.1800000000E+00	0.000E+00	0.0
	5	1	9	9	501	0	2.4032278977E+01	-8.3438961385E+01	-7.2613894006E+00	8.7234230012E+01	4.1800000000E+00	0.000E+00	0.0
</event>
<event>
    11  -1  1.0000000E+00  1.0000000E+00  -1.0000000E+00  -1.0000000E+00
	2212	-1	0	0	0	0	0.0000000000E+00	0.0000000000E+00	6.5000000000E+03	6.5000000000E+03	9.3827000000E-01	0.000E+00	0.0
	2212	-1	0	0	0	0	0.0000000000E+00	0.0000000000E+00	-6.5000000000E+03	6.5000000000E+03	9.3827000000E-01	0.000E+00	0.0
	2212	1	0	0	0	0	0.0000000000E+00	0.0000000000E+00	5.9987977865E+03	5.9987977865E+03	9.3827000000E-01	0.000E+00	0.0
	2212	1	0	0	0	0	0.0000000000E+00	0.0000000000E+00	-5.9652750765E+03	5.9652750765E+03	9.3827000000E-01	0.000E+00	0.0
	51	2	1	2	0	0	-4.6533262228E+01	9.6928483553E+01	-1.0009653354E+02	1.0457538202E+03	1.0353845957E+03	0.000E+00	0.0
	1000022	2	5	5	0	0	4.6533262228E+01	-9.6928483553E+01	3.8560088880E+01	8.5586072697E+02	8.4820411936E+02	0.000E+00	0.0
	14	1	6	6	0	0	-3.3502518244E+01	-3.0432813197E+02	9.9397206166E+01	4.5743068899E+02	3.2500000000E+02	0.000E+00	0.0
	-14	1	6	6	0	0	8.0035780472E+01	2.0739964842E+02	-6.0837117286E+01	3.9843003797E+02	3.2500000000E+02	0.000E+00	0.0
	25	2	5	5	0	0	-4.6533262228E+01	9.6928483553E+01	-7.2082798851E+01	1.8006641004E+02	1.2516991138E+02	0.000E+00	0.0
	-5	1	9	9	0	501	-4.5385883114E+01	1.2667256595E+02	-6.3224367397E+01	1.4872999154E+02	4.1800000000E+00	0.000E+00	0.0
	5	1	9	9	501	0	-1.1473791136E+00	-2.9744082396E+01	-8.8584314536E+00	3.1336418497E+01	4.1800000000E+00	0.000E+00	0.0
</event>
<event>
    11  -1  1.0000000E+00  1.0000000E+00  -1.0000000E+00  -1.0000000E+00
	2212	-1	0	0	0	0	0.0000000000E+00	0.0000000000E+00	6.5000000000E+03	6.5000000000E+03	9.3827000000E-01	0.000E+00	0.0
	2212	-1	0	0	0	0	0.0000000000E+00	0.0000000000E+00	-6.5000000000E+03	6.5000000000E+03	9.3827000000E-01	0.000E+00	0.0
	2212	1	0	0	0	0	0.0000000000E+00	0.0000000000E+00	6.1542802325E+03	6.1542802325E+03	9.3827000000E-01	0.000E+00	0.0
	2212	1	0	0	0	0	0.0000000000E+00	0.0000000000E+00	-5.7263346671E+03	5.7263346671E+03	9.3827000000E-01	0.000E+00	0.0
	51	2	1	2	0	0	5.2205310664E+00	5.2201829682E+01	-3.0106072405E+02	1.0785524746E+03	1.0343527425E+03	0.000E+00	0.0
	1000022	2	5	5	0	0	-5.2205310664E+00	-5.2201829682E+01	-4.8319638139E+02	9.7284328596E+02	8.4272951241E+02	0.000E+00	0.0
	14	1	6	6	0	0	-2.6516817723E+02	6.9595915967E+00	-1.9121804977E+02	4.6103355701E+02	3.2500000000E+02	0.000E+00	0.0
	-14	1	6	6	0	0	2.5994764616E+02	-5.9161421279E+01	-2.9197833162E+02	5.1180972895E+02	3.2500000000E+02	0.000E+00	0.0
	25	2	5	5	0	0	5.2205310664E+00	5.2201829682E+01	5.5250815958E+01	1.4654181439E+02	1.2517813600E+02	0.000E+00	0.0
	-5	1	9	9	0	501	2.0474280102E+01	-6.4453727868E+00	-3.2890788230E+01	3.9497029337E+01	4.1800000000E+00	0.000E+00	0.0
	5	1	9	9	501	0	-1.5253749036E+01	5.8647202469E+01	8.8141604188E+01	1.0704478505E+02	4.1800000000E+00	0.000E+00	0.0
</event>
<event>
    11  -1  1.0000000E+00  1.0000000E+00  -1.0000000E+00  -1.0000000E+00
	2212	-1	0	0	0	0	0.0000000000E+00	0.0000000000E+00	6.5000000000E+03	6.5000000000E+03	9.3827000000E-01	0.000E+00	0.0
	2212	-1	0	0	0	0	0.0000000000E+00	0.0000000000E+00	-6.5000000000E+03	6.5000000000E+03	9.3827000000E-01	0.000E+00	0.0
	2212	1	0	0	0	0	0.0000000000E+00	0.0000000000E+00	6.0510926262E+03	6.0510926262E+03	9.3827000000E-01	0.000E+00	0.0
	2212	1	0	0	0	0	0.0000000000E+00	0.0000000000E+00	-5.8930538109E+03	5.8930538109E+03	9.3827000000E-01	0.000E+00	0.0
	51	2	1	2	0	0	5.5823889625E+00	-4.3717083133E+01	-2.7987374306E+01	1.0452636599E+03	1.0439590410E+03	0.000E+00	0.0
	1000022	2	5	5	0	0	-5.5823889625E+00	4.3717083133E+01	-2.6133211024E+02	8.8767292972E+02	8.4718735348E+02	0.000E+00	0.0
	14	1	6	6	0	0	-2.6347555594E+02	9.7074962953E+01	-1.1672710171E+02	4.4507654767E+02	3.2500000000E+02	0.000E+00	0.0
	-14	1	6	6	0	0	2.5789316698E+02	-5.3357879820E+01	-1.4460500853E+02	4.4259638205E+02	3.2500000000E+02	0.000E+00	0.0
	25	2	5	5	0	0	5.5823889625E+00	-4.3717083133E+01	1.0329329499E+02	1.6818063322E+02	1.2519135024E+02	0.000E+00	0.0
	-5	1	9	9	0	501	2.0945844909E+01	-2.2207404440E+01	1.2806172839E+02	1.3171627048E+02	4.1800000000E+00	0.000E+00	0.0
	5	1	9	9	501	0	-1.5363455946E+01	-2.1509678693E+01	-2.4768433406E+01	3.6464362732E+01	4.1800000000E+00	0.000E+00	0.0
</event>
<event>
    11  -1  1.0000000E+00  1.0000000E+00  -1.0000000E+00  -1.0000000E+00
	2212	-1	0	0	0	0	0.0000000000E+00	0.0000000000E+00	6.5000000000E+03	6.5000000000E+03	9.3827000000E-01	0.000E+00	0.0
	2212	-1	0	0	0	0	0.0000000000E+00	0.0000000000E+00	-6.5000000000E+03	6.5000000000E+03	9.3827000000E-01	0.000E+00	0.0
	2212	1	0	0	0	0	0.0000000000E+00	0.0000000000E+00	6.2185163379E+03	6.2185163379E+03	9.3827000000E-01	0.000E+00	0.0
	2212	1	0	0	0	0	0.0000000000E+00	0.0000000000E+00	-5.5286916203E+03	5.5286916203E+03	9.3827000000E-01	0.000E+00	0.0
	51	2	1	2	0	0	-6.8936978803E+01	-3.8649150695E+01	-8.3357108488E+02	1.3396703238E+03	1.0457675453E+03	0.000E+00	0.0
	1000022	2	5	5	0	0	6.8936978803E+01	3.8649150695E+01	-4.2857053593E+02	9.5250758436E+02	8.4696630990E+02	0.000E+00	0.0
	14	1	6	6	0	0	-6.6397376600E+01	-1.0211488247E+02	-4.5520038851E+02	5.7242331761E+02	3.2500000000E+02	0.000E+00	0.0
	-14	1	6	6	0	0	1.3533435540E+02	1.4076403317E+02	2.6629852581E+01	3.8008426675E+02	3.2500000000E+02	0.000E+00	0.0
	25	2	5	5	0	0	-6.8936978803E+01	-3.8649150695E+01	-2.6125418166E+02	3.0028445740E+02	1.2518364120E+02	0.000E+00	0.0
	-5	1	9	9	0	501	-9.0149996062E+01	-5.1904636423E+01	-1.2973429651E+02	1.6634173608E+02	4.1800000000E+00	0.000E+00	0.0
	5	1	9	9	501	0	2.1213017259E+01	1.3255485728E+01	-1.3151988515E+02	1.3394272131E+02	4.1800000000E+00	0.000E+00	0.0
</event>
<event>
    11  -1  1.0000000E+00  1.0000000E+00  -1.0000000E+00  -1.0000000E+00
	2212	-1	0	0	0	0	0.0000000000E+00	0.0000000000E+00	6.5000000000E+03	6.5000000000E+03	9.3827000000E-01	0.000E+00	0.0
	2212	-1	0	0	0	0	0.0000000000E+00	0.0000000000E+00	-6.5000000000E+03	6.5000000000E+03	9.3827000000E-01	0.000E+00	0.0
	2212	1	0	0	0	0	0.0000000000E+00	0.0000000000E+00	5.1873377391E+03	5.1873377391E+03	9.3827000000E-01	0.000E+00	0.0
	2212	1	0	0	0	0	0.0000000000E+00	0.0000000000E+00	-6.2893004882E+03	6.2893004882E+03	9.3827000000E-01	0.000E+00	0.0
	51	2	1	2	0	0	3.0573107061E+01	-5.4334024896E+01	9.2672809732E+02	1.4032181077E+03	1.0518123360E+03	0.000E+00	0.0
	1000022	2	5	5	0	0	-3.0573107061E+01	5.4334024896E+01	1.0886742732E+03	1.3828896173E+03	8.5046170947E+02	0.000E+00	0.0
	14	1	6	6	0	0	-1.4287276287E+02	-1.5306791577E+02	7.9941452817E+02	8.8799268074E+02	3.2500000000E+02	0.000E+00	0.0
	-14	1	6	6	0	0	1.1229965581E+02	2.0740194066E+02	2.8925974506E+02	4.9489693654E+02	3.2500000000E+02	0.000E+00	0.0
	25	2	5	5	0	0	3.0573107061E+01	-5.4334024896E+01	1.3288475921E+01	1.4047215546E+02	1.2517564352E+02	0.000E+00	0.0
	-5	1	9	9	0	501	3.4710740944E+01	-8.9520507094E+01	3.0545591264E+01	1.0084276014E+02	4.1800000000E+00	0.000E+00	0.0
	5	1	9	9	501	0	-4.1376338831E+00	3.5186482198E+01	-1.7257115342E+01	3.9629395322E+01	4.1800000000E+00	0.000E+00	0.0
</event>
<event>
    11  -1  1.0000000E+00  1.0000000E+00  -1.0000000E+00  -1.0000000E+00
	2212	-1	0	0	0	0	0.0000000000E+00	0.0000000000E+00	6.5000000000E+03	6.5000000000E+03	9.3827000000E-01	0.000E+00	0.0
	2212	-1	0	0	0	0	0.0000000000E+00	0.0000000000E+00	-6.5000000000E+03	6.5000000000E+03	9.3827000000E-01	0.000E+00	0.0
	2212	1	0	0	0	0	0.0000000000E+00	0.0000000000E+00	6.0598394485E+03	6.0598394485E+03	9.3827000000E-01	0.000E+00	0.0
	2212	1	0	0	0	0	0.0000000000E+00	0.0000000000E+00	-5.8714623362E+03	5.8714623362E+03	9.3827000000E-01	0.000E+00	0.0
	51	2	1	2	0	0	-6.4655249556E+01	1.2142132316E+02	-2.3600295876E+02	1.0868536123E+03	1.0519647993E+03	0.000E+00	0.0
	1000022	2	5	5	0	0	6.4655249556E+01	-1.2142132316E+02	-1.0825337156E+02	8.6617624985E+02	8.4830363923E+02	0.000E+00	0.0
	14	1	6	6	0	0	-1.8845621952E+02	-7.4420991840E+01	-2.1342172790E+02	4.3843821075E+02	3.2500000000E+02	0.000E+00	0.0
	-14	1	6	6	0	0	2.5311146907E+02	-4.7000331321E+01	1.0516835634E+02	4.2773803910E+02	3.2500000000E+02	0.000E+00	0.0
	25	2	5	5	0	0	-6.4655249556E+01	1.2142132316E+02	-8.0123740821E+01	2.0252196545E+02	1.2518743401E+02	0.000E+00	0.0
	-5	1	9	9	0	501	-1.4592700431E+01	4.2339272040E+00	3.0103694096E+01	3.3979079500E+01	4.1800000000E+00	0.000E+00	0.0
	5	1	9	9	501	0	-5.0062549125E+01	1.1718739596E+02	-1.1022743492E+02	1.6854288595E+02	4.1800000000E+00	0.000E+00	0.0
</event>
<event>
    11  -1  1.0000000E+00  1.0000000E+00  -1.0000000E+00  -1.0000000E+00
	2212	-1	0	0	0	0	0.0000000000E+00	0.0000000000E+00	6.5000000000E+03	6.5000000000E+03	9.3827000000E-01	0.000E+00	0.0
	2212	-1	0	0	0	0	0.0000000000E+00	0.0000000000E+00	-6.5000000000E+03	6.5000000000E+03	9.3827000000E-01	0.000E+00	0.0
	2212	1	0	0	0	0	0.0000000000E+00	0.0000000000E+00	5.9585830320E+03	5.9585830320E+03	9.3827000000E-01	0.000E+00	0.0
	2212	1	0	0	0	0	0.0000000000E+00	0.0000000000E+00	-6.0009964916E+03	6.0009964916E+03	9.3827000000E-01	0.000E+00	0.0
	51	2	1	2	0	0	-1.2879961742E+02	2.3310492204E+01	-4.0020427692E+00	1.0477712550E+03	1.0395556099E+03	0.000E+00	0.0
	1000022	2	5	5	0	0	1.2879961742E+02	-2.3310492204E+01	8.1574628293E+01	8.5511775934E+02	8.4109407432E+02	0.000E+00	0.0
	14	1	6	6	0	0	-2.0481308629E+02	9.9579940710E+00	3.6973244358E+01	3.8605645023E+02	3.2500000000E+02	0.000E+00	0.0
	-14	1	6	6	0	0	3.3361270371E+02	-3.3268486275E+01	4.4601383935E+01	4.6906130911E+02	3.2500000000E+02	0.000E+00	0.0
	25	2	5	5	0	0	-1.2879961742E+02	2.3310492204E+01	-3.9161168668E+01	1.8530271701E+02	1.2518298329E+02	0.000E+00	0.0
	-5	1	9	9	0	501	-4.2025699333E+01	5.7327949724E+01	-5.5887289854E+01	9.0518035723E+01	4.1800000000E+00	0.000E+00	0.0
	5	1	9	9	501	0	-8.6773918089E+01	-3.4017457520E+01	1.6726121186E+01	9.4784681286E+01	4.1800000000E+00	0.000E+00	0.0
</event>
<event>
    11  -1  1.0000000E+00  1.0000000E+00  -1.0000000E+00  -1.0000000E+00
	2212	-1	0	0	0	0	0.0000000000E+00	0.0000000000E+00	6.5000000000E+03	6.5000000000E+03	9.3827000000E-01	0.000E+00	0.0
	2212	-1	0	0	0	0	0.0000000000E+00	0.0000000000E+00	-6.5000000000E+03	6.5000000000E+03	9.3827000000E-01	0.000E+00	0.0
	2212	1	0	0	0	0	0.0000000000E+00	0.0000000000E+00	5.8945660420E+03	5.8945660420E+03	9.3827000000E-01	0.000E+00	0.0
	2212	1	0	0	0	0	0.0000000000E+00	0.0000000000E+00	-6.0424273939E+03	6.0424273939E+03	9.3827000000E-01	0.000E+00	0.0
	51	2	1	2	0	0	-1.8783696046E+02	-5.1799253776E+01	1.1472270801E+02	1.0766834084E+03	1.0526727772E+03	0.000E+00	0.0
	1000022	2	5	5	0	0	1.8783696046E+02	5.1799253776E+01	1.5068620801E+02	8.3139748060E+02	7.9407150248E+02	0.000E+00	0.0
	14	1	6	6	0	0	-8.9342698456E+01	5.4449402256E+01	-7.3112813910E+01	3.4916663462E+02	3.2500000000E+02	0.000E+00	0.0
	-14	1	6	6	0	0	2.7717965891E+02	-2.6501484806E+00	2.2379902192E+02	4.8223084598E+02	3.2500000000E+02	0.000E+00	0.0
	25	2	5	5	0	0	-1.8783696046E+02	-5.1799253776E+01	-2.8248560514E+00	2.3160908348E+02	1.2517548217E+02	0.000E+00	0.0
	-5	1	9	9	0	501	-4.1078008224E+01	-7.2349124613E+01	-3.0800982931E+00	8.3359210634E+01	4.1800000000E+00	0.000E+00	0.0
	5	1	9	9	501	0	-1.4675895223E+02	2.0549870838E+01	2.5524224169E-01	1.4824987285E+02	4.1800000000E+00	0.000E+00	0.0
</event>
<event>
    11  -1  1.0000000E+00  1.0000000E+00  -1.0000000E+00  -1.0000000E+00
	2212	-1	0	0	0	0	0.0000000000E+00	0.0000000000E+00	6.5000000000E+03	6.5000000000E+03	9.3827000000E-01	0.000E+00	0.0
	2212	-1	0	0	0	0	0.0000000000E+00	0.0000000000E+00	-6.5000000000E+03	6.5000000000E+03	9.3827000000E-01	0.000E+00	0.0
	2212	1	0	0	0	0	0.0000000000E+00	0.0000000000E+00	6.1555200222E+03	6.1555200222E+03	9.3827000000E-01	0.000E+00	0.0
	2212	1	0	0	0	0	0.0000000000E+00	0.0000000000E+00	-5.6963658128E+03	5.6963658128E+03	9.3827000000E-01	0.000E+00	0.0
	51	2	1	2	0	0	-2.6679470012E+01	-8.2150470594E+01	-3.3266198979E+02	1.1070086004E+03	1.0523039237E+03	0.000E+00	0.0
	1000022	2	5	5	0	0	2.6679470012E+01	8.2150470594E+01	-5.0560858306E+02	9.8908525914E+02	8.4568854588E+02	0.000E+00	0.0
	14	1	6	6	0	0	2.3204724019E+02	1.8858101887E+02	-3.3920293694E+02	5.5685936715E+02	3.2500000000E+02	0.000E+00	0.0
	-14	1	6	6	0	0	-2.0536777018E+02	-1.0643054828E+02	-1.6640564612E+02	4.3222589198E+02	3.2500000000E+02	0.000E+00	0.0
	25	2	5	5	0	0	-2.6679470012E+01	-8.2150470594E+01	4.6454373707E+01	1.5902890586E+02	1.2518662119E+02	0.000E+00	0.0
	-5	1	9	9	0	501	5.7731390350E-01	-6.3115849664E+01	-3.4043565583E+01	7.1835788627E+01	4.1800000000E+00	0.000E+00	0.0
	5	1	9	9	501	0	-2.7256783915E+01	-1.9034620930E+01	8.0497939290E+01	8.7193117236E+01	4.1800000000E+00	0.000E+00	0.0
</event>
<event>
    11  -1  1.0000000E+00  1.0000000E+00  -1.0000000E+00  -1.0000000E+00
	2212	-1	0	0	0	0	0.0000000000E+00	0.0000000000E+00	6.5000000000E+03	6.5000000000E+03	9.3827000000E-01	0.000E+00	0.0
	2212	-1	0	0	0	0	0.0000000000E+00	0.0000000000E+00	-6.5000000000E+03	6.5000000000E+03	9.3827000000E-01	0.000E+00	0.0
	2212	1	0	0	0	0	0.0000000000E+00	0.0000000000E+00	6.1955986157E+03	6.1955986157E+03	9.3827000000E-01	0.000E+00	0.0
	2212	1	0	0	0	0	0.0000000000E+00	0.0000000000E+00	-5.5988952841E+03	5.5988952841E+03	9.3827000000E-01	0.000E+00	0.0
	51	2	1	2	0	0	3.0158121350E+01	-9.7809278309E+01	-6.6560770501E+02	1.2452710049E+03	1.0474684203E+03	0.000E+00	0.0
	1000022	2	5	5	0	0	-3.0158121350E+01	9.7809278309E+01	-4.3390539369E+02	9.7605017319E+02	8.6828790311E+02	0.000E+00	0.0
	14	1	6	6	0	0	8.1606702456E+01	-2.0249720164E+02	-3.1998428903E+02	5.0564781793E+02	3.2500000000E+02	0.000E+00	0.0
	-14	1	6	6	0	0	-1.1176482381E+02	3.0030647995E+02	-1.1392110467E+02	4.7040235525E+02	3.2500000000E+02	0.000E+00	0.0
	25	2	5	5	0	0	3.0158121350E+01	-9.7809278309E+01	-1.6279793799E+02	2.2945592701E+02	1.2518261309E+02	0.000E+00	0.0
	-5	1	9	9	0	501	1.1316898731E+01	2.9973094120E+01	-3.6720672052E+01	4.8911539783E+01	4.1800000000E+00	0.000E+00	0.0
	5	1	9	9	501	0	1.8841222618E+01	-1.2778237243E+02	-1.2607726594E+02	1.8054438723E+02	4.1800000000E+00	0.000E+00	0.0
</event>
<event>
    11  -1  1.0000000E+00  1.0000000E+00  -1.0000000E+00  -1.0000000E+00
	2212	-1	0	0	0	0	0.0000000000E+00	0.0000000000E+00	6.5000000000E+03	6.5000000000E+03	9.3827000000E-01	0.000E+00	0.0
	2212	-1	0	0	0	0	0.0000000000E+00	0.0000000000E+00	-6.5000000000E+03	6.5000000000E+03	9.3827000000E-01	0.000E+00	0.0
	2212	1	0	0	0	0	0.0000000000E+00	0.0000000000E+00	6.0625471042E+03	6.0625471042E+03	9.3827000000E-01	0.000E+00	0.0
	2212	1	0	0	0	0	0.0000000000E+00	0.0000000000E+00	-5.8822178531E+03	5.8822178531E+03	9.3827000000E-01	0.000E+00	0.0
	51	2	1	2	0	0	7.0457927798E+01	8.2927998460E+01	-2.6182206022E+02	1.0776801568E+03	1.0397126318E+03	0.000E+00	0.0
	1000022	2	5	5	0	0	-7.0457927798E+01	-8.2927998460E+01	-6.8485203376E+01	8.5518318780E+02	8.4546241140E+02	0.000E+00	0.0
	14	1	6	6	0	0	-8.5461474457E+01	-3.0878200639E+02	-3.4676662496E+01	4.5768707870E+02	3.2500000000E+02	0.000E+00	0.0
	-14	1	6	6	0	0	1.5003546660E+01	2.2585400793E+02	-3.3808540880E+01	3.9749610910E+02	3.2500000000E+02	0.000E+00	0.0
	25	2	5	5	0	0	7.0457927798E+01	8.2927998460E+01	-1.1184404773E+02	2.0005185494E+02	1.2518099350E+02	0.000E+00	0.0
	-5	1	9	9	0	501	8.2994182867E+01	1.0594653777E+02	-7.3456818633E+01	1.5338213670E+02	4.1800000000E+00	0.000E+00	0.0
	5	1	9	9	501	0	-1.2536255069E+01	-2.3018539309E+01	-3.8387229093E+01	4.6669718239E+01	4.1800000000E+00	0.000E+00	0.0
</event>
<event>
    11  -1  1.0000000E+00  1.0000000E+00  -1.0000000E+00  -1.0000000E+00
	2212	-1	0	0	0	0	0.0000000000E+00	0.0000000000E+00	6.5000000000E+03	6.5000000000E+03	9.3827000000E-01	0.000E+00	0.0
	2212	-1	0	0	0	0	0.0000000000E+00	0.0000000000E+00	-6.5000000000E+03	6.5000000000E+03	9.3827000000E-01	0.000E+00	0.0
	2212	1	0	0	0	0	0.0000000000E+00	0.0000000000E+00	5.5001369013E+03	5.5001369013E+03	9.3827000000E-01	0.000E+00	0.0
	2212	1	0	0	0	0	0.0000000000E+00	0.0000000000E+00	-6.2252884469E+03	6.2252884469E+03	9.3827000000E-01	0.000E+00	0.0
	51	2	1	2	0	0	1.7943676709E+02	1.7156550494E+02	9.2294509737E+02	1.4185047435E+03	1.0481869007E+03	0.000E+00	0.0
	1000022	2	5	5	0	0	-1.7943676709E+02	-1.7156550494E+02	3.3812168430E+02	7.9803021918E+02	6.7889150934E+02	0.000E+00	0.0
	14	1	6	6	0	0	-8.6878392334E+01	-1.7849301617E+02	1.3700210346E+02	4.0472483026E+02	3.2500000000E+02	0.000E+00	0.0
	-14	1	6	6	0	0	-9.2558374761E+01	6.9275112316E+00	2.0111958084E+02	3.9330538891E+02	3.2500000000E+02	0.000E+00	0.0
	25	2	5	5	0	0	1.7943676709E+02	1.7156550494E+02	3.8702986130E+02	4.7654443257E+02	1.2518069663E+02	0.000E+00	0.0
	-5	1	9	9	0	501	7.3536984794E+01	-3.0976021461E+00	1.0083635639E+02	1.2491087399E+02	4.1800000000E+00	0.000E+00	0.0
	5	1	9	9	501	0	1.0589978230E+02	1.7466310709E+02	2.8619350491E+02	3.5163355858E+02	4.1800000000E+00	0.000E+00	0.0
</event>
<event>
    11  -1  1.0000000E+00  1.0000000E+00  -1.0000000E+00  -1.0000000E+00
	2212	-1	0	0	0	0	0.0000000000E+00	0.0000000000E+00	6.5000000000E+03	6.5000000000E+03	9.3827000000E-01	0.000E+00	0.0
	2212	-1	0	0	0	0	0.0000000000E+00	0.0000000000E+00	-6.5000000000E+03	6.5000000000E+03	9.3827000000E-01	0.000E+00	0.0
	2212	1	0	0	0	0	0.0000000000E+00	0.0000000000E+00	5.1227306936E+03	5.1227306936E+03	9.3827000000E-01	0.000E+00	0.0
	2212	1	0	0	0	0	0.0000000000E+00	0.0000000000E+00	-6.2978333130E+03	6.2978333130E+03	9.3827000000E-01	0.000E+00	0.0
	51	2	1	2	0	0	-8.7758564080E+01	-1.1194118322E+02	1.1508313811E+03	1.5679276618E+03	1.0553444418E+03	0.000E+00	0.0
	1000022	2	5	5	0	0	8.7758564080E+01	1.1194118322E+02	9.9770850079E+02	1.3198892543E+03	8.5232212048E+02	0.000E+00	0.0
	14	1	6	6	0	0	-7.4640263689E+01	2.4366129576E+02	7.6338522645E+02	8.6794239439E+02	3.2500000000E+02	0.000E+00	0.0
	-14	1	6	6	0	0	1.6239882777E+02	-1.3172011253E+02	2.3432327434E+02	4.5194685993E+02	3.2500000000E+02	0.000E+00	0.0
	25	2	5	5	0	0	-8.7758564080E+01	-1.1194118322E+02	1.7739411866E+02	2.5954673905E+02	1.2515367492E+02	0.000E+00	0.0
	-5	1	9	9	0	501	-5.2628071399E+01	-4.3530607732E+01	1.6868971534E+02	1.8203933688E+02	4.1800000000E+00	0.000E+00	0.0
	5	1	9	9	501	0	-3.5130492681E+01	-6.8410575491E+01	8.7044033233E+00	7.7507402177E+01	4.1800000000E+00	0.000E+00	0.0
</event>
<event>
    11  -1  1.0000000E+00  1.0000000E+00  -1.0000000E+00  -1.0000000E+00
	2212	-1	0	0	0	0	0.0000000000E+00	0.0000000000E+00	6.5000000000E+03	6.5000000000E+03	9.3827000000E-01	0.000E+00	0.0
	2212	-1	0	0	0	0	0.0000000000E+00	0.0000000000E+00	-6.5000000000E+03	6.5000000000E+03	9.3827000000E-01	0.000E+00	0.0
	2212	1	0	0	0	0	0.0000000000E+00	0.0000000000E+00	5.8646480870E+03	5.8646480870E+03	9.3827000000E-01	0.000E+00	0.0
	2212	1	0	0	0	0	0.0000000000E+00	0.0000000000E+00	-6.0620996964E+03	6.0620996964E+03	9.3827000000E-01	0.000E+00	0.0
	51	2	1	2	0	0	-1.1113513483E+02	-4.0848717303E+01	1.2291230848E+02	1.0686487981E+03	1.0549327857E+03	0.000E+00	0.0
	1000022	2	5	5	0	0	1.1113513483E+02	4.0848717303E+01	2.3855458322E+02	8.9611180251E+02	8.5562166728E+02	0.000E+00	0.0
	14	1	6	6	0	0	1.1474036149E+02	2.3339054223E+02	-5.2061846699E+01	4.1949008527E+02	3.2500000000E+02	0.000E+00	0.0
	-14	1	6	6	0	0	-3.6052266588E+00	-1.9254182493E+02	2.9061642992E+02	4.7662171724E+02	3.2500000000E+02	0.000E+00	0.0
	25	2	5	5	0	0	-1.1113513483E+02	-4.0848717303E+01	-4.1102973797E+01	1.7714041404E+02	1.2517841641E+02	0.000E+00	0.0
	-5	1	9	9	0	501	-1.2219450699E+02	-3.4325924442E+01	-7.0170190307E+01	1.4508995360E+02	4.1800000000E+00	0.000E+00	0.0
	5	1	9	9	501	0	1.1059372159E+01	-6.5227928610E+00	2.9067216509E+01	3.2050460447E+01	4.1800000000E+00	0.000E+00	0.0
</event>
<event>
    11  -1  1.0000000E+00  1.0000000E+00  -1.0000000E+00  -1.0000000E+00
	2212	-1	0	0	0	0	0.0000000000E+00	0.0000000000E+00	6.5000000000E+03	6.5000000000E+03	9.3827000000E-01	0.000E+00	0.0
	2212	-1	0	0	0	0	0.0000000000E+00	0.0000000000E+00	-6.5000000000E+03	6.5000000000E+03	9.3827000000E-01	0.000E+00	0.0
	2212	1	0	0	0	0	0.0000000000E+00	0.0000000000E+00	4.9726295186E+03	4.9726295186E+03	9.3827000000E-01	0.000E+00	0.0
	2212	1	0	0	0	0	0.0000000000E+00	0.0000000000E+00	-6.3202875232E+03	6.3202875232E+03	9.3827000000E-01	0.000E+00	0.0
	51	2	1	2	0	0	-1.0607627429E+02	-5.5206280670E+01	1.2571925783E+03	1.6409702060E+03	1.0478311547E+03	0.000E+00	0.0
	1000022	2	5	5	0	0	1.0607627429E+02	5.5206280670E+01	1.2125712265E+03	1.4874879692E+03	8.5322422010E+02	0.000E+00	0.0
	14	1	6	6	0	0	8.7139947805E+01	2.9771391908E+02	7.2647551649E+02	8.5417716206E+02	3.2500000000E+02	0.000E+00	0.0
	-14	1	6	6	0	0	1.8936326485E+01	-2.4250763841E+02	4.8609571001E+02	6.3331080714E+02	3.2500000000E+02	0.000E+00	0.0
	25	2	5	5	0	0	-1.0607627429E+02	-5.5206280670E+01	1.3508677811E+02	2.1959498902E+02	1.2519429776E+02	0.000E+00	0.0
	-5	1	9	9	0	501	-1.0030551058E+02	-5.6928977597E+01	1.5792937433E+02	1.9560486604E+02	4.1800000000E+00	0.000E+00	0.0
	5	1	9	9	501	0	-5.7707637113E+00	1.7226969273E+00	-2.2842596221E+01	2.3990122981E+01	4.1800000000E+00	0.000E+00	0.0
</event>
<event>
    11  -1  1.0000000E+00  1.0000000E+00  -1.0000000E+00  -1.0000000E+00
	2212	-1	0	0	0	0	0.0000000000E+00	0.0000000000E+00	6.5000000000E+03	6.5000000000E+03	9.3827000000E-01	0.000E+00	0.0
	2212	-1	0	0	0	0	0.0000000000E+00	0.0000000000E+00	-6.5000000000E+03	6.5000000000E+03	9.3827000000E-01	0.000E+00	0.0
	2212	1	0	0	0	0	0.0000000000E+00	0.0000000000E+00	6.1873212190E+03	6.1873212190E+03	9.3827000000E-01	0.000E+00	0.0
	2212	1	0	0	0	0	0.0000000000E+00	0.0000000000E+00	-5.6042044732E+03	5.6042044732E+03	9.3827000000E-01	0.000E+00	0.0
	51	2	1	2	0	0	-2.6822559649E+01	-9.0040409970E+01	-7.0557646521E+02	1.2755586567E+03	1.0584824105E+03	0.000E+00	0.0
	1000022	2	5	5	0	0	2.6822559649E+01	9.0040409970E+01	-3.6251289764E+02	9.3799216770E+02	8.5999243053E+02	0.000E+00	0.0
	14	1	6	6	0	0	-2.3669319543E+02	-2.2666836123E+01	-5.4527940582E+01	4.0636898322E+02	3.2500000000E+02	0.000E+00	0.0
	-14	1	6	6	0	0	2.6351575508E+02	1.1270724609E+02	-3.0798495706E+02	5.3162318448E+02	3.2500000000E+02	0.000E+00	0.0
	25	2	5	5	0	0	-2.6822559649E+01	-9.0040409970E+01	-2.2060384816E+02	2.7048214005E+02	1.2517110341E+02	0.000E+00	0.0
	-5	1	9	9	0	501	-8.6638247179E+00	-1.1827100458E+02	-1.9414899042E+02	2.2753987620E+02	4.1800000000E+00	0.000E+00	0.0
	5	1	9	9	501	0	-1.8158734931E+01	2.8230594608E+01	-2.6454857746E+01	4.2942263851E+01	4.1800000000E+00	0.000E+00	0.0
</event>
<event>
    11  -1  1.0000000E+00  1.0000000E+00  -1.0000000E+00  -1.0000000E+00
	2212	-1	0	0	0	0	0.0000000000E+00	0.0000000000E+00	6.5000000000E+03	6.5000000000E+03	9.3827000000E-01	0.000E+00	0.0
	2212	-1	0	0	0	0	0.0000000000E+00	0.0000000000E+00	-6.5000000000E+03	6.5000000000E+03	9.3827000000E-01	0.000E+00	0.0
	2212	1	0	0	0	0	0.0000000000E+00	0.0000000000E+00	6.3050854678E+03	6.3050854678E+03	9.3827000000E-01	0.000E+00	0.0
	2212	1	0	0	0	0	0.0000000000E+00	0.0000000000E+00	-5.0862759751E+03	5.0862759751E+03	9.3827000000E-01	0.000E+00	0.0
	51	2	1	2	0	0	-7.6223896798E+01	6.9292297106E+01	-1.0923247258E+03	1.5185539962E+03	1.0498673382E+03	0.000E+00	0.0
	1000022	2	5	5	0	0	7.6223896798E+01	-6.9292297106E+01	-1.1407080883E+03	1.4287012603E+03	8.5402625462E+02	0.000E+00	0.0
	14	1	6	6	0	0	3.3734497178E+01	9.7576270492E+01	-1.5114971528E+02	3.7300185159E+02	3.2500000000E+02	0.000E+00	0.0
	-14	1	6	6	0	0	4.2489399620E+01	-1.6686856760E+02	-9.8955837298E+02	1.0556994087E+03	3.2500000000E+02	0.000E+00	0.0
	25	2	5	5	0	0	-7.6223896798E+01	6.9292297106E+01	-7.8101404392E+01	1.7993729679E+02	1.2516427816E+02	0.000E+00	0.0
	-5	1	9	9	0	501	-4.7541321342E+01	-3.1197255839E+01	-2.0873464406E+01	6.0717542136E+01	4.1800000000E+00	0.000E+00	0.0
	5	1	9	9	501	0	-2.8682575457E+01	1.0048955294E+02	-5.7227939985E+01	1.1921975466E+02	4.1800000000E+00	0.000E+00	0.0
</event>
<event>
    11  -1  1.0000000E+00  1.0000000E+00  -1.0000000E+00  -1.0000000E+00
	2212	-1	0	0	0	0	0.0000000000E+00	0.0000000000E+00	6.5000000000E+03	6.5000000000E+03	9.3827000000E-01	0.000E+00	0.0
	2212	-1	0	0	0	0	0.0000000000E+00	0.0000000000E+00	-6.5000000000E+03	6.5000000000E+03	9.3827000000E-01	0.000E+00	0.0
	2212	1	0	0	0	0	0.0000000000E+00	0.0000000000E+00	6.3080564413E+03	6.3080564413E+03	9.3827000000E-01	0.000E+00	0.0
	2212	1	0	0	0	0	0.0000000000E+00	0.0000000000E+00	-5.0454973885E+03	5.0454973885E+03	9.3827000000E-01	0.000E+00	0.0
	51	2	1	2	0	0	1.2255295596E+01	-2.8868619715E+01	-1.4872550032E+03	1.8247302989E+03	1.0567542901E+03	0.000E+00	0.0
	1000022	2	5	5	0	0	-1.2255295596E+01	2.8868619715E+01	-8.2405822080E+02	1.1893487634E+03	8.5702680248E+02	0.000E+00	0.0
	14	1	6	6	0	0	2.8812581088E+01	-1.1752849037E+02	-7.4524780579E+02	8.2198686298E+02	3.2500000000E+02	0.000E+00	0.0
	-14	1	6	6	0	0	-4.1067876684E+01	1.4639711009E+02	-7.8810415012E+01	3.6736190038E+02	3.2500000000E+02	0.000E+00	0.0
	25	2	5	5	0	0	1.2255295596E+01	-2.8868619715E+01	-4.3850083199E+02	4.5709740687E+02	1.2518574296E+02	0.000E+00	0.0
	-5	1	9	9	0	501	2.6026467626E+00	1.8055261630E+01	-3.0047373762E+00	1.8954342231E+01	4.1800000000E+00	0.000E+00	0.0
	5	1	9	9	501	0	9.6526488329E+00	-4.6923881345E+01	-4.3549609462E+02	4.3814306464E+02	4.1800000000E+00	0.000E+00	0.0
</event>
<event>
    11  -1  1.0000000E+00  1.0000000E+00  -1.0000000E+00  -1.0000000E+00
	2212	-1	0	0	0	0	0.0000000000E+00	0.0000000000E+00	6.5000000000E+03	6.5000000000E+03	9.3827000000E-01	0.000E+00	0.0
	2212	-1	0	0	0	0	0.0000000000E+00	0.0000000000E+00	-6.5000000000E+03	6.5000000000E+03	9.3827000000E-01	0.000E+00	0.0
	2212	1	0	0	0	0	0.0000000000E+00	0.0000000000E+00	6.3091301559E+03	6.3091301559E+03	9.3827000000E-01	0.000E+00	0.0
	2212	1	0	0	0	0	0.0000000000E+00	0.0000000000E+00	-5.0334958056E+03	5.0334958056E+03	9.3827000000E-01	0.000E+00	0.0
	51	2	1	2	0	0	-9.7064094597E+01	-1.0226927806E+02	-1.2314535793E+03	1.6297251516E+03	1.0581331239E+03	0.000E+00	0.0
	1000022	2	5	5	0	0	9.7064094597E+01	1.0226927806E+02	-1.1004752931E+03	1.4000446034E+03	8.5393124843E+02	0.000E+00	0.0
	14	1	6	6	0	0	-3.1093055170E+01	9.2070736475E+01	-1.2111863576E+02	3.6019234101E+02	3.2500000000E+02	0.000E+00	0.0
	-14	1	6	6	0	0	1.2815714977E+02	1.0198541590E+01	-9.7935665734E+02	1.0398522624E+03	3.2500000000E+02	0.000E+00	0.0
	25	2	5	5	0	0	-9.7064094597E+01	-1.0226927806E+02	-1.7515905716E+02	2.5732943511E+02	1.2512912999E+02	0.000E+00	0.0
	-5	1	9	9	0	501	-4.4914079121E+01	1.9924027732E+01	-7.9547261145E+01	9.3592096568E+01	4.1800000000E+00	0.000E+00	0.0
	5	1	9	9	501	0	-5.2150015476E+01	-1.2219330580E+02	-9.5611796017E+01	1.6373733854E+02	4.1800000000E+00	0.000E+00	0.0
</event>
<event>
    11  -1  1.0000000E+00  1.0000000E+00  -1.0000000E+00  -1.0000000E+00
	2212	-1	0	0	0	0	0.0000000000E+00	0.0000000000E+00	6.5000000000E+03	6.5000000000E+03	9.3827000000E-01	0.000E+00	0.0
	2212	-1	0	0	0	0	0.0000000000E+00	0.0000000000E+00	-6.5000000000E+03	6.5000000000E+03	9.3827000000E-01	0.000E+00	0.0
	2212	1	0	0	0	0	0.0000000000E+00	0.0000000000E+00	5.9693776156E+03	5.9693776156E+03	9.3827000000E-01	0.000E+00	0.0
	2212	1	0	0	0	0	0.0000000000E+00	0.0000000000E+00	-5.9795787082E+03	5.9795787082E+03	9.3827000000E-01	0.000E+00	0.0
	51	2	1	2	0	0	-8.1882799864E+01	1.1139791191E+02	-2.5793763203E+01	1.0603623687E+03	1.0509941708E+03	0.000E+00	0.0
	1000022	2	5	5	0	0	8.1882799864E+01	-1.1139791191E+02	4.4446057998E+01	8.6142947308E+02	8.4910011030E+02	0.000E+00	0.0
	14	1	6	6	0	0	5.2489053762E+01	-1.8740020550E+02	2.6320696762E+02	4.6127740633E+02	3.2500000000E+02	0.000E+00	0.0
	-14	1	6	6	0	0	2.9393746102E+01	7.6002293590E+01	-2.1876090962E+02	4.0015206674E+02	3.2500000000E+02	0.000E+00	0.0
	25	2	5	5	0	0	-8.1882799864E+01	1.1139791191E+02	-3.4244965421E+01	1.8961420314E+02	1.2516605244E+02	0.000E+00	0.0
	-5	1	9	9	0	501	9.0735959314E+00	2.2154801690E+00	-4.5846900573E+01	4.6974984701E+01	4.1800000000E+00	0.000E+00	0.0
	5	1	9	9	501	0	-9.0956395795E+01	1.0918243174E+02	1.1601935152E+01	1.4263921844E+02	4.1800000000E+00	0.000E+00	0.0
</event>
<event>
    11  -1  1.0000000E+00  1.0000000E+00  -1.0000000E+00  -1.0000000E+00
	2212	-1	0	0	0	0	0.0000000000E+00	0.0000000000E+00	6.5000000000E+03	6.5000000000E+03	9.3827000000E-01	0.000E+00	0.0
	2212	-1	0	0	0	0	0.0000000000E+00	0.0000000000E+00	-6.5000000000E+03	6.5000000000E+03	9.3827000000E-01	0.000E+00	0.0
	2212	1	0	0	0	0	0.0000000000E+00	0.0000000000E+00	6.2661361247E+03	6.2661361247E+03	9.3827000000E-01	0.000E+00	0.0
	2212	1	0	0	0	0	0.0000000000E+00	0.0000000000E+00	-5.3092914990E+03	5.3092914990E+03	9.3827000000E-01	0.000E+00	0.0
	51	2	1	2	0	0	-8.4833705752E+01	8.0280513656E+01	-1.0831304605E+03	1.5167953489E+03	1.0553932052E+03	0.000E+00	0.0
	1000022	2	5	5	0	0	8.4833705752E+01	-8.0280513656E+01	-6.6556788430E+02	1.0867071315E+03	8.5106407657E+02	0.000E+00	0.0
	14	1	6	6	0	0	3.1447325038E+01	-3.0959006772E+02	-2.7867777507E+02	5.2926481708E+02	3.2500000000E+02	0.000E+00	0.0
	-14	1	6	6	0	0	5.3386380714E+01	2.2930955406E+02	-3.8689010923E+02	5.5744231437E+02	3.2500000000E+02	0.000E+00	0.0
	25	2	5	5	0	0	-8.4833705752E+01	8.0280513656E+01	-2.9127674146E+02	3.3786524487E+02	1.2517613617E+02	0.000E+00	0.0
	-5	1	9	9	0	501	1.7095346703E+01	-1.2537175653E+01	-8.4493448559E+00	2.3201195675E+01	4.1800000000E+00	0.000E+00	0.0
	5	1	9	9	501	0	-1.0192905245E+02	9.2817689309E+01	-2.8282739661E+02	3.1466404919E+02	4.1800000000E+00	0.000E+00	0.0
</event>
<event>
    11  -1  1.0000000E+00  1.0000000E+00  -1.0000000E+00  -1.0000000E+00
	2212	-1	0	0	0	0	0.0000000000E+00	0.0000000000E+00	6.5000000000E+03	6.5000000000E+03	9.3827000000E-01	0.000E+00	0.0
	2212	-1	0	0	0	0	0.0000000000E+00	0.0000000000E+00	-6.5000000000E+03	6.5000000000E+03	9.3827000000E-01	0.000E+00	0.0
	2212	1	0	0	0	0	0.0000000000E+00	0.0000000000E+00	4.9129844660E+03	4.9129844660E+03	9.3827000000E-01	0.000E+00	0.0
	2212	1	0	0	0	0	0.0000000000E+00	0.0000000000E+00	-6.3270901589E+03	6.3270901589E+03	9.3827000000E-01	0.000E+00	0.0
	51	2	1	2	0	0	-1.1494626111E+02	7.8703299776E+01	1.3720545057E+03	1.7319303780E+03	1.0476843108E+03	0.000E+00	0.0
	1000022	2	5	5	0	0	1.1494626111E+02	-7.8703299776E+01	1.2126446247E+03	1.4848571715E+03	8.4550989443E+02	0.000E+00	0.0
	14	1	6	6	0	0	3.0422603933E+01	-1.1060748906E+02	1.6093320182E+02	3.8037356233E+02	3.2500000000E+02	0.000E+00	0.0
	-14	1	6	6	0	0	8.4523657181E+01	3.1904189289E+01	1.0517114228E+03	1.1044836091E+03	3.2500000000E+02	0.000E+00	0.0
	25	2	5	5	0	0	-1.1494626111E+02	7.8703299776E+01	2.0146106822E+02	2.7506820358E+02	1.2517628479E+02	0.000E+00	0.0
	-5	1	9	9	0	501	-7.6596843456E+01	1.0910406671E+02	1.7250980714E+02	2.1805476321E+02	4.1800000000E+00	0.000E+00	0.0
	5	1	9	9	501	0	-3.8349417658E+01	-3.0400766934E+01	2.8951261083E+01	5.7013440373E+01	4.1800000000E+00	0.000E+00	0.0
</event>
<event>
    11  -1  1.0000000E+00  1.0000000E+00  -1.0000000E+00  -1.0000000E+00
	2212	-1	0	0	0	0	0.0000000000E+00	0.0000000000E+00	6.5000000000E+03	6.5000000000E+03	9.3827000000E-01	0.000E+00	0.0
	2212	-1	0	0	0	0	0.0000000000E+00	0.0000000000E+00	-6.5000000000E+03	6.5000000000E+03	9.3827000000E-01	0.000E+00	0.0
	2212	1	0	0	0	0	0.0000000000E+00	0.0000000000E+00	6.0636050725E+03	6.0636050725E+03	9.3827000000E-01	0.000E+00	0.0
	2212	1	0	0	0	0	0.0000000000E+00	0.0000000000E+00	-5.8573800664E+03	5.8573800664E+03	9.3827000000E-01	0.000E+00	0.0
	51	2	1	2	0	0	-5.4467518989E+01	-1.1188743819E+02	-1.7295585184E+02	1.0803441828E+03	1.0591243162E+03	0.000E+00	0.0
	1000022	2	5	5	0	0	5.4467518989E+01	1.1188743819E+02	-2.0601286581E+02	9.0250399777E+02	8.6981989841E+02	0.000E+00	0.0
	14	1	6	6	0	0	-3.7104078492E+01	1.8043547560E+02	1.5410488996E+02	4.0411259644E+02	3.2500000000E+02	0.000E+00	0.0
	-14	1	6	6	0	0	9.1571597481E+01	-6.8548037407E+01	-3.6011775577E+02	4.9839140133E+02	3.2500000000E+02	0.000E+00	0.0
	25	2	5	5	0	0	-5.4467518989E+01	-1.1188743819E+02	-2.1214032919E-01	1.7651086327E+02	1.2518198912E+02	0.000E+00	0.0
	-5	1	9	9	0	501	-7.4126812870E+01	-1.2656503778E+02	-1.5101503071E+01	1.4750939282E+02	4.1800000000E+00	0.000E+00	0.0
	5	1	9	9	501	0	1.9659293881E+01	1.4677599588E+01	1.4889362742E+01	2.9001470453E+01	4.1800000000E+00	0.000E+00	0.0
</event>
<event>
    11  -1  1.0000000E+00  1.0000000E+00  -1.0000000E+00  -1.0000000E+00
	2212	-1	0	0	0	0	0.0000000000E+00	0.0000000000E+00	6.5000000000E+03	6.5000000000E+03	9.3827000000E-01	0.000E+00	0.0
	2212	-1	0	0	0	0	0.0000000000E+00	0.0000000000E+00	-6.5000000000E+03	6.5000000000E+03	9.3827000000E-01	0.000E+00	0.0
	2212	1	0	0	0	0	0.0000000000E+00	0.0000000000E+00	6.2352920204E+03	6.2352920204E+03	9.3827000000E-01	0.000E+00	0.0
	2212	1	0	0	0	0	0.0000000000E+00	0.0000000000E+00	-5.4740595136E+03	5.4740595136E+03	9.3827000000E-01	0.000E+00	0.0
	51	2	1	2	0	0	-1.2057210757E+02	-7.0809390218E+00	-6.8738091469E+02	1.2543439832E+03	1.0422564625E+03	0.000E+00	0.0
	1000022	2	5	5	0	0	1.2057210757E+02	7.0809390218E+00	-7.0603529926E+02	1.1081543116E+03	8.4553672990E+02	0.000E+00	0.0
	14	1	6	6	0	0	2.9749910011E+02	1.2502311136E+02	-3.0734098343E+02	5.5156139552E+02	3.2500000000E+02	0.000E+00	0.0
	-14	1	6	6	0	0	-1.7692699254E+02	-1.1794217234E+02	-3.9869431584E+02	5.5659291604E+02	3.2500000000E+02	0.000E+00	0.0
	25	2	5	5	0	0	-1.2057210757E+02	-7.0809390218E+00	-5.5197207455E+01	1.8249415445E+02	1.2517832031E+02	0.000E+00	0.0
	-5	1	9	9	0	501	-3.5655436180E+01	-5.3687250313E+01	1.0422675444E+01	6.5419687700E+01	4.1800000000E+00	0.000E+00	0.0
	5	1	9	9	501	0	-8.4916671392E+01	4.6606311291E+01	-6.5619882900E+01	1.1707446675E+02	4.1800000000E+00	0.000E+00	0.0
</event>
<event>
    11  -1  1.0000000E+00  1.0000000E+00  -1.0000000E+00  -1.0000000E+00
	2212	-1	0	0	0	0	0.0000000000E+00	0.0000000000E+00	6.5000000000E+03	6.5000000000E+03	9.3827000000E-01	0.000E+00	0.0
	2212	-1	0	0	0	0	0.0000000000E+00	0.0000000000E+00	-6.5000000000E+03	6.5000000000E+03	9.3827000000E-01	0.000E+00	0.0
	2212	1	0	0	0	0	0.0000000000E+00	0.0000000000E+00	5.4174443614E+03	5.4174443614E+03	9.3827000000E-01	0.000E+00	0.0
	2212	1	0	0	0	0	0.0000000000E+00	0.0000000000E+00	-6.2457847039E+03	6.2457847039E+03	9.3827000000E-01	0.000E+00	0.0
	51	2	1	2	0	0	7.4727786973E+01	1.5789552258E+01	9.4185814945E+02	1.4119982772E+03	1.0491943619E+03	0.000E+00	0.0
	1000022	2	5	5	0	0	-7.4727786973E+01	-1.5789552258E+01	5.8581594727E+02	1.0533534937E+03	8.7208927669E+02	0.000E+00	0.0
	14	1	6	6	0	0	2.2558055387E+02	1.1513131256E+02	3.1133985268E+02	5.1642938461E+02	3.2500000000E+02	0.000E+00	0.0
	-14	1	6	6	0	0	-3.0030834085E+02	-1.3092086482E+02	2.7447609459E+02	5.3692410910E+02	3.2500000000E+02	0.000E+00	0.0
	25	2	5	5	0	0	7.4727786973E+01	1.5789552258E+01	2.4252439523E+02	2.8341744106E+02	1.2519509379E+02	0.000E+00	0.0
	-5	1	9	9	0	501	7.9746246028E+01	3.7174520032E+01	7.8844541276E+01	1.1821735399E+02	4.1800000000E+00	0.000E+00	0.0
	5	1	9	9	501	0	-5.0184590550E+00	-2.1384967774E+01	1.6367985395E+02	1.6520008707E+02	4.1800000000E+00	0.000E+00	0.0
</event>
<event>
    11  -1  1.0000000E+00  1.0000000E+00  -1.0000000E+00  -1.0000000E+00
	2212	-1	0	0	0	0	0.0000000000E+00	0.0000000000E+00	6.5000000000E+03	6.5000000000E+03	9.3827000000E-01	0.000E+00	0.0
	2212	-1	0	0	0	0	0.0000000000E+00	0.0000000000E+00	-6.5000000000E+03	6.5000000000E+03	9.3827000000E-01	0.000E+00	0.0
	2212	1	0	0	0	0	0.0000000000E+00	0.0000000000E+00	5.4919324339E+03	5.4919324339E+03	9.3827000000E-01	0.000E+00	0.0
	2212	1	0	0	0	0	0.0000000000E+00	0.0000000000E+00	-6.2397843120E+03	6.2397843120E+03	9.3827000000E-01	0.000E+00	0.0
	51	2	1	2	0	0	6.5722764637E+01	8.9422105890E+01	7.4479640643E+02	1.2713368801E+03	1.0243339206E+03	0.000E+00	0.0
	1000022	2	5	5	0	0	-6.5722764637E+01	-8.9422105890E+01	6.3308493769E+02	1.0654144016E+03	8.4970319175E+02	0.000E+00	0.0
	14	1	6	6	0	0	-1.3094267019E+02	-2.8787252991E+02	2.3528506566E+02	5.1088221586E+02	3.2500000000E+02	0.000E+00	0.0
	-14	1	6	6	0	0	6.5219905553E+01	1.9845042403E+02	3.9779987203E+02	5.5453218578E+02	3.2500000000E+02	0.000E+00	0.0
	25	2	5	5	0	0	6.5722764637E+01	8.9422105890E+01	1.1476694048E+02	2.0286885247E+02	1.2517398236E+02	0.000E+00	0.0
	-5	1	9	9	0	501	3.7379890381E+01	6.2146727932E+01	1.3874554428E+02	1.5661184647E+02	4.1800000000E+00	0.000E+00	0.0
	5	1	9	9	501	0	2.8342874257E+01	2.7275377958E+01	-2.3978603798E+01	4.6257005999E+01	4.1800000000E+00	0.000E+00	0.0
</event>
<event>
    11  -1  1.0000000E+00  1.0000000E+00  -1.0000000E+00  -1.0000000E+00
	2212	-1	0	0	0	0	0.0000000000E+00	0.0000000000E+00	6.5000000000E+03	6.5000000000E+03	9.3827000000E-01	0.000E+00	0.0
	2212	-1	0	0	0	0	0.0000000000E+00	0.0000000000E+00	-6.5000000000E+03	6.5000000000E+03	9.3827000000E-01	0.000E+00	0.0
	2212	1	0	0	0	0	0.0000000000E+00	0.0000000000E+00	5.6179841449E+03	5.6179841449E+03	9.3827000000E-01	0.000E+00	0.0
	2212	1	0	0	0	0	0.0000000000E+00	0.0000000000E+00	-6.1878622083E+03	6.1878622083E+03	9.3827000000E-01	0.000E+00	0.0
	51	2	1	2	0	0	-7.7882522746E+01	-5.5579842409E+01	6.8710538778E+02	1.2579787538E+03	1.0494007456E+03	0.000E+00	0.0
	1000022	2	5	5	0	0	7.7882522746E+01	5.5579842409E+01	3.5654602760E+02	9.2894547374E+02	8.5244343927E+02	0.000E+00	0.0
	14	1	6	6	0	0	-2.3534680343E+02	3.6882635758E+01	2.0743029510E+02	4.5321162169E+02	3.2500000000E+02	0.000E+00	0.0
	-14	1	6	6	0	0	3.1322932618E+02	1.8697206651E+01	1.4911573250E+02	4.7573385205E+02	3.2500000000E+02	0.000E+00	0.0
	25	2	5	5	0	0	-7.7882522746E+01	-5.5579842409E+01	2.1333203580E+02	2.6520817299E+02	1.2517991568E+02	0.000E+00	0.0
	-5	1	9	9	0	501	-6.5436481094E+01	-2.0392142187E+01	2.4857978355E+01	7.3028515039E+01	4.1800000000E+00	0.000E+00	0.0
	5	1	9	9	501	0	-1.2446041652E+01	-3.5187700221E+01	1.8847405744E+02	1.9217965795E+02	4.1800000000E+00	0.000E+00	0.0
</event>
<event>
    11  -1  1.0000000E+00  1.0000000E+00  -1.0000000E+00  -1.0000000E+00
	2212	-1	0	0	0	0	0.0000000000E+00	0.0000000000E+00	6.5000000000E+03	6.5000000000E+03	9.3827000000E-01	0.000E+00	0.0
	2212	-1	0	0	0	0	0.0000000000E+00	0.0000000000E+00	-6.5000000000E+03	6.5000000000E+03	9.3827000000E-01	0.000E+00	0.0
	2212	1	0	0	0	0	0.0000000000E+00	0.0000000000E+00	6.3331036746E+03	6.3331036746E+03	9.3827000000E-01	0.000E+00	0.0
	2212	1	0	0	0	0	0.0000000000E+00	0.0000000000E+00	-4.8395431178E+03	4.8395431178E+03	9.3827000000E-01	0.000E+00	0.0
	51	2	1	2	0	0	-1.7144657516E+01	-1.1847100595E+02	-1.3656523316E+03	1.7285347026E+03	1.0528516557E+03	0.000E+00	0.0
	1000022	2	5	5	0	0	1.7144657516E+01	1.1847100595E+02	-1.3638310874E+03	1.6109551214E+03	8.4900638973E+02	0.000E+00	0.0
	14	1	6	6	0	0	9.5043133432E+01	-1.9497688267E+02	-5.1618373186E+02	6.4739464551E+02	3.2500000000E+02	0.000E+00	0.0
	-14	1	6	6	0	0	-7.7898475917E+01	3.1344788862E+02	-8.4764735554E+02	9.6356047594E+02	3.2500000000E+02	0.000E+00	0.0
	25	2	5	5	0	0	-1.7144657516E+01	-1.1847100595E+02	-1.2972946938E+02	2.1639808624E+02	1.2517618771E+02	0.000E+00	0.0
	-5	1	9	9	0	501	-6.1055138742E+01	-6.7014836225E+01	-2.9543364765E+01	9.5441086764E+01	4.1800000000E+00	0.000E+00	0.0
	5	1	9	9	501	0	4.3910481226E+01	-5.1456169724E+01	-1.0018610462E+02	1.2095699948E+02	4.1800000000E+00	0.000E+00	0.0
</event>
<event>
    11  -1  1.0000000E+00  1.0000000E+00  -1.0000000E+00  -1.0000000E+00
	2212	-1	0	0	0	0	0.0000000000E+00	0.0000000000E+00	6.5000000000E+03	6.5000000000E+03	9.3827000000E-01	0.000E+00	0.0
	2212	-1	0	0	0	0	0.0000000000E+00	0.0000000000E+00	-6.5000000000E+03	6.5000000000E+03	9.3827000000E-01	0.000E+00	0.0
	2212	1	0	0	0	0	0.0000000000E+00	0.0000000000E+00	5.7724854984E+03	5.7724854984E+03	9.3827000000E-01	0.000E+00	0.0
	2212	1	0	0	0	0	0.0000000000E+00	0.0000000000E+00	-6.1041160038E+03	6.1041160038E+03	9.3827000000E-01	0.000E+00	0.0
	51	2	1	2	0	0	-8.2080040794E+01	1.3913598460E+02	3.5438453163E+02	1.1418098547E+03	1.0733337751E+03	0.000E+00	0.0
	1000022	2	5	5	0	0	8.2080040794E+01	-1.3913598460E+02	2.4926625462E+02	9.0305747641E+02	8.5280899661E+02	0.000E+00	0.0
	14	1	6	6	0	0	1.1179428177E+02	1.3548434615E+02	2.9680519747E+02	4.7389059364E+02	3.2500000000E+02	0.000E+00	0.0
	-14	1	6	6	0	0	-2.9714240981E+01	-2.7462033076E+02	-4.7538942848E+01	4.2916688277E+02	3.2500000000E+02	0.000E+00	0.0
	25	2	5	5	0	0	-8.2080040794E+01	1.3913598460E+02	8.2364250766E+01	2.2034102141E+02	1.2518123103E+02	0.000E+00	0.0
	-5	1	9	9	0	501	-1.0904380304E+01	-9.8071999954E+00	4.9733521825E+01	5.2019056842E+01	4.1800000000E+00	0.000E+00	0.0
	5	1	9	9	501	0	-7.1175660490E+01	1.4894318460E+02	3.2630728941E+01	1.6832196457E+02	4.1800000000E+00	0.000E+00	0.0
</event>
<event>
    11  -1  1.0000000E+00  1.0000000E+00  -1.0000000E+00  -1.0000000E+00
	2212	-1	0	0	0	0	0.0000000000E+00	0.0000000000E+00	6.5000000000E+03	6.5000000000E+03	9.3827000000E-01	0.000E+00	0.0
	2212	-1	0	0	0	0	0.0000000000E+00	0.0000000000E+00	-6.5000000000E+03	6.5000000000E+03	9.3827000000E-01	0.000E+00	0.0
	2212	1	0	0	0	0	0.0000000000E+00	0.0000000000E+00	6.1739881656E+03	6.1739881656E+03	9.3827000000E-01	0.000E+00	0.0
	2212	1	0	0	0	0	0.0000000000E+00	0.0000000000E+00	-5.6591156859E+03	5.6591156859E+03	9.3827000000E-01	0.000E+00	0.0
	51	2	1	2	0	0	1.7005383053E+01	-6.9497108276E+01	-3.9984957291E+02	1.1231881690E+03	1.0471642426E+03	0.000E+00	0.0
	1000022	2	5	5	0	0	-1.7005383053E+01	6.9497108276E+01	-5.4556655224E+02	1.0194830333E+03	8.5824458117E+02	0.000E+00	0.0
	14	1	6	6	0	0	-5.2911450825E+01	2.4042553046E+02	-5.0389005117E+02	6.4817763074E+02	3.2500000000E+02	0.000E+00	0.0
	-14	1	6	6	0	0	3.5906067772E+01	-1.7092842218E+02	-4.1676501076E+01	3.7130540254E+02	3.2500000000E+02	0.000E+00	0.0
	25	2	5	5	0	0	1.7005383053E+01	-6.9497108276E+01	3.0694072523E+01	1.4741311519E+02	1.2517775094E+02	0.000E+00	0.0
	-5	1	9	9	0	501	-7.3421019219E+00	-1.0253570362E+02	2.0224500601E+01	1.0485218072E+02	4.1800000000E+00	0.000E+00	0.0
	5	1	9	9	501	0	2.4347484975E+01	3.3038595343E+01	1.0469571922E+01	4.2560934471E+01	4.1800000000E+00	0.000E+00	0.0
</event>
<event>
    11  -1  1.0000000E+00  1.0000000E+00  -1.0000000E+00  -1.0000000E+00
	2212	-1	0	0	0	0	0.0000000000E+00	0.0000000000E+00	6.5000000000E+03	6.5000000000E+03	9.3827000000E-01	0.000E+00	0.0
	2212	-1	0	0	0	0	0.0000000000E+00	0.0000000000E+00	-6.5000000000E+03	6.5000000000E+03	9.3827000000E-01	0.000E+00	0.0
	2212	1	0	0	0	0	0.0000000000E+00	0.0000000000E+00	6.3090301682E+03	6.3090301682E+03	9.3827000000E-01	0.000E+00	0.0
	2212	1	0	0	0	0	0.0000000000E+00	0.0000000000E+00	-5.0438768291E+03	5.0438768291E+03	9.3827000000E-01	0.000E+00	0.0
	51	2	1	2	0	0	2.1605450598E+02	5.0949163552E+01	-1.5617154254E+03	1.8975070025E+03	1.0546574742E+03	0.000E+00	0.0
	1000022	2	5	5	0	0	-2.1605450598E+02	-5.0949163552E+01	-6.4823567659E+02	9.7961064300E+02	7.0010867203E+02	0.000E+00	0.0
	14	1	6	6	0	0	-1.6702202491E+02	-5.5595047664E+01	-4.9278876243E+02	6.1599750853E+02	3.2500000000E+02	0.000E+00	0.0
	-14	1	6	6	0	0	-4.9032481069E+01	4.6458841117E+00	-1.5544691416E+02	3.6361313447E+02	3.2500000000E+02	0.000E+00	0.0
	25	2	5	5	0	0	2.1605450598E+02	5.0949163552E+01	-6.1691766254E+02	6.6748235964E+02	1.2517959601E+02	0.000E+00	0.0
	-5	1	9	9	0	501	1.0352902919E+01	-5.1787569377E+00	-1.8867409202E+02	1.8907508435E+02	4.1800000000E+00	0.000E+00	0.0
	5	1	9	9	501	0	2.0570160306E+02	5.6127920490E+01	-4.2824357052E+02	4.7840727529E+02	4.1800000000E+00	0.000E+00	0.0
</event>
<event>
    11  -1  1.0000000E+00  1.0000000E+00  -1.0000000E+00  -1.0000000E+00
	2212	-1	0	0	0	0	0.0000000000E+00	0.0000000000E+00	6.5000000000E+03	6.5000000000E+03	9.3827000000E-01	0.000E+00	0.0
	2212	-1	0	0	0	0	0.0000000000E+00	0.0000000000E+00	-6.5000000000E+03	6.5000000000E+03	9.3827000000E-01	0.000E+00	0.0
	2212	1	0	0	0	0	0.0000000000E+00	0.0000000000E+00	5.9873456766E+03	5.9873456766E+03	9.3827000000E-01	0.000E+00	0.0
	2212	1	0	0	0	0	0.0000000000E+00	0.0000000000E+00	-5.9598214421E+03	5.9598214421E+03	9.3827000000E-01	0.000E+00	0.0
	51	2	1	2	0	0	-1.4583486735E+02	1.5208775804E+01	-1.1341728783E+01	1.0626980958E+03	1.0524730365E+03	0.000E+00	0.0
	1000022	2	5	5	0	0	1.4583486735E+02	-1.5208775804E+01	-3.8915445958E+01	8.5969528098E+02	8.4620473221E+02	0.000E+00	0.0
	14	1	6	6	0	0	3.0000738396E+02	8.6696224573E+01	9.8530630404E+01	4.6136097680E+02	3.2500000000E+02	0.000E+00	0.0
	-14	1	6	6	0	0	-1.5417251661E+02	-1.0190500038E+02	-1.3744607636E+02	3.9833430418E+02	3.2500000000E+02	0.000E+00	0.0
	25	2	5	5	0	0	-1.4583486735E+02	1.5208775804E+01	1.1391211464E+01	1.9313760041E+02	1.2519288158E+02	0.000E+00	0.0
	-5	1	9	9	0	501	-7.5959132977E+01	-4.4210263405E+01	-2.9256005861E+01	9.2723910357E+01	4.1800000000E+00	0.000E+00	0.0
	5	1	9	9	501	0	-6.9875734369E+01	5.9419039208E+01	4.0647217325E+01	1.0041369005E+02	4.1800000000E+00	0.000E+00	0.0
</event>
<event>
    11  -1  1.0000000E+00  1.0000000E+00  -1.0000000E+00  -1.0000000E+00
	2212	-1	0	0	0	0	0.0000000000E+00	0.0000000000E+00	6.5000000000E+03	6.5000000000E+03	9.3827000000E-01	0.000E+00	0.0
	2212	-1	0	0	0	0	0.0000000000E+00	0.0000000000E+00	-6.5000000000E+03	6.5000000000E+03	9.3827000000E-01	0.000E+00	0.0
	2212	1	0	0	0	0	0.0000000000E+00	0.0000000000E+00	5.4574146921E+03	5.4574146921E+03	9.3827000000E-01	0.000E+00	0.0
	2212	1	0	0	0	0	0.0000000000E+00	0.0000000000E+00	-6.2323367941E+03	6.2323367941E+03	9.3827000000E-01	0.000E+00	0.0
	51	2	1	2	0	0	7.9230158810E-01	1.0190711478E+02	6.5127208547E+02	1.2453063562E+03	1.0565258652E+03	0.000E+00	0.0
	1000022	2	5	5	0	0	-7.9230158810E-01	-1.0190711478E+02	7.6449059400E+02	1.1484838608E+03	8.5098978977E+02	0.000E+00	0.0
	14	1	6	6	0	0	2.5877602178E+01	9.7524956494E+01	5.7990453753E+01	3.4520814034E+02	3.2500000000E+02	0.000E+00	0.0
	-14	1	6	6	0	0	-2.6669903766E+01	-1.9943207128E+02	7.0650014025E+02	8.0327572041E+02	3.2500000000E+02	0.000E+00	0.0
	25	2	5	5	0	0	7.9230158810E-01	1.0190711478E+02	1.0431507989E+01	1.6176465305E+02	1.2519304625E+02	0.000E+00	0.0
	-5	1	9	9	0	501	-5.8937562786E+01	2.9640176159E+01	1.5076277943E+01	6.7800758893E+01	4.1800000000E+00	0.000E+00	0.0
	5	1	9	9	501	0	5.9729864374E+01	7.2266938626E+01	-4.6447699542E+00	9.3963894153E+01	4.1800000000E+00	0.000E+00	0.0
</event>
<event>
    11  -1  1.0000000E+00  1.0000000E+00  -1.0000000E+00  -1.0000000E+00
	2212	-1	0	0	0	0	0.0000000000E+00	0.0000000000E+00	6.5000000000E+03	6.5000000000E+03	9.3827000000E-01	0.000E+00	0.0
	2212	-1	0	0	0	0	0.0000000000E+00	0.0000000000E+00	-6.5000000000E+03	6.5000000000E+03	9.3827000000E-01	0.000E+00	0.0
	2212	1	0	0	0	0	0.0000000000E+00	0.0000000000E+00	5.6486189229E+03	5.6486189229E+03	9.3827000000E-01	0.000E+00	0.0
	2212	1	0	0	0	0	0.0000000000E+00	0.0000000000E+00	-6.1774542430E+03	6.1774542430E+03	9.3827000000E-01	0.000E+00	0.0
	51	2	1	2	0	0	9.0730696370E+00	4.5977184578E+01	3.8811489743E+02	1.1186003806E+03	1.0480636507E+03	0.000E+00	0.0
	1000022	2	5	5	0	0	-9.0730696370E+00	-4.5977184578E+01	5.8013288613E+02	1.0307493542E+03	8.5070197102E+02	0.000E+00	0.0
	14	1	6	6	0	0	-2.4394674801E+02	-2.0571370591E+01	4.5394216231E+02	6.0960781153E+02	3.2500000000E+02	0.000E+00	0.0
	-14	1	6	6	0	0	2.3487367837E+02	-2.5405813987E+01	1.2619072382E+02	4.2114154266E+02	3.2500000000E+02	0.000E+00	0.0
	25	2	5	5	0	0	9.0730696370E+00	4.5977184578E+01	-5.1297565979E+01	1.4317747987E+02	1.2518837155E+02	0.000E+00	0.0
	-5	1	9	9	0	501	2.2808657909E+01	4.7373349213E-01	3.6503676252E+01	4.3248700315E+01	4.1800000000E+00	0.000E+00	0.0
	5	1	9	9	501	0	-1.3735588272E+01	4.5503451086E+01	-8.7801242230E+01	9.9928779554E+01	4.1800000000E+00	0.000E+00	0.0
</event>
<event>
    11  -1  1.0000000E+00  1.0000000E+00  -1.0000000E+00  -1.0000000E+00
	2212	-1	0	0	0	0	0.0000000000E+00	0.0000000000E+00	6.5000000000E+03	6.5000000000E+03	9.3827000000E-01	0.000E+00	0.0
	2212	-1	0	0	0	0	0.0000000000E+00	0.0000000000E+00	-6.5000000000E+03	6.5000000000E+03	9.3827000000E-01	0.000E+00	0.0
	2212	1	0	0	0	0	0.0000000000E+00	0.0000000000E+00	6.0235964820E+03	6.0235964820E+03	9.3827000000E-01	0.000E+00	0.0
	2212	1	0	0	0	0	0.0000000000E+00	0.0000000000E+00	-5.9239577550E+03	5.9239577550E+03	9.3827000000E-01	0.000E+00	0.0
	51	2	1	2	0	0	-8.8188570328E+01	-9.1733691026E+01	-1.7063730175E+02	1.0691228138E+03	1.0477185730E+03	0.000E+00	0.0
	1000022	2	5	5	0	0	8.8188570328E+01	9.1733691026E+01	-1.1366253457E+01	8.5331112584E+02	8.4369330432E+02	0.000E+00	0.0
	14	1	6	6	0	0	-7.5190718383E+01	2.3986210938E+02	-1.4912465439E+02	4.3709339756E+02	3.2500000000E+02	0.000E+00	0.0
	-14	1	6	6	0	0	1.6337928871E+02	-1.4812841835E+02	1.3775840093E+02	4.1621772827E+02	3.2500000000E+02	0.000E+00	0.0
	25	2	5	5	0	0	-8.8188570328E+01	-9.1733691026E+01	-8.8272473571E+01	1.9913463721E+02	1.2518098953E+02	0.000E+00	0.0
	-5	1	9	9	0	501	-7.5477500311E+01	9.2232387578E+00	-3.0379525334E+01	8.1989689266E+01	4.1800000000E+00	0.000E+00	0.0
	5	1	9	9	501	0	-1.2711070016E+01	-1.0095692978E+02	-5.7892948237E+01	1.1714494794E+02	4.1800000000E+00	0.000E+00	0.0
</event>
<event>
    11  -1  1.0000000E+00  1.0000000E+00  -1.0000000E+00  -1.0000000E+00
	2212	-1	0	0	0	0	0.0000000000E+00	0.0000000000E+00	6.5000000000E+03	6.5000000000E+03	9.3827000000E-01	0.000E+00	0.0
	2212	-1	0	0	0	0	0.0000000000E+00	0.0000000000E+00	-6.5000000000E+03	6.5000000000E+03	9.3827000000E-01	0.000E+00	0.0
	2212	1	0	0	0	0	0.0000000000E+00	0.0000000000E+00	5.4999245431E+03	5.4999245431E+03	9.3827000000E-01	0.000E+00	0.0
	2212	1	0	0	0	0	0.0000000000E+00	0.0000000000E+00	-6.2252269755E+03	6.2252269755E+03	9.3827000000E-01	0.000E+00	0.0
	51	2	1	2	0	0	1.1009688741E+00	1.1246963067E+02	7.8951685571E+02	1.3172556803E+03	1.0484154863E+03	0.000E+00	0.0
	1000022	2	5	5	0	0	-1.1009688741E+00	-1.1246963067E+02	5.4479579607E+02	1.0280369614E+03	8.6452698315E+02	0.000E+00	0.0
	14	1	6	6	0	0	-7.6944864273E+01	1.5473314730E+02	4.6513073532E+02	5.9315635371E+02	3.2500000000E+02	0.000E+00	0.0
	-14	1	6	6	0	0	7.5843895399E+01	-2.6720277797E+02	7.9665060749E+01	4.3488060767E+02	3.2500000000E+02	0.000E+00	0.0
	25	2	5	5	0	0	1.1009688741E+00	1.1246963067E+02	1.8050663636E+02	2.4681152000E+02	1.2523039039E+02	0.000E+00	0.0
	-5	1	9	9	0	501	-4.8377365932E+01	7.6910864161E+01	5.2597306747E+01	1.0506949908E+02	4.1800000000E+00	0.000E+00	0.0
	5	1	9	9	501	0	4.9478334806E+01	3.5558766514E+01	1.2790932962E+02	1.4174202092E+02	4.1800000000E+00	0.000E+00	0.0
</event>
<event>
    11  -1  1.0000000E+00  1.0000000E+00  -1.0000000E+00  -1.0000000E+00
	2212	-1	0	0	0	0	0.0000000000E+00	0.0000000000E+00	6.5000000000E+03	6.5000000000E+03	9.3827000000E-01	0.000E+00	0.0
	2212	-1	0	0	0	0	0.0000000000E+00	0.0000000000E+00	-6.5000000000E+03	6.5000000000E+03	9.3827000000E-01	0.000E+00	0.0
	2212	1	0	0	0	0	0.0000000000E+00	0.0000000000E+00	5.9536839962E+03	5.9536839962E+03	9.3827000000E-01	0.000E+00	0.0
	2212	1	0	0	0	0	0.0000000000E+00	0.0000000000E+00	-5.9922685613E+03	5.9922685613E+03	9.3827000000E-01	0.000E+00	0.0
	51	2	1	2	0	0	1.1586879669E+02	-6.9703817884E+01	1.8128773430E+01	1.0621393954E+03	1.0533409906E+03	0.000E+00	0.0
	1000022	2	5	5	0	0	-1.1586879669E+02	6.9703817884E+01	5.2571738649E+01	8.6924673939E+02	8.5705420246E+02	0.000E+00	0.0
	14	1	6	6	0	0	-9.3890583658E+01	1.2345937229E+02	-2.3616821558E+02	4.3064844636E+02	3.2500000000E+02	0.000E+00	0.0
	-14	1	6	6	0	0	-2.1978213029E+01	-5.3755554406E+01	2.8873995423E+02	4.3859829303E+02	3.2500000000E+02	0.000E+00	0.0
	25	2	5	5	0	0	1.1586879669E+02	-6.9703817884E+01	-1.3987173604E+01	1.8480070316E+02	1.2518569642E+02	0.000E+00	0.0
	-5	1	9	9	0	501	1.0921326378E+02	-2.9513435288E+01	-5.5853026169E+01	1.2623633701E+02	4.1800000000E+00	0.000E+00	0.0
	5	1	9	9	501	0	6.6555329048E+00	-4.0190382596E+01	4.1865852565E+01	5.8564366149E+01	4.1800000000E+00	0.000E+00	0.0
</event>
<event>
    11  -1  1.0000000E+00  1.0000000E+00  -1.0000000E+00  -1.0000000E+00
	2212	-1	0	0	0	0	0.0000000000E+00	0.0000000000E+00	6.5000000000E+03	6.5000000000E+03	9.3827000000E-01	0.000E+00	0.0
	2212	-1	0	0	0	0	0.0000000000E+00	0.0000000000E+00	-6.5000000000E+03	6.5000000000E+03	9.3827000000E-01	0.000E+00	0.0
	2212	1	0	0	0	0	0.0000000000E+00	0.0000000000E+00	5.8667275036E+03	5.8667275036E+03	9.3827000000E-01	0.000E+00	0.0
	2212	1	0	0	0	0	0.0000000000E+00	0.0000000000E+00	-6.0584465597E+03	6.0584465597E+03	9.3827000000E-01	0.000E+00	0.0
	51	2	1	2	0	0	-7.1778139436E+01	1.4478302305E+02	2.2830078668E+02	1.0939515858E+03	1.0575890496E+03	0.000E+00	0.0
	1000022	2	5	5	0	0	7.1778139436E+01	-1.4478302305E+02	1.1990207421E+02	8.5816248015E+02	8.3423744215E+02	0.000E+00	0.0
	14	1	6	6	0	0	7.0517109473E+01	-3.1455782085E+02	1.6953158636E+02	4.8814469593E+02	3.2500000000E+02	0.000E+00	0.0
	-14	1	6	6	0	0	1.2610299630E+00	1.6977479781E+02	-4.9629512147E+01	3.7001778423E+02	3.2500000000E+02	0.000E+00	0.0
	25	2	5	5	0	0	-7.1778139436E+01	1.4478302305E+02	7.1816981895E+01	2.1666345664E+02	1.2518446186E+02	0.000E+00	0.0
	-5	1	9	9	0	501	-9.6238348519E+01	1.4583599416E+02	7.7490905619E+01	1.9118647905E+02	4.1800000000E+00	0.000E+00	0.0
	5	1	9	9	501	0	2.4460209083E+01	-1.0529711122E+00	-5.6739237232E+00	2.5476977587E+01	4.1800000000E+00	0.000E+00	0.0
</event>
<event>
    11  -1  1.0000000E+00  1.0000000E+00  -1.0000000E+00  -1.0000000E+00
	2212	-1	0	0	0	0	0.0000000000E+00	0.0000000000E+00	6.5000000000E+03	6.5000000000E+03	9.3827000000E-01	0.000E+00	0.0
	2212	-1	0	0	0	0	0.0000000000E+00	0.0000000000E+00	-6.5000000000E+03	6.5000000000E+03	9.3827000000E-01	0.000E+00	0.0
	2212	1	0	0	0	0	0.0000000000E+00	0.0000000000E+00	5.9088694780E+03	5.9088694780E+03	9.3827000000E-01	0.000E+00	0.0
	2212	1	0	0	0	0	0.0000000000E+00	0.0000000000E+00	-6.0296829649E+03	6.0296829649E+03	9.3827000000E-01	0.000E+00	0.0
	51	2	1	2	0	0	-1.5932472212E+01	-2.4345471817E+01	1.9286585708E+02	1.0724359199E+03	1.0545496753E+03	0.000E+00	0.0
	1000022	2	5	5	0	0	1.5932472212E+01	2.4345471817E+01	3.2246793355E+01	9.0536704790E+02	9.0432465966E+02	0.000E+00	0.0
	14	1	6	6	0	0	2.8007350665E+02	1.4526038901E+02	1.0098096204E+02	4.6407316712E+02	3.2500000000E+02	0.000E+00	0.0
	-14	1	6	6	0	0	-2.6414103443E+02	-1.2091491719E+02	-6.8734168689E+01	4.4129388078E+02	3.2500000000E+02	0.000E+00	0.0
	25	2	5	5	0	0	-1.5932472212E+01	-2.4345471817E+01	8.8566693510E+01	1.5608050914E+02	1.2518194944E+02	0.000E+00	0.0
	-5	1	9	9	0	501	5.1888232816E+01	5.8455516370E+00	2.4062769268E+01	5.7645888349E+01	4.1800000000E+00	0.000E+00	0.0
	5	1	9	9	501	0	-6.7820705028E+01	-3.0191023454E+01	6.4503924241E+01	9.8434620791E+01	4.1800000000E+00	0.000E+00	0.0
</event>
<event>
    11  -1  1.0000000E+00  1.0000000E+00  -1.0000000E+00  -1.0000000E+00
	2212	-1	0	0	0	0	0.0000000000E+00	0.0000000000E+00	6.5000000000E+03	6.5000000000E+03	9.3827000000E-01	0.000E+00	0.0
	2212	-1	0	0	0	0	0.0000000000E+00	0.0000000000E+00	-6.5000000000E+03	6.5000000000E+03	9.3827000000E-01	0.000E+00	0.0
	2212	1	0	0	0	0	0.0000000000E+00	0.0000000000E+00	6.2990428696E+03	6.2990428696E+03	9.3827000000E-01	0.000E+00	0.0
	2212	1	0	0	0	0	0.0000000000E+00	0.0000000000E+00	-5.1283531336E+03	5.1283531336E+03	9.3827000000E-01	0.000E+00	0.0
	51	2	1	2	0	0	-1.2510356048E+02	-1.3584232972E+01	-1.0753224109E+03	1.5082183504E+03	1.0500327961E+03	0.000E+00	0.0
	1000022	2	5	5	0	0	1.2510356048E+02	1.3584232972E+01	-1.0639390210E+03	1.3654816356E+03	8.4660405425E+02	0.000E+00	0.0
	14	1	6	6	0	0	1.9970636770E+02	-2.3883075041E+01	-1.8490358653E+02	4.2457905140E+02	3.2500000000E+02	0.000E+00	0.0
	-14	1	6	6	0	0	-7.4602807225E+01	3.7467308013E+01	-8.7903543443E+02	9.4090258422E+02	3.2500000000E+02	0.000E+00	0.0
	25	2	5	5	0	0	-1.2510356048E+02	-1.3584232972E+01	-1.0675071507E+02	2.0712236121E+02	1.2517397939E+02	0.000E+00	0.0
	-5	1	9	9	0	501	-1.0297706487E+02	4.4368439894E+01	-8.6685744408E+01	1.4179113171E+02	4.1800000000E+00	0.000E+00	0.0
	5	1	9	9	501	0	-2.2126495607E+01	-5.7952672866E+01	-2.0064970662E+01	6.5331229499E+01	4.1800000000E+00	0.000E+00	0.0
</event>
<event>
    11  -1  1.0000000E+00  1.0000000E+00  -1.0000000E+00  -1.0000000E+00
	2212	-1	0	0	0	0	0.0000000000E+00	0.0000000000E+00	6.5000000000E+03	6.5000000000E+03	9.3827000000E-01	0.000E+00	0.0
	2212	-1	0	0	0	0	0.0000000000E+00	0.0000000000E+00	-6.5000000000E+03	6.5000000000E+03	9.3827000000E-01	0.000E+00	0.0
	2212	1	0	0	0	0	0.0000000000E+00	0.0000000000E+00	6.1210606562E+03	6.1210606562E+03	9.3827000000E-01	0.000E+00	0.0
	2212	1	0	0	0	0	0.0000000000E+00	0.0000000000E+00	-5.7738949561E+03	5.7738949561E+03	9.3827000000E-01	0.000E+00	0.0
	51	2	1	2	0	0	5.6079893217E+01	1.3094184282E+02	-3.3976548153E+02	1.1119039431E+03	1.0490944074E+03	0.000E+00	0.0
	1000022	2	5	5	0	0	-5.6079893217E+01	-1.3094184282E+02	-2.9492517340E+02	9.0834559794E+02	8.4724267289E+02	0.000E+00	0.0
	14	1	6	6	0	0	3.2333575096E+01	1.5866842950E+01	-4.0898479180E+02	5.2363229151E+02	3.2500000000E+02	0.000E+00	0.0
	-14	1	6	6	0	0	-8.8413468313E+01	-1.4680868577E+02	1.1405961840E+02	3.8471330643E+02	3.2500000000E+02	0.000E+00	0.0
	25	2	5	5	0	0	5.6079893217E+01	1.3094184282E+02	-5.2240526647E+01	1.9669878980E+02	1.2518234964E+02	0.000E+00	0.0
	-5	1	9	9	0	501	7.2875694641E+01	7.4713242359E+01	1.7012871200E+01	1.0582932316E+02	4.1800000000E+00	0.000E+00	0.0
	5	1	9	9	501	0	-1.6795801424E+01	5.6228600457E+01	-6.9253397847E+01	9.0869466645E+01	4.1800000000E+00	0.000E+00	0.0
</event>
<event>
    11  -1  1.0000000E+00  1.0000000E+00  -1.0000000E+00  -1.0000000E+00
	2212	-1	0	0	0	0	0.0000000000E+00	0.0000000000E+00	6.5000000000E+03	6.5000000000E+03	9.3827000000E-01	0.000E+00	0.0
	2212	-1	0	0	0	0	0.0000000000E+00	0.0000000000E+00	-6.5000000000E+03	6.5000000000E+03	9.3827000000E-01	0.000E+00	0.0
	2212	1	0	0	0	0	0.0000000000E+00	0.0000000000E+00	5.6273385801E+03	5.6273385801E+03	9.3827000000E-01	0.000E+00	0.0
	2212	1	0	0	0	0	0.0000000000E+00	0.0000000000E+00	-6.1824060274E+03	6.1824060274E+03	9.3827000000E-01	0.000E+00	0.0
	51	2	1	2	0	0	-1.0161918307E+02	-1.4511548474E+01	4.5766695913E+02	1.1526509086E+03	1.0529045675E+03	0.000E+00	0.0
	1000022	2	5	5	0	0	1.0161918307E+02	1.4511548474E+01	5.5940739832E+02	1.0283060985E+03	8.5670283729E+02	0.000E+00	0.0
	14	1	6	6	0	0	-2.2041012450E+02	6.8842635726E+01	3.0523616346E+02	5.0210959656E+02	3.2500000000E+02	0.000E+00	0.0
	-14	1	6	6	0	0	3.2202930758E+02	-5.4331087252E+01	2.5417123486E+02	5.2619650190E+02	3.2500000000E+02	0.000E+00	0.0
	25	2	5	5	0	0	-1.0161918307E+02	-1.4511548474E+01	-4.3399510713E+00	1.6194929400E+02	1.2518664163E+02	0.000E+00	0.0
	-5	1	9	9	0	501	-1.4022558883E+01	4.7915171616E+01	-1.8435828260E+01	5.3383967558E+01	4.1800000000E+00	0.000E+00	0.0
	5	1	9	9	501	0	-8.7596624192E+01	-6.2426720089E+01	1.4095877189E+01	1.0856532644E+02	4.1800000000E+00	0.000E+00	0.0
</event>
<event>
    11  -1  1.0000000E+00  1.0000000E+00  -1.0000000E+00  -1.0000000E+00
	2212	-1	0	0	0	0	0.0000000000E+00	0.0000000000E+00	6.5000000000E+03	6.5000000000E+03	9.3827000000E-01	0.000E+00	0.0
	2212	-1	0	0	0	0	0.0000000000E+00	0.0000000000E+00	-6.5000000000E+03	6.5000000000E+03	9.3827000000E-01	0.000E+00	0.0
	2212	1	0	0	0	0	0.0000000000E+00	0.0000000000E+00	5.2538140180E+03	5.2538140180E+03	9.3827000000E-01	0.000E+00	0.0
	2212	1	0	0	0	0	0.0000000000E+00	0.0000000000E+00	-6.2721954092E+03	6.2721954092E+03	9.3827000000E-01	0.000E+00	0.0
	51	2	1	2	0	0	-1.2370074122E+02	6.8452135628E+01	1.0641619543E+03	1.5126056274E+03	1.0656207349E+03	0.000E+00	0.0
	1000022	2	5	5	0	0	1.2370074122E+02	-6.8452135628E+01	7.9960887873E+02	1.1849894598E+03	8.6304002956E+02	0.000E+00	0.0
	14	1	6	6	0	0	2.7743847233E+02	-3.2116956792E+01	6.8110706858E+02	8.0469587032E+02	3.2500000000E+02	0.000E+00	0.0
	-14	1	6	6	0	0	-1.5373773110E+02	-3.6335178836E+01	1.1850181015E+02	3.8029358947E+02	3.2500000000E+02	0.000E+00	0.0
	25	2	5	5	0	0	-1.2370074122E+02	6.8452135628E+01	2.1877251246E+02	2.8900111297E+02	1.2519050619E+02	0.000E+00	0.0
	-5	1	9	9	0	501	-7.6928815459E+01	4.8694030173E+01	3.3905997549E+01	9.7243201779E+01	4.1800000000E+00	0.000E+00	0.0
	5	1	9	9	501	0	-4.6771925763E+01	1.9758105455E+01	1.8486651491E+02	1.9175791119E+02	4.1800000000E+00	0.000E+00	0.0
</event>
<event>
    11  -1  1.0000000E+00  1.0000000E+00  -1.0000000E+00  -1.0000000E+00
	2212	-1	0	0	0	0	0.0000000000E+00	0.0000000000E+00	6.5000000000E+03	6.5000000000E+03	9.3827000000E-01	0.000E+00	0.0
	2212	-1	0	0	0	0	0.0000000000E+00	0.0000000000E+00	-6.5000000000E+03	6.5000000000E+03	9.3827000000E-01	0.000E+00	0.0
	2212	1	0	0	0	0	0.0000000000E+00	0.0000000000E+00	6.2515087014E+03	6.2515087014E+03	9.3827000000E-01	0.000E+00	0.0
	2212	1	0	0	0	0	0.0000000000E+00	0.0000000000E+00	-5.4150081228E+03	5.4150081228E+03	9.3827000000E-01	0.000E+00	0.0
	51	2	1	2	0	0	7.6472037581E+00	3.0863536459E+01	-1.0051771597E+03	1.4456266192E+03	1.0384816620E+03	0.000E+00	0.0
	1000022	2	5	5	0	0	-7.6472037581E+00	-3.0863536459E+01	-5.2888048552E+02	9.9984695610E+02	8.4792000216E+02	0.000E+00	0.0
	14	1	6	6	0	0	8.1302994257E+01	1.6644907114E+02	-4.3059617629E+01	3.7655623860E+02	3.2500000000E+02	0.000E+00	0.0
	-14	1	6	6	0	0	-8.8950198015E+01	-1.9731260760E+02	-4.8582086789E+02	6.2329071750E+02	3.2500000000E+02	0.000E+00	0.0
	25	2	5	5	0	0	7.6472037581E+00	3.0863536459E+01	-3.0762009304E+02	3.3363621975E+02	1.2518773052E+02	0.000E+00	0.0
	-5	1	9	9	0	501	6.1434223383E+01	9.8762388493E+00	-9.7918198015E+01	1.1609112713E+02	4.1800000000E+00	0.000E+00	0.0
	5	1	9	9	501	0	-5.3787019625E+01	2.0987297610E+01	-2.0970189503E+02	2.1754509261E+02	4.1800000000E+00	0.000E+00	0.0
</event>
<event>
    11  -1  1.0000000E+00  1.0000000E+00  -1.0000000E+00  -1.0000000E+00
	2212	-1	0	0	0	0	0.0000000000E+00	0.0000000000E+00	6.5000000000E+03	6.5000000000E+03	9.3827000000E-01	0.000E+00	0.0
	2212	-1	0	0	0	0	0.0000000000E+00	0.0000000000E+00	-6.5000000000E+03	6.5000000000E+03	9.3827000000E-01	0.000E+00	0.0
	2212	1	0	0	0	0	0.0000000000E+00	0.0000000000E+00	6.3149037560E+03	6.3149037560E+03	9.3827000000E-01	0.000E+00	0.0
	2212	1	0	0	0	0	0.0000000000E+00	0.0000000000E+00	-4.9852501925E+03	4.9852501925E+03	9.3827000000E-01	0.000E+00	0.0
	51	2	1	2	0	0	1.2721723814E+02	7.7663408848E+01	-1.3675412347E+03	1.7360538181E+03	1.0590080265E+03	0.000E+00	0.0
	1000022	2	5	5	0	0	-1.2721723814E+02	-7.7663408848E+01	-1.0598561776E+03	1.3671619519E+03	8.5065907081E+02	0.000E+00	0.0
	14	1	6	6	0	0	6.1710966723E+01	1.3394322573E+02	-7.6639152036E+02	8.4541705306E+02	3.2500000000E+02	0.000E+00	0.0
	-14	1	6	6	0	0	-1.8892820487E+02	-2.1160663458E+02	-2.9346465719E+02	5.2174489879E+02	3.2500000000E+02	0.000E+00	0.0
	25	2	5	5	0	0	1.2721723814E+02	7.7663408848E+01	-2.6979738589E+02	3.3268409968E+02	1.2518885728E+02	0.000E+00	0.0
	-5	1	9	9	0	501	6.4857718494E+01	3.9711648237E+01	-2.4324819412E+02	2.5489349736E+02	4.1800000000E+00	0.000E+00	0.0
	5	1	9	9	501	0	6.2359519651E+01	3.7951760611E+01	-2.6549191769E+01	7.7790602313E+01	4.1800000000E+00	0.000E+00	0.0
</event>
<event>
    11  -1  1.0000000E+00  1.0000000E+00  -1.0000000E+00  -1.0000000E+00
	2212	-1	0	0	0	0	0.0000000000E+00	0.0000000000E+00	6.5000000000E+03	6.5000000000E+03	9.3827000000E-01	0.000E+00	0.0
	2212	-1	0	0	0	0	0.0000000000E+00	0.0000000000E+00	-6.5000000000E+03	6.5000000000E+03	9.3827000000E-01	0.000E+00	0.0
	2212	1	0	0	0	0	0.0000000000E+00	0.0000000000E+00	4.9776798580E+03	4.9776798580E+03	9.3827000000E-01	0.000E+00	0.0
	2212	1	0	0	0	0	0.0000000000E+00	0.0000000000E+00	-6.3206400825E+03	6.3206400825E+03	9.3827000000E-01	0.000E+00	0.0
	51	2	1	2	0	0	7.6722505933E+01	1.3005391668E+02	1.4174328598E+03	1.7675093032E+03	1.0450707443E+03	0.000E+00	0.0
	1000022	2	5	5	0	0	-7.6722505933E+01	-1.3005391668E+02	1.0268257463E+03	1.3296383671E+03	8.3112376316E+02	0.000E+00	0.0
	14	1	6	6	0	0	5.0795571576E+01	-2.9722664220E+02	4.2545003935E+02	6.1445634744E+02	3.2500000000E+02	0.000E+00	0.0
	-14	1	6	6	0	0	-1.2751807751E+02	1.6717272552E+02	6.0137570699E+02	7.1518201963E+02	3.2500000000E+02	0.000E+00	0.0
	25	2	5	5	0	0	7.6722505933E+01	1.3005391668E+02	3.1613447815E+02	3.7204169247E+02	1.2519444277E+02	0.000E+00	0.0
	-5	1	9	9	0	501	1.9643087743E+01	1.3579390941E+02	2.4185175151E+02	2.7809275222E+02	4.1800000000E+00	0.000E+00	0.0
	5	1	9	9	501	0	5.7079418190E+01	-5.7399927262E+00	7.4282726639E+01	9.3948940251E+01	4.1800000000E+00	0.000E+00	0.0
</event>
<event>
    11  -1  1.0000000E+00  1.0000000E+00  -1.0000000E+00  -1.0000000E+00
	2212	-1	0	0	0	0	0.0000000000E+00	0.0000000000E+00	6.5000000000E+03	6.5000000000E+03	9.3827000000E-01	0.000E+00	0.0
	2212	-1	0	0	0	0	0.0000000000E+00	0.0000000000E+00	-6.5000000000E+03	6.5000000000E+03	9.3827000000E-01	0.000E+00	0.0
	2212	1	0	0	0	0	0.0000000000E+00	0.0000000000E+00	5.4182276465E+03	5.4182276465E+03	9.3827000000E-01	0.000E+00	0.0
	2212	1	0	0	0	0	0.0000000000E+00	0.0000000000E+00	-6.2346112000E+03	6.2346112000E+03	9.3827000000E-01	0.000E+00	0.0
	51	2	1	2	0	0	1.2727746857E+01	-1.1893158551E+02	9.4867906316E+02	1.4361962783E+03	1.0716161007E+03	0.000E+00	0.0
	1000022	2	5	5	0	0	-1.2727746857E+01	1.1893158551E+02	5.4082985715E+02	1.0217275087E+03	8.5855893803E+02	0.000E+00	0.0
	14	1	6	6	0	0	3.4457149901E+01	-3.3854460669E+01	5.7045026400E+02	6.5830989920E+02	3.2500000000E+02	0.000E+00	0.0
	-14	1	6	6	0	0	-4.7184896758E+01	1.5278604618E+02	-2.9620406853E+01	3.6341760950E+02	3.2500000000E+02	0.000E+00	0.0
	25	2	5	5	0	0	1.2727746857E+01	-1.1893158551E+02	2.7555369628E+02	3.2543364482E+02	1.2518186800E+02	0.000E+00	0.0
	-5	1	9	9	0	501	-3.9194555307E+01	-9.8304483234E+01	2.3004055916E+02	2.5325109249E+02	4.1800000000E+00	0.000E+00	0.0
	5	1	9	9	501	0	5.1922302165E+01	-2.0627102276E+01	4.5513137125E+01	7.2182552333E+01	4.1800000000E+00	0.000E+00	0.0
</event>
<event>
    11  -1  1.0000000E+00  1.0000000E+00  -1.0000000E+00  -1.0000000E+00
	2212	-1	0	0	0	0	0.0000000000E+00	0.0000000000E+00	6.5000000000E+03	6.5000000000E+03	9.3827000000E-01	0.000E+00	0.0
	2212	-1	0	0	0	0	0.0000000000E+00	0.0000000000E+00	-6.5000000000E+03	6.5000000000E+03	9.3827000000E-01	0.000E+00	0.0
	2212	1	0	0	0	0	0.0000000000E+00	0.0000000000E+00	5.9350199815E+03	5.9350199815E+03	9.3827000000E-01	0.000E+00	0.0
	2212	1	0	0	0	0	0.0000000000E+00	0.0000000000E+00	-6.0115159875E+03	6.0115159875E+03	9.3827000000E-01	0.000E+00	0.0
	51	2	1	2	0	0	4.0244227185E+01	5.2158194242E+01	-4.0473030743E+01	1.0535240703E+03	1.0506830281E+03	0.000E+00	0.0
	1000022	2	5	5	0	0	-4.0244227185E+01	-5.2158194242E+01	1.8071076044E+02	8.7775851239E+02	8.5642486657E+02	0.000E+00	0.0
	14	1	6	6	0	0	1.2835816632E+02	-7.4029596054E+01	3.2567315191E+02	4.8336756390E+02	3.2500000000E+02	0.000E+00	0.0
	-14	1	6	6	0	0	-1.6860239350E+02	2.1871401812E+01	-1.4496239147E+02	3.9439094849E+02	3.2500000000E+02	0.000E+00	0.0
	25	2	5	5	0	0	4.0244227185E+01	5.2158194242E+01	-1.0421475445E+02	1.7570551854E+02	1.2518641760E+02	0.000E+00	0.0
	-5	1	9	9	0	501	6.1289311587E+01	-1.8484131478E+01	-6.7956250452E+01	9.3453556416E+01	4.1800000000E+00	0.000E+00	0.0
	5	1	9	9	501	0	-2.1045084402E+01	7.0642325720E+01	-3.6258504000E+01	8.2251962122E+01	4.1800000000E+00	0.000E+00	0.0
</event>
<event>
    11  -1  1.0000000E+00  1.0000000E+00  -1.0000000E+00  -1.0000000E+00
	2212	-1	0	0	0	0	0.0000000000E+00	0.0000000000E+00	6.5000000000E+03	6.5000000000E+03	9.3827000000E-01	0.000E+00	0.0
	2212	-1	0	0	0	0	0.0000000000E+00	0.0000000000E+00	-6.5000000000E+03	6.5000000000E+03	9.3827000000E-01	0.000E+00	0.0
	2212	1	0	0	0	0	0.0000000000E+00	0.0000000000E+00	5.3565958245E+03	5.3565958245E+03	9.3827000000E-01	0.000E+00	0.0
	2212	1	0	0	0	0	0.0000000000E+00	0.0000000000E+00	-6.2611232223E+03	6.2611232223E+03	9.3827000000E-01	0.000E+00	0.0
	51	2	1	2	0	0	-1.1654562576E+02	2.2422533176E-02	1.0087189569E+03	1.4572671812E+03	1.0452419912E+03	0.000E+00	0.0
	1000022	2	5	5	0	0	1.1654562576E+02	-2.2422533176E-02	6.4721791289E+02	1.0733029268E+03	8.4823656041E+02	0.000E+00	0.0
	14	1	6	6	0	0	3.2237338143E+02	1.8291024448E+01	4.4340663102E+02	6.3756850538E+02	3.2500000000E+02	0.000E+00	0.0
	-14	1	6	6	0	0	-2.0582775567E+02	-1.8313446981E+01	2.0381128188E+02	4.3573442137E+02	3.2500000000E+02	0.000E+00	0.0
	25	2	5	5	0	0	-1.1654562576E+02	2.2422533176E-02	2.5730948494E+02	3.0897802644E+02	1.2520529700E+02	0.000E+00	0.0
	-5	1	9	9	0	501	-2.2292155710E+00	3.5099305757E+01	1.4464869488E+01	3.8257489672E+01	4.1800000000E+00	0.000E+00	0.0
	5	1	9	9	501	0	-1.1431641019E+02	-3.5076883224E+01	2.4284461545E+02	2.7072053677E+02	4.1800000000E+00	0.000E+00	0.0
</event>
<event>
    11  -1  1.0000000E+00  1.0000000E+00  -1.0000000E+00  -1.0000000E+00
	2212	-1	0	0	0	0	0.0000000000E+00	0.0000000000E+00	6.5000000000E+03	6.5000000000E+03	9.3827000000E-01	0.000E+00	0.0
	2212	-1	0	0	0	0	0.0000000000E+00	0.0000000000E+00	-6.5000000000E+03	6.5000000000E+03	9.3827000000E-01	0.000E+00	0.0
	2212	1	0	0	0	0	0.0000000000E+00	0.0000000000E+00	5.4928680647E+03	5.4928680647E+03	9.3827000000E-01	0.000E+00	0.0
	2212	1	0	0	0	0	0.0000000000E+00	0.0000000000E+00	-6.2166401222E+03	6.2166401222E+03	9.3827000000E-01	0.000E+00	0.0
	51	2	1	2	0	0	-7.6401742393E+00	1.2983969563E+02	7.9127827432E+02	1.3358746777E+03	1.0684208574E+03	0.000E+00	0.0
	1000022	2	5	5	0	0	7.6401742393E+00	-1.2983969563E+02	5.3538272842E+02	1.0295733178E+03	8.6975274192E+02	0.000E+00	0.0
	14	1	6	6	0	0	2.6400671193E+01	-1.5189775066E+02	-4.6243772913E+01	3.6267534880E+02	3.2500000000E+02	0.000E+00	0.0
	-14	1	6	6	0	0	-1.8760496953E+01	2.2058055033E+01	5.8162650134E+02	6.6689796903E+02	3.2500000000E+02	0.000E+00	0.0
	25	2	5	5	0	0	-7.6401742393E+00	1.2983969563E+02	1.8838932914E+02	2.6091849529E+02	1.2518467569E+02	0.000E+00	0.0
	-5	1	9	9	0	501	-3.1240695837E+01	-1.0689990455E+01	6.2144117001E+01	7.0495536385E+01	4.1800000000E+00	0.000E+00	0.0
	5	1	9	9	501	0	2.3600521598E+01	1.4052968608E+02	1.2624521214E+02	1.9042295891E+02	4.1800000000E+00	0.000E+00	0.0
</event>
<event>
    11  -1  1.0000000E+00  1.0000000E+00  -1.0000000E+00  -1.0000000E+00
	2212	-1	0	0	0	0	0.0000000000E+00	0.0000000000E+00	6.5000000000E+03	6.5000000000E+03	9.3827000000E-01	0.000E+00	0.0
	2212	-1	0	0	0	0	0.0000000000E+00	0.0000000000E+00	-6.5000000000E+03	6.5000000000E+03	9.3827000000E-01	0.000E+00	0.0
	2212	1	0	0	0	0	0.0000000000E+00	0.0000000000E+00	6.3228220701E+03	6.3228220701E+03	9.3827000000E-01	0.000E+00	0.0
	2212	1	0	0	0	0	0.0000000000E+00	0.0000000000E+00	-4.9787415114E+03	4.9787415114E+03	9.3827000000E-01	0.000E+00	0.0
	51	2	1	2	0	0	-1.0847583178E+02	-3.7260485883E+00	-1.3610221423E+03	1.7153121817E+03	1.0383321816E+03	0.000E+00	0.0
	1000022	2	5	5	0	0	1.0847583178E+02	3.7260485883E+00	-1.1198873754E+03	1.4196688642E+03	8.6575461940E+02	0.000E+00	0.0
	14	1	6	6	0	0	1.0703390749E+02	-2.1954789524E+02	-8.4887302768E+02	9.4120558475E+02	3.2500000000E+02	0.000E+00	0.0
	-14	1	6	6	0	0	1.4419242954E+00	2.2327394383E+02	-2.7101434768E+02	4.7846327945E+02	3.2500000000E+02	0.000E+00	0.0
	25	2	5	5	0	0	-1.0847583178E+02	-3.7260485883E+00	-2.2419318339E+02	2.7876755434E+02	1.2517138792E+02	0.000E+00	0.0
	-5	1	9	9	0	501	-3.9560030798E+00	4.5040738521E+01	-3.5754504678E+01	5.7794247912E+01	4.1800000000E+00	0.000E+00	0.0
	5	1	9	9	501	0	-1.0451982870E+02	-4.8766787110E+01	-1.8843867871E+02	2.2097330642E+02	4.1800000000E+00	0.000E+00	0.0
</event>
<event>
    11  -1  1.0000000E+00  1.0000000E+00  -1.0000000E+00  -1.0000000E+00
	2212	-1	0	0	0	0	0.0000000000E+00	0.0000000000E+00	6.5000000000E+03	6.5000000000E+03	9.3827000000E-01	0.000E+00	0.0
	2212	-1	0	0	0	0	0.0000000000E+00	0.0000000000E+00	-6.5000000000E+03	6.5000000000E+03	9.3827000000E-01	0.000E+00	0.0
	2212	1	0	0	0	0	0.0000000000E+00	0.0000000000E+00	4.9045018068E+03	4.9045018068E+03	9.3827000000E-01	0.000E+00	0.0
	2212	1	0	0	0	0	0.0000000000E+00	0.0000000000E+00	-6.3230861573E+03	6.3230861573E+03	9.3827000000E-01	0.000E+00	0.0
	51	2	1	2	0	0	9.9375958688E+01	-5.0761679948E+01	1.5854726522E+03	1.9118678630E+03	1.0625736987E+03	0.000E+00	0.0
	1000022	2	5	5	0	0	-9.9375958688E+01	5.0761679948E+01	1.0093116723E+03	1.3301155732E+03	8.5909548763E+02	0.000E+00	0.0
	14	1	6	6	0	0	-2.8261043923E+01	7.0674561974E+01	8.0565455834E+01	3.4337934269E+02	3.2500000000E+02	0.000E+00	0.0
	-14	1	6	6	0	0	-7.1114914765E+01	-1.9912882026E+01	9.2874621644E+02	9.8673623047E+02	3.2500000000E+02	0.000E+00	0.0
	25	2	5	5	0	0	9.9375958688E+01	-5.0761679948E+01	4.0927267822E+02	4.4229646265E+02	1.2517869792E+02	0.000E+00	0.0
	-5	1	9	9	0	501	8.3712257738E+01	2.2498676546E+01	1.6056851447E+02	1.8252028046E+02	4.1800000000E+00	0.000E+00	0.0
	5	1	9	9	501	0	1.5663700950E+01	-7.3260356494E+01	2.4870416375E+02	2.5977618218E+02	4.1800000000E+00	0.000E+00	0.0
</event>
<event>
    11  -1  1.0000000E+00  1.0000000E+00  -1.0000000E+00  -1.0000000E+00
	2212	-1	0	0	0	0	0.0000000000E+00	0.0000000000E+00	6.5000000000E+03	6.5000000000E+03	9.3827000000E-01	0.000E+00	0.0
	2212	-1	0	0	0	0	0.0000000000E+00	0.0000000000E+00	-6.5000000000E+03	6.5000000000E+03	9.3827000000E-01	0.000E+00	0.0
	2212	1	0	0	0	0	0.0000000000E+00	0.0000000000E+00	6.1168162090E+03	6.1168162090E+03	9.3827000000E-01	0.000E+00	0.0
	2212	1	0	0	0	0	0.0000000000E+00	0.0000000000E+00	-5.8003348892E+03	5.8003348892E+03	9.3827000000E-01	0.000E+00	0.0
	51	2	1	2	0	0	4.1429594142E+01	1.4217274432E+01	-3.7980820501E+02	1.1038904534E+03	1.0355681139E+03	0.000E+00	0.0
	1000022	2	5	5	0	0	-4.1429594142E+01	-1.4217274432E+01	-2.0950798560E+02	9.1246991305E+02	8.8701138889E+02	0.000E+00	0.0
	14	1	6	6	0	0	9.3437108669E+01	-2.4010177449E+02	5.3990902825E+01	4.1823363444E+02	3.2500000000E+02	0.000E+00	0.0
	-14	1	6	6	0	0	-1.3486670281E+02	2.2588450005E+02	-2.6349888842E+02	4.9423627861E+02	3.2500000000E+02	0.000E+00	0.0
	25	2	5	5	0	0	4.1429594142E+01	1.4217274432E+01	-1.0697333412E+02	1.7037898877E+02	1.2516854012E+02	0.000E+00	0.0
	-5	1	9	9	0	501	9.9411173660E+00	4.4276112585E+00	-1.2962968618E+02	1.3015282361E+02	4.1800000000E+00	0.000E+00	0.0
	5	1	9	9	501	0	3.1488476776E+01	9.7896631732E+00	2.2656352053E+01	4.0226165155E+01	4.1800000000E+00	0.000E+00	0.0
</event>
<event>
    11  -1  1.0000000E+00  1.0000000E+00  -1.0000000E+00  -1.0000000E+00
	2212	-1	0	0	0	0	0.0000000000E+00	0.0000000000E+00	6.5000000000E+03	6.5000000000E+03	9.3827000000E-01	0.000E+00	0.0
	2212	-1	0	0	0	0	0.0000000000E+00	0.0000000000E+00	-6.5000000000E+03	6.5000000000E+03	9.3827000000E-01	0.000E+00	0.0
	2212	1	0	0	0	0	0.0000000000E+00	0.0000000000E+00	5.6494323696E+03	5.6494323696E+03	9.3827000000E-01	0.000E+00	0.0
	2212	1	0	0	0	0	0.0000000000E+00	0.0000000000E+00	-6.1318656596E+03	6.1318656596E+03	9.3827000000E-01	0.000E+00	0.0
	51	2	1	2	0	0	-1.2058950100E+02	-7.6952804125E+01	6.6483993979E+02	1.3095679905E+03	1.1191481646E+03	0.000E+00	0.0
	1000022	2	5	5	0	0	1.2058950100E+02	7.6952804125E+01	2.0182878093E+02	8.7977279486E+02	8.4427587431E+02	0.000E+00	0.0
	14	1	6	6	0	0	2.5805456357E+02	-6.0311772806E+01	2.6477331340E+02	4.9594311690E+02	3.2500000000E+02	0.000E+00	0.0
	-14	1	6	6	0	0	-1.3746506257E+02	1.3726457693E+02	-6.2944532472E+01	3.8382967795E+02	3.2500000000E+02	0.000E+00	0.0
	25	2	5	5	0	0	-1.2058950100E+02	-7.6952804125E+01	2.8060450906E+02	3.3892917598E+02	1.2518200353E+02	0.000E+00	0.0
	-5	1	9	9	0	501	-7.9200684890E+01	-6.5692005652E+01	7.1356774034E+01	1.2528946362E+02	4.1800000000E+00	0.000E+00	0.0
	5	1	9	9	501	0	-4.1388816109E+01	-1.1260798474E+01	2.0924773503E+02	2.1363971236E+02	4.1800000000E+00	0.000E+00	0.0
</event>
<event>
    11  -1  1.0000000E+00  1.0000000E+00  -1.0000000E+00  -1.0000000E+00
	2212	-1	0	0	0	0	0.0000000000E+00	0.0000000000E+00	6.5000000000E+03	6.5000000000E+03	9.3827000000E-01	0.000E+00	0.0
	2212	-1	0	0	0	0	0.0000000000E+00	0.0000000000E+00	-6.5000000000E+03	6.5000000000E+03	9.3827000000E-01	0.000E+00	0.0
	2212	1	0	0	0	0	0.0000000000E+00	0.0000000000E+00	6.2898674520E+03	6.2898674520E+03	9.3827000000E-01	0.000E+00	0.0
	2212	1	0	0	0	0	0.0000000000E+00	0.0000000000E+00	-4.9288537690E+03	4.9288537690E+03	9.3827000000E-01	0.000E+00	0.0
	51	2	1	2	0	0	-2.3581025806E+02	2.1184689038E+01	-1.4437414073E+03	1.8603871541E+03	1.1491718075E+03	0.000E+00	0.0
	1000022	2	5	5	0	0	2.3581025806E+02	-2.1184689038E+01	-9.8765331965E+02	1.3217938074E+03	8.4594593250E+02	0.000E+00	0.0
	14	1	6	6	0	0	-1.6252023362E+02	-2.6001855204E+01	-4.1564506184E+02	5.5269769336E+02	3.2500000000E+02	0.000E+00	0.0
	-14	1	6	6	0	0	3.9833049168E+02	4.8171661660E+00	-5.7200825781E+02	7.6909611408E+02	3.2500000000E+02	0.000E+00	0.0
	25	2	5	5	0	0	-2.3581025806E+02	2.1184689038E+01	-3.7336036337E+02	4.5948497156E+02	1.2519268870E+02	0.000E+00	0.0
	-5	1	9	9	0	501	-2.4893729891E+02	1.1504910769E+01	-3.6063348502E+02	4.3837897380E+02	4.1800000000E+00	0.000E+00	0.0
	5	1	9	9	501	0	1.3127040849E+01	9.6797782688E+00	-1.2726878354E+01	2.1105997760E+01	4.1800000000E+00	0.000E+00	0.0
</event>
<event>
    11  -1  1.0000000E+00  1.0000000E+00  -1.0000000E+00  -1.0000000E+00
	2212	-1	0	0	0	0	0.0000000000E+00	0.0000000000E+00	6.5000000000E+03	6.5000000000E+03	9.3827000000E-01	0.000E+00	0.0
	2212	-1	0	0	0	0	0.0000000000E+00	0.0000000000E+00	-6.5000000000E+03	6.5000000000E+03	9.3827000000E-01	0.000E+00	0.0
	2212	1	0	0	0	0	0.0000000000E+00	0.0000000000E+00	5.1835354842E+03	5.1835354842E+03	9.3827000000E-01	0.000E+00	0.0
	2212	1	0	0	0	0	0.0000000000E+00	0.0000000000E+00	-6.2913366361E+03	6.2913366361E+03	9.3827000000E-01	0.000E+00	0.0
	51	2	1	2	0	0	-1.0666764952E+02	-2.0084676297E+01	9.9025036810E+02	1.4460874215E+03	1.0482326352E+03	0.000E+00	0.0
	1000022	2	5	5	0	0	1.0666764952E+02	2.0084676297E+01	1.0370946761E+03	1.3449915040E+03	8.4950302941E+02	0.000E+00	0.0
	14	1	6	6	0	0	-1.0670718683E+02	-1.1252846178E+02	7.8336252136E+02	8.6216640986E+02	3.2500000000E+02	0.000E+00	0.0
	-14	1	6	6	0	0	2.1337483635E+02	1.3261313808E+02	2.5373215472E+02	4.8282509412E+02	3.2500000000E+02	0.000E+00	0.0
	25	2	5	5	0	0	-1.0666764952E+02	-2.0084676297E+01	7.0706475853E+01	1.8013637578E+02	1.2517318593E+02	0.000E+00	0.0
	-5	1	9	9	0	501	-6.4700083459E+00	4.5173165893E+01	2.3644085545E+01	5.1565406098E+01	4.1800000000E+00	0.000E+00	0.0
	5	1	9	9	501	0	-1.0019764118E+02	-6.5257842190E+01	4.7062390307E+01	1.2857096969E+02	4.1800000000E+00	0.000E+00	0.0
</event>
<event>
    11  -1  1.0000000E+00  1.0000000E+00  -1.0000000E+00  -1.0000000E+00
	2212	-1	0	0	0	0	0.0000000000E+00	0.0000000000E+00	6.5000000000E+03	6.5000000000E+03	9.3827000000E-01	0.000E+00	0.0
	2212	-1	0	0	0	0	0.0000000000E+00	0.0000000000E+00	-6.5000000000E+03	6.5000000000E+03	9.3827000000E-01	0.000E+00	0.0
	2212	1	0	0	0	0	0.0000000000E+00	0.0000000000E+00	5.9568026023E+03	5.9568026023E+03	9.3827000000E-01	0.000E+00	0.0
	2212	1	0	0	0	0	0.0000000000E+00	0.0000000000E+00	-5.9918647989E+03	5.9918647989E+03	9.3827000000E-01	0.000E+00	0.0
	51	2	1	2	0	0	8.6986180549E+01	-1.0958980884E+01	-8.6625484357E+01	1.0579515798E+03	1.0507477698E+03	0.000E+00	0.0
	1000022	2	5	5	0	0	-8.6986180549E+01	1.0958980884E+01	1.5058130214E+02	8.5975017645E+02	8.4190791805E+02	0.000E+00	0.0
	14	1	6	6	0	0	1.1531624418E+02	-5.4750765181E+01	-1.3842414176E+02	3.7560847366E+02	3.2500000000E+02	0.000E+00	0.0
	-14	1	6	6	0	0	-2.0230242473E+02	6.5709746065E+01	2.8900544390E+02	4.8414170279E+02	3.2500000000E+02	0.000E+00	0.0
	25	2	5	5	0	0	8.6986180549E+01	-1.0958980884E+01	-1.1551910548E+02	1.9158242238E+02	1.2518971989E+02	0.000E+00	0.0
	-5	1	9	9	0	501	4.7939103202E-01	1.1690947584E+01	2.3297592799E+01	2.6403755441E+01	4.1800000000E+00	0.000E+00	0.0
	5	1	9	9	501	0	8.6506789517E+01	-2.2649928467E+01	-1.3881669828E+02	1.6517866694E+02	4.1800000000E+00	0.000E+00	0.0
</event>
<event>
    11  -1  1.0000000E+00  1.0000000E+00  -1.0000000E+00  -1.0000000E+00
	2212	-1	0	0	0	0	0.0000000000E+00	0.0000000000E+00	6.5000000000E+03	6.5000000000E+03	9.3827000000E-01	0.000E+00	0.0
	2212	-1	0	0	0	0	0.0000000000E+00	0.0000000000E+00	-6.5000000000E+03	6.5000000000E+03	9.3827000000E-01	0.000E+00	0.0
	2212	1	0	0	0	0	0.0000000000E+00	0.0000000000E+00	6.2250161954E+03	6.2250161954E+03	9.3827000000E-01	0.000E+00	0.0
	2212	1	0	0	0	0	0.0000000000E+00	0.0000000000E+00	-5.5134927296E+03	5.5134927296E+03	9.3827000000E-01	0.000E+00	0.0
	51	2	1	2	0	0	7.9894115431E+01	7.8125790194E+01	-8.0666638854E+02	1.3222297308E+03	1.0416784964E+03	0.000E+00	0.0
	1000022	2	5	5	0	0	-7.9894115431E+01	-7.8125790194E+01	-4.9703405198E+02	9.8915780476E+02	8.4788183441E+02	0.000E+00	0.0
	14	1	6	6	0	0	-2.8623689465E+02	6.5192549715E+00	-1.3425663638E+02	4.5345772125E+02	3.2500000000E+02	0.000E+00	0.0
	-14	1	6	6	0	0	2.0634277922E+02	-8.4645045165E+01	-3.6277741560E+02	5.3570008351E+02	3.2500000000E+02	0.000E+00	0.0
	25	2	5	5	0	0	7.9894115431E+01	7.8125790194E+01	-2.1448941384E+02	2.7233327019E+02	1.2519182333E+02	0.000E+00	0.0
	-5	1	9	9	0	501	6.9523890095E+00	5.7190770985E+01	-1.6221618847E+01	5.9997777599E+01	4.1800000000E+00	0.000E+00	0.0
	5	1	9	9	501	0	7.2941726421E+01	2.0935019208E+01	-1.9826779499E+02	2.1233549259E+02	4.1800000000E+00	0.000E+00	0.0
</event>
<event>
    11  -1  1.0000000E+00  1.0000000E+00  -1.0000000E+00  -1.0000000E+00
	2212	-1	0	0	0	0	0.0000000000E+00	0.0000000000E+00	6.5000000000E+03	6.5000000000E+03	9.3827000000E-01	0.000E+00	0.0
	2212	-1	0	0	0	0	0.0000000000E+00	0.0000000000E+00	-6.5000000000E+03	6.5000000000E+03	9.3827000000E-01	0.000E+00	0.0
	2212	1	0	0	0	0	0.0000000000E+00	0.0000000000E+00	6.0079340882E+03	6.0079340882E+03	9.3827000000E-01	0.000E+00	0.0
	2212	1	0	0	0	0	0.0000000000E+00	0.0000000000E+00	-5.9354797688E+03	5.9354797688E+03	9.3827000000E-01	0.000E+00	0.0
	51	2	1	2	0	0	-8.1604781149E+01	-4.4453865364E+01	4.6205772682E+01	1.0591955009E+03	1.0540989751E+03	0.000E+00	0.0
	1000022	2	5	5	0	0	8.1604781149E+01	4.4453865364E+01	-1.7836863612E+02	8.6810781807E+02	8.4448820418E+02	0.000E+00	0.0
	14	1	6	6	0	0	-1.1768417651E+02	-1.6563484996E+02	-1.9990094448E+02	4.3228446251E+02	3.2500000000E+02	0.000E+00	0.0
	-14	1	6	6	0	0	1.9928895766E+02	2.1008871533E+02	2.1532308365E+01	4.3582335556E+02	3.2500000000E+02	0.000E+00	0.0
	25	2	5	5	0	0	-8.1604781149E+01	-4.4453865364E+01	1.0591431678E+02	1.8847832493E+02	1.2518286631E+02	0.000E+00	0.0
	-5	1	9	9	0	501	-1.0887606276E+02	-8.4179681251E+00	6.3673892231E+01	1.2647804625E+02	4.1800000000E+00	0.000E+00	0.0
	5	1	9	9	501	0	2.7271281615E+01	-3.6035897239E+01	4.2240424552E+01	6.2000278686E+01	4.1800000000E+00	0.000E+00	0.0
</event>
<event>
    11  -1  1.0000000E+00  1.0000000E+00  -1.0000000E+00  -1.0000000E+00
	2212	-1	0	0	0	0	0.0000000000E+00	0.0000000000E+00	6.5000000000E+03	6.5000000000E+03	9.3827000000E-01	0.000E+00	0.0
	2212	-1	0	0	0	0	0.0000000000E+00	0.0000000000E+00	-6.5000000000E+03	6.5000000000E+03	9.3827000000E-01	0.000E+00	0.0
	2212	1	0	0	0	0	0.0000000000E+00	0.0000000000E+00	6.2402002045E+03	6.2402002045E+03	9.3827000000E-01	0.000E+00	0.0
	2212	1	0	0	0	0	0.0000000000E+00	0.0000000000E+00	-5.4441050756E+03	5.4441050756E+03	9.3827000000E-01	0.000E+00	0.0
	51	2	1	2	0	0	5.0186950366E+01	-1.0672890158E+02	-9.0428393864E+02	1.3888572180E+03	1.0475137907E+03	0.000E+00	0.0
	1000022	2	5	5	0	0	-5.0186950366E+01	1.0672890158E+02	-5.5100383285E+02	1.0162754948E+03	8.4575461514E+02	0.000E+00	0.0
	14	1	6	6	0	0	-2.3112775069E+02	-9.6479228612E+01	-3.7992053053E+02	5.5918949222E+02	3.2500000000E+02	0.000E+00	0.0
	-14	1	6	6	0	0	1.8094080032E+02	2.0320813019E+02	-1.7108330232E+02	4.5708600255E+02	3.2500000000E+02	0.000E+00	0.0
	25	2	5	5	0	0	5.0186950366E+01	-1.0672890158E+02	-2.4509129602E+02	2.9941922513E+02	1.2518921908E+02	0.000E+00	0.0
	-5	1	9	9	0	501	8.5440484920E+01	-9.6954037791E+01	-2.1889619210E+02	2.5423055919E+02	4.1800000000E+00	0.000E+00	0.0
	5	1	9	9	501	0	-3.5253534553E+01	-9.7748637883E+00	-2.6195103921E+01	4.5188665946E+01	4.1800000000E+00	0.000E+00	0.0
</event>
<event>
    11  -1  1.0000000E+00  1.0000000E+00  -1.0000000E+00  -1.0000000E+00
	2212	-1	0	0	0	0	0.0000000000E+00	0.0000000000E+00	6.5000000000E+03	6.5000000000E+03	9.3827000000E-01	0.000E+00	0.0
	2212	-1	0	0	0	0	0.0000000000E+00	0.0000000000E+00	-6.5000000000E+03	6.5000000000E+03	9.3827000000E-01	0.000E+00	0.0
	2212	1	0	0	0	0	0.0000000000E+00	0.0000000000E+00	4.9156856583E+03	4.9156856583E+03	9.3827000000E-01	0.000E+00	0.0
	2212	1	0	0	0	0	0.0000000000E+00	0.0000000000E+00	-6.3291617271E+03	6.3291617271E+03	9.3827000000E-01	0.000E+00	0.0
	51	2	1	2	0	0	-9.6917711606E+01	7.7068156714E+00	1.2715927588E+03	1.6459181893E+03	1.0405028129E+03	0.000E+00	0.0
	1000022	2	5	5	0	0	9.6917711606E+01	-7.7068156714E+00	1.3186300434E+03	1.5704336290E+03	8.4736305904E+02	0.000E+00	0.0
	14	1	6	6	0	0	5.5405381193E+01	-2.6983848324E+02	5.6181925404E+02	7.0508753890E+02	3.2500000000E+02	0.000E+00	0.0
	-14	1	6	6	0	0	4.1512330413E+01	2.6213166757E+02	7.5681078940E+02	8.6534609011E+02	3.2500000000E+02	0.000E+00	0.0
	25	2	5	5	0	0	-9.6917711606E+01	7.7068156714E+00	9.4846025324E+01	1.8471898561E+02	1.2519144258E+02	0.000E+00	0.0
	-5	1	9	9	0	501	8.7389239865E+00	1.2258367910E+01	-2.2052908154E+01	2.7026644895E+01	4.1800000000E+00	0.000E+00	0.0
	5	1	9	9	501	0	-1.0565663559E+02	-4.5515522389E+00	1.1689893348E+02	1.5769234072E+02	4.1800000000E+00	0.000E+00	0.0
</event>
<event>
    11  -1  1.0000000E+00  1.0000000E+00  -1.0000000E+00  -1.0000000E+00
	2212	-1	0	0	0	0	0.0000000000E+00	0.0000000000E+00	6.5000000000E+03	6.5000000000E+03	9.3827000000E-01	0.000E+00	0.0
	2212	-1	0	0	0	0	0.0000000000E+00	0.0000000000E+00	-6.5000000000E+03	6.5000000000E+03	9.3827000000E-01	0.000E+00	0.0
	2212	1	0	0	0	0	0.0000000000E+00	0.0000000000E+00	6.0723996277E+03	6.0723996277E+03	9.3827000000E-01	0.000E+00	0.0
	2212	1	0	0	0	0	0.0000000000E+00	0.0000000000E+00	-5.8474015054E+03	5.8474015054E+03	9.3827000000E-01	0.000E+00	0.0
	51	2	1	2	0	0	-1.2902941275E+02	-5.6555783203E+01	-2.8671926059E+02	1.1037483940E+03	1.0565062408E+03	0.000E+00	0.0
	1000022	2	5	5	0	0	1.2902941275E+02	5.6555783203E+01	-1.2360225870E+02	8.6617400192E+02	8.4565521182E+02	0.000E+00	0.0
	14	1	6	6	0	0	-5.9963662987E+01	8.9007903210E+01	-2.9487666515E+02	4.5176907305E+02	3.2500000000E+02	0.000E+00	0.0
	-14	1	6	6	0	0	1.8899307573E+02	-3.2452120007E+01	1.7127440645E+02	4.1440492887E+02	3.2500000000E+02	0.000E+00	0.0
	25	2	5	5	0	0	-1.2902941275E+02	-5.6555783203E+01	-1.0139586361E+02	2.1402486492E+02	1.2521332070E+02	0.000E+00	0.0
	-5	1	9	9	0	501	-7.5487031900E+00	3.4128785383E+01	-8.6159495829E+00	3.6241742491E+01	4.1800000000E+00	0.000E+00	0.0
	5	1	9	9	501	0	-1.2148070956E+02	-9.0684568586E+01	-9.2779914028E+01	1.7778312243E+02	4.1800000000E+00	0.000E+00	0.0
</event>
<event>
    11  -1  1.0000000E+00  1.0000000E+00  -1.0000000E+00  -1.0000000E+00
	2212	-1	0	0	0	0	0.0000000000E+00	0.0000000000E+00	6.5000000000E+03	6.5000000000E+03	9.3827000000E-01	0.000E+00	0.0
	2212	-1	0	0	0	0	0.0000000000E+00	0.0000000000E+00	-6.5000000000E+03	6.5000000000E+03	9.3827000000E-01	0.000E+00	0.0
	2212	1	0	0	0	0	0.0000000000E+00	0.0000000000E+00	6.2939508919E+03	6.2939508919E+03	9.3827000000E-01	0.000E+00	0.0
	2212	1	0	0	0	0	0.0000000000E+00	0.0000000000E+00	-5.1570355199E+03	5.1570355199E+03	9.3827000000E-01	0.000E+00	0.0
	51	2	1	2	0	0	-8.3188684210E+01	-6.7573230857E+01	-1.3409125269E+03	1.7077468890E+03	1.0520772468E+03	0.000E+00	0.0
	1000022	2	5	5	0	0	8.3188684210E+01	6.7573230857E+01	-7.2120694111E+02	1.1018299319E+03	8.2607702314E+02	0.000E+00	0.0
	14	1	6	6	0	0	2.2781882615E+02	-1.1434018369E+02	-4.8751706507E+02	6.3896242760E+02	3.2500000000E+02	0.000E+00	0.0
	-14	1	6	6	0	0	-1.4463014194E+02	1.8191341454E+02	-2.3368987604E+02	4.6286750427E+02	3.2500000000E+02	0.000E+00	0.0
	25	2	5	5	0	0	-8.3188684210E+01	-6.7573230857E+01	-4.1570843087E+02	4.4718365630E+02	1.2519274842E+02	0.000E+00	0.0
	-5	1	9	9	0	501	2.3419432017E+00	-7.1444607490E+01	-1.2452083345E+02	1.4364096561E+02	4.1800000000E+00	0.000E+00	0.0
	5	1	9	9	501	0	-8.5530627411E+01	3.8713766336E+00	-2.9118759742E+02	3.0354269069E+02	4.1800000000E+00	0.000E+00	0.0
</event>
<event>
    11  -1  1.0000000E+00  1.0000000E+00  -1.0000000E+00  -1.0000000E+00
	2212	-1	0	0	0	0	0.0000000000E+00	0.0000000000E+00	6.5000000000E+03	6.5000000000E+03	9.3827000000E-01	0.000E+00	0.0
	2212	-1	0	0	0	0	0.0000000000E+00	0.0000000000E+00	-6.5000000000E+03	6.5000000000E+03	9.3827000000E-01	0.000E+00	0.0
	2212	1	0	0	0	0	0.0000000000E+00	0.0000000000E+00	6.2435146998E+03	6.2435146998E+03	9.3827000000E-01	0.000E+00	0.0
	2212	1	0	0	0	0	0.0000000000E+00	0.0000000000E+00	-5.4471509644E+03	5.4471509644E+03	9.3827000000E-01	0.000E+00	0.0
	51	2	1	2	0	0	-9.6520817485E+01	6.1411779439E+01	-8.7645864092E+02	1.3643418296E+03	1.0393080409E+03	0.000E+00	0.0
	1000022	2	5	5	0	0	9.6520817485E+01	-6.1411779439E+01	-5.8482482338E+02	1.0382143507E+03	8.5016544811E+02	0.000E+00	0.0
	14	1	6	6	0	0	-2.2159652520E+01	-2.7670331820E+02	-1.7987650514E+02	4.6372010266E+02	3.2500000000E+02	0.000E+00	0.0
	-14	1	6	6	0	0	1.1868047000E+02	2.1529153876E+02	-4.0494831823E+02	5.7449424807E+02	3.2500000000E+02	0.000E+00	0.0
	25	2	5	5	0	0	-9.6520817485E+01	6.1411779439E+01	-2.1153891196E+02	2.7111998508E+02	1.2517851322E+02	0.000E+00	0.0
	-5	1	9	9	0	501	-8.7992251729E+01	1.6582374949E+00	-5.6431397258E+01	1.0462963783E+02	4.1800000000E+00	0.000E+00	0.0
	5	1	9	9	501	0	-8.5285657565E+00	5.9753541944E+01	-1.5510751470E+02	1.6649034725E+02	4.1800000000E+00	0.000E+00	0.0
</event>
<event>
    11  -1  1.0000000E+00  1.0000000E+00  -1.0000000E+00  -1.0000000E+00
	2212	-1	0	0	0	0	0.0000000000E+00	0.0000000000E+00	6.5000000000E+03	6.5000000000E+03	9.3827000000E-01	0.000E+00	0.0
	2212	-1	0	0	0	0	0.0000000000E+00	0.0000000000E+00	-6.5000000000E+03	6.5000000000E+03	9.3827000000E-01	0.000E+00	0.0
	2212	1	0	0	0	0	0.0000000000E+00	0.0000000000E+00	5.9647075627E+03	5.9647075627E+03	9.3827000000E-01	0.000E+00	0.0
	2212	1	0	0	0	0	0.0000000000E+00	0.0000000000E+00	-5.9961846021E+03	5.9961846021E+03	9.3827000000E-01	0.000E+00	0.0
	51	2	1	2	0	0	-3.0746410130E-01	-5.1844566741E+01	1.4821770196E+02	1.0504335914E+03	1.0386309687E+03	0.000E+00	0.0
	1000022	2	5	5	0	0	3.0746410130E-01	5.1844566741E+01	-9.0441927977E+01	8.5683788288E+02	8.5047249313E+02	0.000E+00	0.0
	14	1	6	6	0	0	-2.4824184925E+02	1.4095510076E+02	-6.3822057672E+01	4.3725348620E+02	3.2500000000E+02	0.000E+00	0.0
	-14	1	6	6	0	0	2.4854931335E+02	-8.9110534018E+01	-2.6619870305E+01	4.1958439668E+02	3.2500000000E+02	0.000E+00	0.0
	25	2	5	5	0	0	-3.0746410130E-01	-5.1844566741E+01	1.2191896742E+02	1.8226995234E+02	1.2518045884E+02	0.000E+00	0.0
	-5	1	9	9	0	501	-2.1236644350E+01	8.4923315565E+00	-1.7342567015E+01	2.9006064697E+01	4.1800000000E+00	0.000E+00	0.0
	5	1	9	9	501	0	2.0929180249E+01	-6.0336898297E+01	1.3926153444E+02	1.5326388765E+02	4.1800000000E+00	0.000E+00	0.0
</event>
<event>
    11  -1  1.0000000E+00  1.0000000E+00  -1.0000000E+00  -1.0000000E+00
	2212	-1	0	0	0	0	0.0000000000E+00	0.0000000000E+00	6.5000000000E+03	6.5000000000E+03	9.3827000000E-01	0.000E+00	0.0
	2212	-1	0	0	0	0	0.0000000000E+00	0.0000000000E+00	-6.5000000000E+03	6.5000000000E+03	9.3827000000E-01	0.000E+00	0.0
	2212	1	0	0	0	0	0.0000000000E+00	0.0000000000E+00	6.3225340830E+03	6.3225340830E+03	9.3827000000E-01	0.000E+00	0.0
	2212	1	0	0	0	0	0.0000000000E+00	0.0000000000E+00	-4.9162763256E+03	4.9162763256E+03	9.3827000000E-01	0.000E+00	0.0
	51	2	1	2	0	0	2.7050924481E+01	1.2706280164E+02	-1.5156706969E+03	1.8542821430E+03	1.0602961362E+03	0.000E+00	0.0
	1000022	2	5	5	0	0	-2.7050924481E+01	-1.2706280164E+02	-1.0580179310E+03	1.3689915412E+03	8.5898730468E+02	0.000E+00	0.0
	14	1	6	6	0	0	-6.1951586567E+01	-7.7249097278E+01	-9.7958084600E+01	3.5359045299E+02	3.2500000000E+02	0.000E+00	0.0
	-14	1	6	6	0	0	3.4900662087E+01	-4.9813704360E+01	-9.6005984638E+02	1.0154010882E+03	3.2500000000E+02	0.000E+00	0.0
	25	2	5	5	0	0	2.7050924481E+01	1.2706280164E+02	-3.4823982647E+02	3.9219805014E+02	1.2518636394E+02	0.000E+00	0.0
	-5	1	9	9	0	501	5.0729951136E+01	6.6618595043E+01	-7.8945947281E+01	1.1515858691E+02	4.1800000000E+00	0.000E+00	0.0
	5	1	9	9	501	0	-2.3679026656E+01	6.0444206595E+01	-2.6929387919E+02	2.7703946322E+02	4.1800000000E+00	0.000E+00	0.0
</event>
<event>
    11  -1  1.0000000E+00  1.0000000E+00  -1.0000000E+00  -1.0000000E+00
	2212	-1	0	0	0	0	0.0000000000E+00	0.0000000000E+00	6.5000000000E+03	6.5000000000E+03	9.3827000000E-01	0.000E+00	0.0
	2212	-1	0	0	0	0	0.0000000000E+00	0.0000000000E+00	-6.5000000000E+03	6.5000000000E+03	9.3827000000E-01	0.000E+00	0.0
	2212	1	0	0	0	0	0.0000000000E+00	0.0000000000E+00	6.3178373711E+03	6.3178373711E+03	9.3827000000E-01	0.000E+00	0.0
	2212	1	0	0	0	0	0.0000000000E+00	0.0000000000E+00	-5.0139554330E+03	5.0139554330E+03	9.3827000000E-01	0.000E+00	0.0
	51	2	1	2	0	0	5.5357547901E+01	1.0856649284E+02	-1.4211861677E+03	1.7656240836E+03	1.0405801938E+03	0.000E+00	0.0
	1000022	2	5	5	0	0	-5.5357547901E+01	-1.0856649284E+02	-9.6415035678E+02	1.2862132327E+03	8.4256004412E+02	0.000E+00	0.0
	14	1	6	6	0	0	9.8158906922E+01	-2.3460342665E+02	-2.6615952379E+02	4.9105990562E+02	3.2500000000E+02	0.000E+00	0.0
	-14	1	6	6	0	0	-1.5351645482E+02	1.2603693381E+02	-6.9799083298E+02	7.9515332705E+02	3.2500000000E+02	0.000E+00	0.0
	25	2	5	5	0	0	5.5357547901E+01	1.0856649284E+02	-3.3973158132E+02	3.8199396318E+02	1.2510275409E+02	0.000E+00	0.0
	-5	1	9	9	0	501	-9.3540276621E+00	-9.6426069995E+00	-1.4184675138E+02	1.4254280403E+02	4.1800000000E+00	0.000E+00	0.0
	5	1	9	9	501	0	6.4711575563E+01	1.1820909984E+02	-1.9788482994E+02	2.3945115915E+02	4.1800000000E+00	0.000E+00	0.0
</event>
<event>
    11  -1  1.0000000E+00  1.0000000E+00  -1.0000000E+00  -1.0000000E+00
	2212	-1	0	0	0	0	0.0000000000E+00	0.0000000000E+00	6.5000000000E+03	6.5000000000E+03	9.3827000000E-01	0.000E+00	0.0
	2212	-1	0	0	0	0	0.0000000000E+00	0.0000000000E+00	-6.5000000000E+03	6.5000000000E+03	9.3827000000E-01	0.000E+00	0.0
	2212	1	0	0	0	0	0.0000000000E+00	0.0000000000E+00	5.9575702340E+03	5.9575702340E+03	9.3827000000E-01	0.000E+00	0.0
	2212	1	0	0	0	0	0.0000000000E+00	0.0000000000E+00	-6.0401202274E+03	6.0401202274E+03	9.3827000000E-01	0.000E+00	0.0
	51	2	1	2	0	0	-1.5882441922E+01	3.7793387047E+01	5.1145720776E+01	1.0010526392E+03	9.9890435460E+02	0.000E+00	0.0
	1000022	2	5	5	0	0	1.5882441922E+01	-3.7793387047E+01	1.0287436397E+02	8.6903594206E+02	8.6195112493E+02	0.000E+00	0.0
	14	1	6	6	0	0	3.2710279661E+01	-2.3208299109E+02	2.3870747844E+02	4.6641048167E+02	3.2500000000E+02	0.000E+00	0.0
	-14	1	6	6	0	0	-1.6827837740E+01	1.9428960405E+02	-1.3583311447E+02	4.0262546039E+02	3.2500000000E+02	0.000E+00	0.0
	25	2	5	5	0	0	-1.5882441922E+01	3.7793387047E+01	-2.0324370555E+01	1.3327359648E+02	1.2517259850E+02	0.000E+00	0.0
	-5	1	9	9	0	501	-4.2498494948E+01	4.7253110278E+01	3.3781762468E+01	7.2094787463E+01	4.1800000000E+00	0.000E+00	0.0
	5	1	9	9	501	0	2.6616053027E+01	-9.4597232320E+00	-5.4106133023E+01	6.1178809020E+01	4.1800000000E+00	0.000E+00	0.0
</event>
<event>
    11  -1  1.0000000E+00  1.0000000E+00  -1.0000000E+00  -1.0000000E+00
	2212	-1	0	0	0	0	0.0000000000E+00	0.0000000000E+00	6.5000000000E+03	6.5000000000E+03	9.3827000000E-01	0.000E+00	0.0
	2212	-1	0	0	0	0	0.0000000000E+00	0.0000000000E+00	-6.5000000000E+03	6.5000000000E+03	9.3827000000E-01	0.000E+00	0.0
	2212	1	0	0	0	0	0.0000000000E+00	0.0000000000E+00	5.1958040475E+03	5.1958040475E+03	9.3827000000E-01	0.000E+00	0.0
	2212	1	0	0	0	0	0.0000000000E+00	0.0000000000E+00	-6.2884476116E+03	6.2884476116E+03	9.3827000000E-01	0.000E+00	0.0
	51	2	1	2	0	0	5.9548113311E+01	-1.1864902047E+02	1.0530772862E+03	1.4933915807E+03	1.0505346615E+03	0.000E+00	0.0
	1000022	2	5	5	0	0	-5.9548113311E+01	1.1864902047E+02	9.4844893203E+02	1.2831863851E+03	8.5404236100E+02	0.000E+00	0.0
	14	1	6	6	0	0	-2.8383439509E+02	-4.8488074073E+01	4.4208361236E+02	6.1965795200E+02	3.2500000000E+02	0.000E+00	0.0
	-14	1	6	6	0	0	2.2428628177E+02	1.6713709455E+02	5.0636531967E+02	6.6352843310E+02	3.2500000000E+02	0.000E+00	0.0
	25	2	5	5	0	0	5.9548113311E+01	-1.1864902047E+02	1.4419463207E+02	2.3256195585E+02	1.2517748812E+02	0.000E+00	0.0
	-5	1	9	9	0	501	3.0687666094E+01	-1.0054133690E+02	1.6255936293E+02	1.9363189860E+02	4.1800000000E+00	0.000E+00	0.0
	5	1	9	9	501	0	2.8860447216E+01	-1.8107683571E+01	-1.8364730864E+01	3.8930057251E+01	4.1800000000E+00	0.000E+00	0.0
</event>
<event>
    11  -1  1.0000000E+00  1.0000000E+00  -1.0000000E+00  -1.0000000E+00
	2212	-1	0	0	0	0	0.0000000000E+00	0.0000000000E+00	6.5000000000E+03	6.5000000000E+03	9.3827000000E-01	0.000E+00	0.0
	2212	-1	0	0	0	0	0.0000000000E+00	0.0000000000E+00	-6.5000000000E+03	6.5000000000E+03	9.3827000000E-01	0.000E+00	0.0
	2212	1	0	0	0	0	0.0000000000E+00	0.0000000000E+00	5.9005061218E+03	5.9005061218E+03	9.3827000000E-01	0.000E+00	0.0
	2212	1	0	0	0	0	0.0000000000E+00	0.0000000000E+00	-6.0382177071E+03	6.0382177071E+03	9.3827000000E-01	0.000E+00	0.0
	51	2	1	2	0	0	-1.4459688455E+02	-8.2554192998E+01	-1.0632330588E+02	1.0706870364E+03	1.0523034879E+03	0.000E+00	0.0
	1000022	2	5	5	0	0	1.4459688455E+02	8.2554192998E+01	3.4484833099E+02	7.6750925532E+02	6.6515158559E+02	0.000E+00	0.0
	14	1	6	6	0	0	6.5419183116E+01	9.3523193330E+01	1.2202182448E+02	3.6543204958E+02	3.2500000000E+02	0.000E+00	0.0
	-14	1	6	6	0	0	7.9177701438E+01	-1.0969000332E+01	2.2282650650E+02	4.0207720574E+02	3.2500000000E+02	0.000E+00	0.0
	25	2	5	5	0	0	-1.4459688455E+02	-8.2554192998E+01	-2.0713674572E+02	2.9376691579E+02	1.2517953340E+02	0.000E+00	0.0
	-5	1	9	9	0	501	-1.0492305951E+02	-1.0496112264E+02	-1.0499061631E+02	1.8184110535E+02	4.1800000000E+00	0.000E+00	0.0
	5	1	9	9	501	0	-3.9673825041E+01	2.2406929638E+01	-1.0214612941E+02	1.1192581044E+02	4.1800000000E+00	0.000E+00	0.0
</event>
<event>
    11  -1  1.0000000E+00  1.0000000E+00  -1.0000000E+00  -1.0000000E+00
	2212	-1	0	0	0	0	0.0000000000E+00	0.0000000000E+00	6.5000000000E+03	6.5000000000E+03	9.3827000000E-01	0.000E+00	0.0
	2212	-1	0	0	0	0	0.0000000000E+00	0.0000000000E+00	-6.5000000000E+03	6.5000000000E+03	9.3827000000E-01	0.000E+00	0.0
	2212	1	0	0	0	0	0.0000000000E+00	0.0000000000E+00	6.3126915866E+03	6.3126915866E+03	9.3827000000E-01	0.000E+00	0.0
	2212	1	0	0	0	0	0.0000000000E+00	0.0000000000E+00	-5.0275367236E+03	5.0275367236E+03	9.3827000000E-01	0.000E+00	0.0
	51	2	1	2	0	0	-8.9630211114E+01	9.8980257082E+01	-1.3234781710E+03	1.6948876586E+03	1.0503423442E+03	0.000E+00	0.0
	1000022	2	5	5	0	0	8.9630211114E+01	-9.8980257082E+01	-1.0323641267E+03	1.3476720077E+03	8.5592843406E+02	0.000E+00	0.0
	14	1	6	6	0	0	8.7161936763E+01	-3.2702789407E+02	-5.6425381572E+02	7.3386089641E+02	3.2500000000E+02	0.000E+00	0.0
	-14	1	6	6	0	0	2.4682743510E+00	2.2804763699E+02	-4.6811031094E+02	6.1381111127E+02	3.2500000000E+02	0.000E+00	0.0
	25	2	5	5	0	0	-8.9630211114E+01	9.8980257082E+01	-2.5279073637E+02	3.1209968206E+02	1.2518941295E+02	0.000E+00	0.0
	-5	1	9	9	0	501	-2.7639646030E+01	6.4802568389E+01	-2.2521720069E+02	2.3601606468E+02	4.1800000000E+00	0.000E+00	0.0
	5	1	9	9	501	0	-6.1990565083E+01	3.4177688693E+01	-2.7573535681E+01	7.6083617380E+01	4.1800000000E+00	0.000E+00	0.0
</event>
<event>
    11  -1  1.0000000E+00  1.0000000E+00  -1.0000000E+00  -1.0000000E+00
	2212	-1	0	0	0	0	0.0000000000E+00	0.0000000000E+00	6.5000000000E+03	6.5000000000E+03	9.3827000000E-01	0.000E+00	0.0
	2212	-1	0	0	0	0	0.0000000000E+00	0.0000000000E+00	-6.5000000000E+03	6.5000000000E+03	9.3827000000E-01	0.000E+00	0.0
	2212	1	0	0	0	0	0.0000000000E+00	0.0000000000E+00	6.2942292690E+03	6.2942292690E+03	9.3827000000E-01	0.000E+00	0.0
	2212	1	0	0	0	0	0.0000000000E+00	0.0000000000E+00	-5.1422179155E+03	5.1422179155E+03	9.3827000000E-01	0.000E+00	0.0
	51	2	1	2	0	0	1.3929665111E+02	2.8479916349E+01	-1.1037418561E+03	1.5349358279E+03	1.0571505325E+03	0.000E+00	0.0
	1000022	2	5	5	0	0	-1.3929665111E+02	-2.8479916349E+01	-1.0004530472E+03	1.3209560479E+03	8.5076666504E+02	0.000E+00	0.0
	14	1	6	6	0	0	2.4031741962E+01	-2.6901378493E+02	-5.5530764613E+02	6.9780908776E+02	3.2500000000E+02	0.000E+00	0.0
	-14	1	6	6	0	0	-1.6332839307E+02	2.4053386858E+02	-4.4514540103E+02	6.2314696018E+02	3.2500000000E+02	0.000E+00	0.0
	25	2	5	5	0	0	1.3929665111E+02	2.8479916349E+01	-1.5155830636E+02	2.4259676763E+02	1.2517431363E+02	0.000E+00	0.0
	-5	1	9	9	0	501	2.7318294214E+01	-3.5576649314E+01	-8.7692878840E+01	9.8587527479E+01	4.1800000000E+00	0.000E+00	0.0
	5	1	9	9	501	0	1.1197835689E+02	6.4056565663E+01	-6.3865427519E+01	1.4400924015E+02	4.1800000000E+00	0.000E+00	0.0
</event>
<event>
    11  -1  1.0000000E+00  1.0000000E+00  -1.0000000E+00  -1.0000000E+00
	2212	-1	0	0	0	0	0.0000000000E+00	0.0000000000E+00	6.5000000000E+03	6.5000000000E+03	9.3827000000E-01	0.000E+00	0.0
	2212	-1	0	0	0	0	0.0000000000E+00	0.0000000000E+00	-6.5000000000E+03	6.5000000000E+03	9.3827000000E-01	0.000E+00	0.0
	2212	1	0	0	0	0	0.0000000000E+00	0.0000000000E+00	6.1618764798E+03	6.1618764798E+03	9.3827000000E-01	0.000E+00	0.0
	2212	1	0	0	0	0	0.0000000000E+00	0.0000000000E+00	-5.6803664976E+03	5.6803664976E+03	9.3827000000E-01	0.000E+00	0.0
	51	2	1	2	0	0	7.6726212840E+01	1.1128856875E+02	-5.4388927055E+02	1.1927434998E+03	1.0528767547E+03	0.000E+00	0.0
	1000022	2	5	5	0	0	-7.6726212840E+01	-1.1128856875E+02	-3.3605902184E+02	9.2303052945E+02	8.4898623951E+02	0.000E+00	0.0
	14	1	6	6	0	0	-5.8735533766E+01	-1.7627874762E+02	8.7947676116E+01	3.8455669741E+02	3.2500000000E+02	0.000E+00	0.0
	-14	1	6	6	0	0	-1.7990679074E+01	6.4990178870E+01	-4.2400669796E+02	5.3847383205E+02	3.2500000000E+02	0.000E+00	0.0
	25	2	5	5	0	0	7.6726212840E+01	1.1128856875E+02	-1.4545096030E+02	2.3472649316E+02	1.2517382901E+02	0.000E+00	0.0
	-5	1	9	9	0	501	2.9462435999E+01	3.6055385097E+01	1.6815159634E+01	4.9681464582E+01	4.1800000000E+00	0.000E+00	0.0
	5	1	9	9	501	0	4.7263776841E+01	7.5233183648E+01	-1.6226611993E+02	1.8504502858E+02	4.1800000000E+00	0.000E+00	0.0
</event>
<event>
    11  -1  1.0000000E+00  1.0000000E+00  -1.0000000E+00  -1.0000000E+00
	2212	-1	0	0	0	0	0.0000000000E+00	0.0000000000E+00	6.5000000000E+03	6.5000000000E+03	9.3827000000E-01	0.000E+00	0.0
	2212	-1	0	0	0	0	0.0000000000E+00	0.0000000000E+00	-6.5000000000E+03	6.5000000000E+03	9.3827000000E-01	0.000E+00	0.0
	2212	1	0	0	0	0	0.0000000000E+00	0.0000000000E+00	6.1027307591E+03	6.1027307591E+03	9.3827000000E-01	0.000E+00	0.0
	2212	1	0	0	0	0	0.0000000000E+00	0.0000000000E+00	-5.8040598276E+03	5.8040598276E+03	9.3827000000E-01	0.000E+00	0.0
	51	2	1	2	0	0	3.8926157160E+01	-1.1978382956E+02	-2.1698106738E+02	1.0811321340E+03	1.0516189880E+03	0.000E+00	0.0
	1000022	2	5	5	0	0	-3.8926157160E+01	1.1978382956E+02	-3.2789086063E+02	9.1323376488E+02	8.4298284757E+02	0.000E+00	0.0
	14	1	6	6	0	0	9.2038945984E+01	-1.7653098628E+02	-7.2166498663E+01	3.8790122483E+02	3.2500000000E+02	0.000E+00	0.0
	-14	1	6	6	0	0	-1.3096510314E+02	2.9631481585E+02	-2.5572436197E+02	5.2533254005E+02	3.2500000000E+02	0.000E+00	0.0
	25	2	5	5	0	0	3.8926157160E+01	-1.1978382956E+02	2.9219929143E+01	1.7997564840E+02	1.2519591935E+02	0.000E+00	0.0
	-5	1	9	9	0	501	-1.3641746032E+01	-1.1054223952E+02	5.0497572010E+01	1.2236486886E+02	4.1800000000E+00	0.000E+00	0.0
	5	1	9	9	501	0	5.2567903192E+01	-9.2415900438E+00	-2.1277642867E+01	5.7610779535E+01	4.1800000000E+00	0.000E+00	0.0
</event>
<event>
    11  -1  1.0000000E+00  1.0000000E+00  -1.0000000E+00  -1.0000000E+00
	2212	-1	0	0	0	0	0.0000000000E+00	0.0000000000E+00	6.5000000000E+03	6.5000000000E+03	9.3827000000E-01	0.000E+00	0.0
	2212	-1	0	0	0	0	0.0000000000E+00	0.0000000000E+00	-6.5000000000E+03	6.5000000000E+03	9.3827000000E-01	0.000E+00	0.0
	2212	1	0	0	0	0	0.0000000000E+00	0.0000000000E+00	6.1837644840E+03	6.1837644840E+03	9.3827000000E-01	0.000E+00	0.0
	2212	1	0	0	0	0	0.0000000000E+00	0.0000000000E+00	-5.6252609782E+03	5.6252609782E+03	9.3827000000E-01	0.000E+00	0.0
	51	2	1	2	0	0	-1.7910188539E+01	-1.8073751667E+01	-4.0407069982E+02	1.1271267672E+03	1.0519002727E+03	0.000E+00	0.0
	1000022	2	5	5	0	0	1.7910188539E+01	1.8073751667E+01	-6.1708787127E+02	1.0504313763E+03	8.4968299974E+02	0.000E+00	0.0
	14	1	6	6	0	0	2.0082648098E+02	-9.6127948572E+01	-1.0682919876E+02	4.0817806858E+02	3.2500000000E+02	0.000E+00	0.0
	-14	1	6	6	0	0	-1.8291629244E+02	1.1420170024E+02	-5.1025867251E+02	6.4225330770E+02	3.2500000000E+02	0.000E+00	0.0
	25	2	5	5	0	0	-1.7910188539E+01	-1.8073751667E+01	5.8584365497E+01	1.4054316148E+02	1.2519112191E+02	0.000E+00	0.0
	-5	1	9	9	0	501	-2.5965406582E+01	-6.7219423799E+01	5.4412599578E+01	9.0392791016E+01	4.1800000000E+00	0.000E+00	0.0
	5	1	9	9	501	0	8.0552180426E+00	4.9145672132E+01	4.1717659183E+00	5.0150370466E+01	4.1800000000E+00	0.000E+00	0.0
</event>
<event>
    11  -1  1.0000000E+00  1.0000000E+00  -1.0000000E+00  -1.0000000E+00
	2212	-1	0	0	0	0	0.0000000000E+00	0.0000000000E+00	6.5000000000E+03	6.5000000000E+03	9.3827000000E-01	0.000E+00	0.0
	2212	-1	0	0	0	0	0.0000000000E+00	0.0000000000E+00	-6.5000000000E+03	6.5000000000E+03	9.3827000000E-01	0.000E+00	0.0
	2212	1	0	0	0	0	0.0000000000E+00	0.0000000000E+00	6.2737207259E+03	6.2737207259E+03	9.3827000000E-01	0.000E+00	0.0
	2212	1	0	0	0	0	0.0000000000E+00	0.0000000000E+00	-5.3070173552E+03	5.3070173552E+03	9.3827000000E-01	0.000E+00	0.0
	51	2	1	2	0	0	4.9327699162E+01	-1.1171072306E+02	-9.2127454855E+02	1.3940761418E+03	1.0391289563E+03	0.000E+00	0.0
	1000022	2	5	5	0	0	-4.9327699162E+01	1.1171072306E+02	-8.5283796101E+02	1.2105804687E+03	8.5044692709E+02	0.000E+00	0.0
	14	1	6	6	0	0	-9.0262528083E+01	-1.2204875022E+02	-1.2676436534E+02	3.8044372215E+02	3.2500000000E+02	0.000E+00	0.0
	-14	1	6	6	0	0	4.0934828921E+01	2.3375947328E+02	-7.2607359567E+02	8.3013674651E+02	3.2500000000E+02	0.000E+00	0.0
	25	2	5	5	0	0	4.9327699162E+01	-1.1171072306E+02	-1.1386540967E+02	2.0868145030E+02	1.2518030448E+02	0.000E+00	0.0
	-5	1	9	9	0	501	4.5919855646E+01	-1.1226841189E+02	-3.0502934306E+01	1.2514284179E+02	4.1800000000E+00	0.000E+00	0.0
	5	1	9	9	501	0	3.4078435152E+00	5.5768882333E-01	-8.3362475360E+01	8.3538608513E+01	4.1800000000E+00	0.000E+00	0.0
</event>
<event>
    11  -1  1.0000000E+00  1.0000000E+00  -1.0000000E+00  -1.0000000E+00
	2212	-1	0	0	0	0	0.0000000000E+00	0.0000000000E+00	6.5000000000E+03	6.5000000000E+03	9.3827000000E-01	0.000E+00	0.0
	2212	-1	0	0	0	0	0.0000000000E+00	0.0000000000E+00	-6.5000000000E+03	6.5000000000E+03	9.3827000000E-01	0.000E+00	0.0
	2212	1	0	0	0	0	0.0000000000E+00	0.0000000000E+00	4.9627949379E+03	4.9627949379E+03	9.3827000000E-01	0.000E+00	0.0
	2212	1	0	0	0	0	0.0000000000E+00	0.0000000000E+00	-6.3215977857E+03	6.3215977857E+03	9.3827000000E-01	0.000E+00	0.0
	51	2	1	2	0	0	2.3079261974E+00	-5.2478584077E+01	1.5674210812E+03	1.8858768045E+03	1.0473600850E+03	0.000E+00	0.0
	1000022	2	5	5	0	0	-2.3079261974E+00	5.2478584077E+01	9.2516553673E+02	1.2612315091E+03	8.5557835457E+02	0.000E+00	0.0
	14	1	6	6	0	0	8.1580034309E+01	6.5652341485E+01	7.8494599059E+01	3.5035972089E+02	3.2500000000E+02	0.000E+00	0.0
	-14	1	6	6	0	0	-8.3887960506E+01	-1.3173757409E+01	8.4667093767E+02	9.1087178818E+02	3.2500000000E+02	0.000E+00	0.0
	25	2	5	5	0	0	2.3079261974E+00	-5.2478584077E+01	4.3363731107E+02	4.5437576734E+02	1.2512670413E+02	0.000E+00	0.0
	-5	1	9	9	0	501	-2.2595272628E+01	-5.2724027368E+01	4.2313553936E+02	4.2702637680E+02	4.1800000000E+00	0.000E+00	0.0
	5	1	9	9	501	0	2.4903198825E+01	2.4544329108E-01	1.0501771702E+01	2.7349390542E+01	4.1800000000E+00	0.000E+00	0.0
</event>
<event>
    11  -1  1.0000000E+00  1.0000000E+00  -1.0000000E+00  -1.0000000E+00
	2212	-1	0	0	0	0	0.0000000000E+00	0.0000000000E+00	6.5000000000E+03	6.5000000000E+03	9.3827000000E-01	0.000E+00	0.0
	2212	-1	0	0	0	0	0.0000000000E+00	0.0000000000E+00	-6.5000000000E+03	6.5000000000E+03	9.3827000000E-01	0.000E+00	0.0
	2212	1	0	0	0	0	0.0000000000E+00	0.0000000000E+00	4.8553830986E+03	4.8553830986E+03	9.3827000000E-01	0.000E+00	0.0
	2212	1	0	0	0	0	0.0000000000E+00	0.0000000000E+00	-6.3306292102E+03	6.3306292102E+03	9.3827000000E-01	0.000E+00	0.0
	51	2	1	2	0	0	-1.4606421545E+02	-3.5950156924E+00	1.5651720481E+03	1.8934918730E+03	1.0555568453E+03	0.000E+00	0.0
	1000022	2	5	5	0	0	1.4606421545E+02	3.5950156924E+00	1.1249583172E+03	1.4143381439E+03	8.4467359996E+02	0.000E+00	0.0
	14	1	6	6	0	0	2.6804875152E+02	-1.8345289423E+02	5.4229853962E+02	7.1078674978E+02	3.2500000000E+02	0.000E+00	0.0
	-14	1	6	6	0	0	-1.2198453608E+02	1.8704790992E+02	5.8265977761E+02	7.0355139407E+02	3.2500000000E+02	0.000E+00	0.0
	25	2	5	5	0	0	-1.4606421545E+02	-3.5950156924E+00	3.5028779440E+02	3.9964954728E+02	1.2518203772E+02	0.000E+00	0.0
	-5	1	9	9	0	501	-6.9640450960E+01	2.2657169250E+01	5.0303290373E+01	8.8943988840E+01	4.1800000000E+00	0.000E+00	0.0
	5	1	9	9	501	0	-7.6423764485E+01	-2.6252184942E+01	2.9998450403E+02	3.1070555844E+02	4.1800000000E+00	0.000E+00	0.0
</event>
<event>
    11  -1  1.0000000E+00  1.0000000E+00  -1.0000000E+00  -1.0000000E+00
	2212	-1	0	0	0	0	0.0000000000E+00	0.0000000000E+00	6.5000000000E+03	6.5000000000E+03	9.3827000000E-01	0.000E+00	0.0
	2212	-1	0	0	0	0	0.0000000000E+00	0.0000000000E+00	-6.5000000000E+03	6.5000000000E+03	9.3827000000E-01	0.000E+00	0.0
	2212	1	0	0	0	0	0.0000000000E+00	0.0000000000E+00	6.1696366831E+03	6.1696366831E+03	9.3827000000E-01	0.000E+00	0.0
	2212	1	0	0	0	0	0.0000000000E+00	0.0000000000E+00	-5.6567750813E+03	5.6567750813E+03	9.3827000000E-01	0.000E+00	0.0
	51	2	1	2	0	0	-7.5920944518E+01	1.2969399273E+02	-4.5104842759E+02	1.1577182428E+03	1.0555957200E+03	0.000E+00	0.0
	1000022	2	5	5	0	0	7.5920944518E+01	-1.2969399273E+02	-4.8114692865E+02	9.7543717295E+02	8.3509926946E+02	0.000E+00	0.0
	14	1	6	6	0	0	-1.9950308521E+01	1.8494236148E+02	-1.3588882002E+02	3.9836222623E+02	3.2500000000E+02	0.000E+00	0.0
	-14	1	6	6	0	0	9.5871253039E+01	-3.1463635422E+02	-3.4525810863E+02	5.7707494672E+02	3.2500000000E+02	0.000E+00	0.0
	25	2	5	5	0	0	-7.5920944518E+01	1.2969399273E+02	-3.1714673123E+01	1.9815106266E+02	1.2519385598E+02	0.000E+00	0.0
	-5	1	9	9	0	501	-9.8481272905E+01	4.7944114009E+01	-7.5520869990E+00	1.0987131381E+02	4.1800000000E+00	0.000E+00	0.0
	5	1	9	9	501	0	2.2560328386E+01	8.1749878722E+01	-2.4162586124E+01	8.8279748845E+01	4.1800000000E+00	0.000E+00	0.0
</event>
<event>
    11  -1  1.0000000E+00  1.0000000E+00  -1.0000000E+00  -1.0000000E+00
	2212	-1	0	0	0	0	0.0000000000E+00	0.0000000000E+00	6.5000000000E+03	6.5000000000E+03	9.3827000000E-01	0.000E+00	0.0
	2212	-1	0	0	0	0	0.0000000000E+00	0.0000000000E+00	-6.5000000000E+03	6.5000000000E+03	9.3827000000E-01	0.000E+00	0.0
	2212	1	0	0	0	0	0.0000000000E+00	0.0000000000E+00	5.9611200274E+03	5.9611200274E+03	9.3827000000E-01	0.000E+00	0.0
	2212	1	0	0	0	0	0.0000000000E+00	0.0000000000E+00	-5.9928602334E+03	5.9928602334E+03	9.3827000000E-01	0.000E+00	0.0
	51	2	1	2	0	0	-4.1386081923E+01	1.2326149353E+02	1.2974616373E+01	1.0536718646E+03	1.0455380692E+03	0.000E+00	0.0
	1000022	2	5	5	0	0	4.1386081923E+01	-1.2326149353E+02	4.5246141096E+01	8.6503217358E+02	8.5400658339E+02	0.000E+00	0.0
	14	1	6	6	0	0	-1.3097777117E+02	7.1128221328E+01	-1.7075398439E+02	3.9622761589E+02	3.2500000000E+02	0.000E+00	0.0
	-14	1	6	6	0	0	1.7236385309E+02	-1.9438971486E+02	2.1600012549E+02	4.6880455769E+02	3.2500000000E+02	0.000E+00	0.0
	25	2	5	5	0	0	-4.1386081923E+01	1.2326149353E+02	-1.3505935035E+01	1.8098756560E+02	1.2517142269E+02	0.000E+00	0.0
	-5	1	9	9	0	501	2.7535331002E+01	-1.0022509249E+01	-8.5043222417E+00	3.0796769990E+01	4.1800000000E+00	0.000E+00	0.0
	5	1	9	9	501	0	-6.8921412925E+01	1.3328400278E+02	-5.0016127934E+00	1.5019079561E+02	4.1800000000E+00	0.000E+00	0.0
</event>
<event>
    11  -1  1.0000000E+00  1.0000000E+00  -1.0000000E+00  -1.0000000E+00
	2212	-1	0	0	0	0	0.0000000000E+00	0.0000000000E+00	6.5000000000E+03	6.5000000000E+03	9.3827000000E-01	0.000E+00	0.0
	2212	-1	0	0	0	0	0.0000000000E+00	0.0000000000E+00	-6.5000000000E+03	6.5000000000E+03	9.3827000000E-01	0.000E+00	0.0
	2212	1	0	0	0	0	0.0000000000E+00	0.0000000000E+00	4.8690162638E+03	4.8690162638E+03	9.3827000000E-01	0.000E+00	0.0
	2212	1	0	0	0	0	0.0000000000E+00	0.0000000000E+00	-6.3288606528E+03	6.3288606528E+03	9.3827000000E-01	0.000E+00	0.0
	51	2	1	2	0	0	-6.1152997622E+01	-6.5899851595E+01	1.2853798988E+03	1.6663690862E+03	1.0566465670E+03	0.000E+00	0.0
	1000022	2	5	5	0	0	6.1152997622E+01	6.5899851595E+01	1.3858488936E+03	1.6311625577E+03	8.5558848405E+02	0.000E+00	0.0
	14	1	6	6	0	0	1.5149596920E+02	-3.5165116716E+01	1.1555166676E+03	1.2103848080E+03	3.2500000000E+02	0.000E+00	0.0
	-14	1	6	6	0	0	-9.0342971576E+01	1.0106496831E+02	2.3033222596E+02	4.2077774971E+02	3.2500000000E+02	0.000E+00	0.0
	25	2	5	5	0	0	-6.1152997622E+01	-6.5899851595E+01	7.3995495392E+01	1.7096052571E+02	1.2517862619E+02	0.000E+00	0.0
	-5	1	9	9	0	501	1.1393465986E+01	-7.6943899697E+01	2.2048644694E+01	8.0955480979E+01	4.1800000000E+00	0.000E+00	0.0
	5	1	9	9	501	0	-7.2546463607E+01	1.1044048102E+01	5.1946850698E+01	9.0005044735E+01	4.1800000000E+00	0.000E+00	0.0
</event>
<event>
    11  -1  1.0000000E+00  1.0000000E+00  -1.0000000E+00  -1.0000000E+00
	2212	-1	0	0	0	0	0.0000000000E+00	0.0000000000E+00	6.5000000000E+03	6.5000000000E+03	9.3827000000E-01	0.000E+00	0.0
	2212	-1	0	0	0	0	0.0000000000E+00	0.0000000000E+00	-6.5000000000E+03	6.5000000000E+03	9.3827000000E-01	0.000E+00	0.0
	2212	1	0	0	0	0	0.0000000000E+00	0.0000000000E+00	5.0788438252E+03	5.0788438252E+03	9.3827000000E-01	0.000E+00	0.0
	2212	1	0	0	0	0	0.0000000000E+00	0.0000000000E+00	-6.3067652394E+03	6.3067652394E+03	9.3827000000E-01	0.000E+00	0.0
	51	2	1	2	0	0	4.0679766942E+01	-5.1603593756E+01	1.2268174696E+03	1.6148888416E+03	1.0480778085E+03	0.000E+00	0.0
	1000022	2	5	5	0	0	-4.0679766942E+01	5.1603593756E+01	1.0657732472E+03	1.3992598074E+03	9.0428846053E+02	0.000E+00	0.0
	14	1	6	6	0	0	-3.3399523911E+02	5.1256227174E+01	5.4377675476E+02	7.1798201899E+02	3.2500000000E+02	0.000E+00	0.0
	-14	1	6	6	0	0	2.9331547216E+02	3.4736658224E-01	5.2199649241E+02	6.8127778840E+02	3.2500000000E+02	0.000E+00	0.0
	25	2	5	5	0	0	4.0679766942E+01	-5.1603593756E+01	1.6214816702E+02	2.1513112798E+02	1.2518626056E+02	0.000E+00	0.0
	-5	1	9	9	0	501	-3.0524537493E+01	-6.0526418655E+01	9.4876870254E+01	1.1668027963E+02	4.1800000000E+00	0.000E+00	0.0
	5	1	9	9	501	0	7.1204304435E+01	8.9228248987E+00	6.7271296765E+01	9.8450848359E+01	4.1800000000E+00	0.000E+00	0.0
</event>
<event>
    11  -1  1.0000000E+00  1.0000000E+00  -1.0000000E+00  -1.0000000E+00
	2212	-1	0	0	0	0	0.0000000000E+00	0.0000000000E+00	6.5000000000E+03	6.5000000000E+03	9.3827000000E-01	0.000E+00	0.0
	2212	-1	0	0	0	0	0.0000000000E+00	0.0000000000E+00	-6.5000000000E+03	6.5000000000E+03	9.3827000000E-01	0.000E+00	0.0
	2212	1	0	0	0	0	0.0000000000E+00	0.0000000000E+00	6.2808024418E+03	6.2808024418E+03	9.3827000000E-01	0.000E+00	0.0
	2212	1	0	0	0	0	0.0000000000E+00	0.0000000000E+00	-5.2448540365E+03	5.2448540365E+03	9.3827000000E-01	0.000E+00	0.0
	51	2	1	2	0	0	-1.6694239714E+02	5.9264225751E+00	-1.1403486057E+03	1.5584606349E+03	1.0490470540E+03	0.000E+00	0.0
	1000022	2	5	5	0	0	1.6694239714E+02	-5.9264225751E+00	-7.3096305395E+02	1.1047571551E+03	8.1134240554E+02	0.000E+00	0.0
	14	1	6	6	0	0	-5.0652576588E+01	-2.0561274701E+02	-3.1184624770E+02	4.9771012392E+02	3.2500000000E+02	0.000E+00	0.0
	-14	1	6	6	0	0	2.1759497373E+02	1.9968632444E+02	-4.1911680625E+02	6.0704703116E+02	3.2500000000E+02	0.000E+00	0.0
	25	2	5	5	0	0	-1.6694239714E+02	5.9264225751E+00	-3.0498535133E+02	3.6958636660E+02	1.2519237759E+02	0.000E+00	0.0
	-5	1	9	9	0	501	1.7585307468E+01	-1.2202819511E+01	-2.0149791690E+01	2.9692395456E+01	4.1800000000E+00	0.000E+00	0.0
	5	1	9	9	501	0	-1.8452770461E+02	1.8129242086E+01	-2.8483555964E+02	3.3989397115E+02	4.1800000000E+00	0.000E+00	0.0
</event>
<event>
    11  -1  1.0000000E+00  1.0000000E+00  -1.0000000E+00  -1.0000000E+00
	2212	-1	0	0	0	0	0.0000000000E+00	0.0000000000E+00	6.5000000000E+03	6.5000000000E+03	9.3827000000E-01	0.000E+00	0.0
	2212	-1	0	0	0	0	0.0000000000E+00	0.0000000000E+00	-6.5000000000E+03	6.5000000000E+03	9.3827000000E-01	0.000E+00	0.0
	2212	1	0	0	0	0	0.0000000000E+00	0.0000000000E+00	5.3174634811E+03	5.3174634811E+03	9.3827000000E-01	0.000E+00	0.0
	2212	1	0	0	0	0	0.0000000000E+00	0.0000000000E+00	-6.2660492374E+03	6.2660492374E+03	9.3827000000E-01	0.000E+00	0.0
	51	2	1	2	0	0	-9.1309975916E+01	-2.5418711645E+01	8.1813895700E+02	1.3360225511E+03	1.0519606844E+03	0.000E+00	0.0
	1000022	2	5	5	0	0	9.1309975916E+01	2.5418711645E+01	9.1802594840E+02	1.2565269265E+03	8.5270431715E+02	0.000E+00	0.0
	14	1	6	6	0	0	1.4482610243E+02	1.2477296013E+02	8.1403578731E+02	8.9711880738E+02	3.2500000000E+02	0.000E+00	0.0
	-14	1	6	6	0	0	-5.3516126514E+01	-9.9354248484E+01	1.0399016109E+02	3.5940811912E+02	3.2500000000E+02	0.000E+00	0.0
	25	2	5	5	0	0	-9.1309975916E+01	-2.5418711645E+01	3.0559807956E+01	1.5996035502E+02	1.2517903464E+02	0.000E+00	0.0
	-5	1	9	9	0	501	-4.9809819860E+01	4.0440814496E+01	4.7803610062E+01	8.0119505531E+01	4.1800000000E+00	0.000E+00	0.0
	5	1	9	9	501	0	-4.1500156056E+01	-6.5859526142E+01	-1.7243802106E+01	7.9840849490E+01	4.1800000000E+00	0.000E+00	0.0
</event>
<event>
    11  -1  1.0000000E+00  1.0000000E+00  -1.0000000E+00  -1.0000000E+00
	2212	-1	0	0	0	0	0.0000000000E+00	0.0000000000E+00	6.5000000000E+03	6.5000000000E+03	9.3827000000E-01	0.000E+00	0.0
	2212	-1	0	0	0	0	0.0000000000E+00	0.0000000000E+00	-6.5000000000E+03	6.5000000000E+03	9.3827000000E-01	0.000E+00	0.0
	2212	1	0	0	0	0	0.0000000000E+00	0.0000000000E+00	5.1163405202E+03	5.1163405202E+03	9.3827000000E-01	0.000E+00	0.0
	2212	1	0	0	0	0	0.0000000000E+00	0.0000000000E+00	-6.2983473412E+03	6.2983473412E+03	9.3827000000E-01	0.000E+00	0.0
	51	2	1	2	0	0	-1.6556535060E+01	1.3534979435E+02	1.1718614214E+03	1.5836436874E+03	1.0564442493E+03	0.000E+00	0.0
	1000022	2	5	5	0	0	1.6556535060E+01	-1.3534979435E+02	9.9438648229E+02	1.3217364135E+03	8.5999359594E+02	0.000E+00	0.0
	14	1	6	6	0	0	-1.8417095122E+02	1.1786092347E+02	6.0302599097E+02	7.1907960779E+02	3.2500000000E+02	0.000E+00	0.0
	-14	1	6	6	0	0	2.0072748628E+02	-2.5321071782E+02	3.9136049132E+02	6.0265680576E+02	3.2500000000E+02	0.000E+00	0.0
	25	2	5	5	0	0	-1.6556535060E+01	1.3534979435E+02	1.8762033875E+02	2.6357572505E+02	1.2520816921E+02	0.000E+00	0.0
	-5	1	9	9	0	501	-3.8331813322E+01	1.4818881334E+02	1.3132905446E+02	2.0172765120E+02	4.1800000000E+00	0.000E+00	0.0
	5	1	9	9	501	0	2.1775278261E+01	-1.2839018993E+01	5.6291284287E+01	6.1848073848E+01	4.1800000000E+00	0.000E+00	0.0
</event>
<event>
    11  -1  1.0000000E+00  1.0000000E+00  -1.0000000E+00  -1.0000000E+00
	2212	-1	0	0	0	0	0.0000000000E+00	0.0000000000E+00	6.5000000000E+03	6.5000000000E+03	9.3827000000E-01	0.000E+00	0.0
	2212	-1	0	0	0	0	0.0000000000E+00	0.0000000000E+00	-6.5000000000E+03	6.5000000000E+03	9.3827000000E-01	0.000E+00	0.0
	2212	1	0	0	0	0	0.0000000000E+00	0.0000000000E+00	6.1480613623E+03	6.1480613623E+03	9.3827000000E-01	0.000E+00	0.0
	2212	1	0	0	0	0	0.0000000000E+00	0.0000000000E+00	-5.6809182912E+03	5.6809182912E+03	9.3827000000E-01	0.000E+00	0.0
	51	2	1	2	0	0	1.1208789320E+02	1.2250155620E+02	-4.5988193875E+02	1.1798846247E+03	1.0738091092E+03	0.000E+00	0.0
	1000022	2	5	5	0	0	-1.1208789320E+02	-1.2250155620E+02	-3.8937597784E+02	9.4900984301E+02	8.4937371218E+02	0.000E+00	0.0
	14	1	6	6	0	0	-2.6496202179E+02	7.7144481810E+01	-3.1811744195E+02	5.3195850490E+02	3.2500000000E+02	0.000E+00	0.0
	-14	1	6	6	0	0	1.5287412859E+02	-1.9964603801E+02	-7.1258535893E+01	4.1705133811E+02	3.2500000000E+02	0.000E+00	0.0
	25	2	5	5	0	0	1.1208789320E+02	1.2250155620E+02	-7.7767093277E+01	2.2201050347E+02	1.2518233014E+02	0.000E+00	0.0
	-5	1	9	9	0	501	3.4930105914E+01	4.9918165005E+01	-9.6650264646E+01	1.1432708145E+02	4.1800000000E+00	0.000E+00	0.0
	5	1	9	9	501	0	7.7157787290E+01	7.2583391191E+01	1.8883171369E+01	1.0768342202E+02	4.1800000000E+00	0.000E+00	0.0
</event>
<event>
    11  -1  1.0000000E+00  1.0000000E+00  -1.0000000E+00  -1.0000000E+00
	2212	-1	0	0	0	0	0.0000000000E+00	0.0000000000E+00	6.5000000000E+03	6.5000000000E+03	9.3827000000E-01	0.000E+00	0.0
	2212	-1	0	0	0	0	0.0000000000E+00	0.0000000000E+00	-6.5000000000E+03	6.5000000000E+03	9.3827000000E-01	0.000E+00	0.0
	2212	1	0	0	0	0	0.0000000000E+00	0.0000000000E+00	6.3314999864E+03	6.3314999864E+03	9.3827000000E-01	0.000E+00	0.0
	2212	1	0	0	0	0	0.0000000000E+00	0.0000000000E+00	-4.8718409758E+03	4.8718409758E+03	9.3827000000E-01	0.000E+00	0.0
	51	2	1	2	0	0	-5.0243355649E+01	5.6396319716E+01	-1.6887192870E+03	1.9886822373E+03	1.0475587195E+03	0.000E+00	0.0
	1000022	2	5	5	0	0	5.0243355649E+01	-5.6396319716E+01	-9.7652598044E+02	1.2919038194E+03	8.4244142136E+02	0.000E+00	0.0
	14	1	6	6	0	0	2.0754600734E+02	-2.2466579172E+02	-5.4993729558E+02	7.0824154934E+02	3.2500000000E+02	0.000E+00	0.0
	-14	1	6	6	0	0	-1.5730265170E+02	1.6826947201E+02	-4.2658868486E+02	5.8366227006E+02	3.2500000000E+02	0.000E+00	0.0
	25	2	5	5	0	0	-5.0243355649E+01	5.6396319716E+01	-4.8313303020E+02	5.0475521844E+02	1.2512140506E+02	0.000E+00	0.0
	-5	1	9	9	0	501	-1.8877207081E+01	-3.5324734824E+01	-7.3715279381E+01	8.3997622893E+01	4.1800000000E+00	0.000E+00	0.0
	5	1	9	9	501	0	-3.1366148568E+01	9.1721054540E+01	-4.0941775082E+02	4.2075759555E+02	4.1800000000E+00	0.000E+00	0.0
</event>
<event>
    11  -1  1.0000000E+00  1.0000000E+00  -1.0000000E+00  -1.0000000E+00
	2212	-1	0	0	0	0	0.0000000000E+00	0.0000000000E+00	6.5000000000E+03	6.5000000000E+03	9.3827000000E-01	0.000E+00	0.0
	2212	-1	0	0	0	0	0.0000000000E+00	0.0000000000E+00	-6.5000000000E+03	6.5000000000E+03	9.3827000000E-01	0.000E+00	0.0
	2212	1	0	0	0	0	0.0000000000E+00	0.0000000000E+00	6.0753718457E+03	6.0753718457E+03	9.3827000000E-01	0.000E+00	0.0
	2212	1	0	0	0	0	0.0000000000E+00	0.0000000000E+00	-5.8441140881E+03	5.8441140881E+03	9.3827000000E-01	0.000E+00	0.0
	51	2	1	2	0	0	-1.2583061753E+02	-9.8927112284E+01	-1.5224545147E+02	1.0783455346E+03	1.0554764311E+03	0.000E+00	0.0
	1000022	2	5	5	0	0	1.2583061753E+02	9.8927112284E+01	-2.6569524988E+02	8.7441406679E+02	8.1754882211E+02	0.000E+00	0.0
	14	1	6	6	0	0	-1.6053701611E+02	9.7420629173E+01	-1.8790571423E+01	3.7582043332E+02	3.2500000000E+02	0.000E+00	0.0
	-14	1	6	6	0	0	2.8636763363E+02	1.5064831107E+00	-2.4690467846E+02	4.9859363346E+02	3.2500000000E+02	0.000E+00	0.0
	25	2	5	5	0	0	-1.2583061753E+02	-9.8927112284E+01	3.4437492247E+01	2.0609999937E+02	1.2518526676E+02	0.000E+00	0.0
	-5	1	9	9	0	501	-4.9325438044E+01	-1.0718923801E+02	-7.6081659544E+00	1.1831267122E+02	4.1800000000E+00	0.000E+00	0.0
	5	1	9	9	501	0	-7.6505179482E+01	8.2621257223E+00	4.2045658201E+01	8.7787328144E+01	4.1800000000E+00	0.000E+00	0.0
</event>
<event>
    11  -1  1.0000000E+00  1.0000000E+00  -1.0000000E+00  -1.0000000E+00
	2212	-1	0	0	0	0	0.0000000000E+00	0.0000000000E+00	6.5000000000E+03	6.5000000000E+03	9.3827000000E-01	0.000E+00	0.0
	2212	-1	0	0	0	0	0.0000000000E+00	0.0000000000E+00	-6.5000000000E+03	6.5000000000E+03	9.3827000000E-01	0.000E+00	0.0
	2212	1	0	0	0	0	0.0000000000E+00	0.0000000000E+00	6.2314262498E+03	6.2314262498E+03	9.3827000000E-01	0.000E+00	0.0
	2212	1	0	0	0	0	0.0000000000E+00	0.0000000000E+00	-5.4572507491E+03	5.4572507491E+03	9.3827000000E-01	0.000E+00	0.0
	51	2	1	2	0	0	-7.9210214255E+01	1.3261628529E+02	-7.6259455827E+02	1.3136331698E+03	1.0584046048E+03	0.000E+00	0.0
	1000022	2	5	5	0	0	7.9210214255E+01	-1.3261628529E+02	-6.4814380040E+02	1.0759201764E+03	8.4477955868E+02	0.000E+00	0.0
	14	1	6	6	0	0	1.8386440434E+02	1.4089721658E+02	-4.3138498087E+02	5.8768711620E+02	3.2500000000E+02	0.000E+00	0.0
	-14	1	6	6	0	0	-1.0465419008E+02	-2.7351350187E+02	-2.1675881953E+02	4.8823306018E+02	3.2500000000E+02	0.000E+00	0.0
	25	2	5	5	0	0	-7.9210214255E+01	1.3261628529E+02	-1.2603170033E+02	2.3540282477E+02	1.2517652836E+02	0.000E+00	0.0
	-5	1	9	9	0	501	-5.0867494058E+01	1.4751315181E+02	-7.0744448691E+01	1.7137643166E+02	4.1800000000E+00	0.000E+00	0.0
	5	1	9	9	501	0	-2.8342720198E+01	-1.4896866518E+01	-5.5287251638E+01	6.4026393104E+01	4.1800000000E+00	0.000E+00	0.0
</event>
<event>
    11  -1  1.0000000E+00  1.0000000E+00  -1.0000000E+00  -1.0000000E+00
	2212	-1	0	0	0	0	0.0000000000E+00	0.0000000000E+00	6.5000000000E+03	6.5000000000E+03	9.3827000000E-01	0.000E+00	0.0
	2212	-1	0	0	0	0	0.0000000000E+00	0.0000000000E+00	-6.5000000000E+03	6.5000000000E+03	9.3827000000E-01	0.000E+00	0.0
	2212	1	0	0	0	0	0.0000000000E+00	0.0000000000E+00	5.8888374494E+03	5.8888374494E+03	9.3827000000E-01	0.000E+00	0.0
	2212	1	0	0	0	0	0.0000000000E+00	0.0000000000E+00	-6.0536137369E+03	6.0536137369E+03	9.3827000000E-01	0.000E+00	0.0
	51	2	1	2	0	0	-8.4656117775E+01	-1.9257368928E+01	1.1063572222E+02	1.0540569415E+03	1.0446330784E+03	0.000E+00	0.0
	1000022	2	5	5	0	0	8.4656117775E+01	1.9257368928E+01	1.9419710670E+02	9.0238716507E+02	8.7695642703E+02	0.000E+00	0.0
	14	1	6	6	0	0	-8.1579912209E+01	-1.9280023405E+02	2.7255033982E+02	4.7300729388E+02	3.2500000000E+02	0.000E+00	0.0
	-14	1	6	6	0	0	1.6623602998E+02	2.1205760298E+02	-7.8353233115E+01	4.2937987119E+02	3.2500000000E+02	0.000E+00	0.0
	25	2	5	5	0	0	-8.4656117775E+01	-1.9257368928E+01	-2.9420819195E+01	1.5516164861E+02	1.2518805079E+02	0.000E+00	0.0
	-5	1	9	9	0	501	-3.9818318462E+01	-2.9126766173E+01	-7.5301719593E+01	9.0120410377E+01	4.1800000000E+00	0.000E+00	0.0
	5	1	9	9	501	0	-4.4837799312E+01	9.8693972451E+00	4.5880900398E+01	6.5041238230E+01	4.1800000000E+00	0.000E+00	0.0
</event>
<event>
    11  -1  1.0000000E+00  1.0000000E+00  -1.0000000E+00  -1.0000000E+00
	2212	-1	0	0	0	0	0.0000000000E+00	0.0000000000E+00	6.5000000000E+03	6.5000000000E+03	9.3827000000E-01	0.000E+00	0.0
	2212	-1	0	0	0	0	0.0000000000E+00	0.0000000000E+00	-6.5000000000E+03	6.5000000000E+03	9.3827000000E-01	0.000E+00	0.0
	2212	1	0	0	0	0	0.0000000000E+00	0.0000000000E+00	6.3005742798E+03	6.3005742798E+03	9.3827000000E-01	0.000E+00	0.0
	2212	1	0	0	0	0	0.0000000000E+00	0.0000000000E+00	-5.1244998275E+03	5.1244998275E+03	9.3827000000E-01	0.000E+00	0.0
	51	2	1	2	0	0	5.8324104501E+01	1.0582886473E+02	-1.2693684209E+03	1.6501933487E+03	1.0474924584E+03	0.000E+00	0.0
	1000022	2	5	5	0	0	-5.8324104501E+01	-1.0582886473E+02	-8.8711146401E+02	1.2376306334E+03	8.5449481294E+02	0.000E+00	0.0
	14	1	6	6	0	0	-9.8577375658E+01	-1.3319577043E+02	-8.2654488207E+02	9.0347111427E+02	3.2500000000E+02	0.000E+00	0.0
	-14	1	6	6	0	0	4.0253271157E+01	2.7366905704E+01	-6.0566581944E+01	3.3415951911E+02	3.2500000000E+02	0.000E+00	0.0
	25	2	5	5	0	0	5.8324104501E+01	1.0582886473E+02	-2.8896298822E+02	3.3729525932E+02	1.2516802157E+02	0.000E+00	0.0
	-5	1	9	9	0	501	2.4878480801E+01	-2.1145633605E+01	-1.1302697911E+02	1.1772275496E+02	4.1800000000E+00	0.000E+00	0.0
	5	1	9	9	501	0	3.3445623701E+01	1.2697449833E+02	-1.7593600911E+02	2.1957250436E+02	4.1800000000E+00	0.000E+00	0.0
</event>
<event>
    11  -1  1.0000000E+00  1.0000000E+00  -1.0000000E+00  -1.0000000E+00
	2212	-1	0	0	0	0	0.0000000000E+00	0.0000000000E+00	6.5000000000E+03	6.5000000000E+03	9.3827000000E-01	0.000E+00	0.0
	2212	-1	0	0	0	0	0.0000000000E+00	0.0000000000E+00	-6.5000000000E+03	6.5000000000E+03	9.3827000000E-01	0.000E+00	0.0
	2212	1	0	0	0	0	0.0000000000E+00	0.0000000000E+00	6.2648615030E+03	6.2648615030E+03	9.3827000000E-01	0.000E+00	0.0
	2212	1	0	0	0	0	0.0000000000E+00	0.0000000000E+00	-5.3052620195E+03	5.3052620195E+03	9.3827000000E-01	0.000E+00	0.0
	51	2	1	2	0	0	5.7264267646E+00	-1.4216560708E+02	-9.4657884401E+02	1.4282755097E+03	1.0600545137E+03	0.000E+00	0.0
	1000022	2	5	5	0	0	-5.7264267646E+00	1.4216560708E+02	-8.0916569249E+02	1.1879178670E+03	8.5799527334E+02	0.000E+00	0.0
	14	1	6	6	0	0	2.2465018139E+02	4.0709269120E-01	-1.9064725908E+02	4.3867897957E+02	3.2500000000E+02	0.000E+00	0.0
	-14	1	6	6	0	0	-2.3037660815E+02	1.4175851439E+02	-6.1851843341E+02	7.4923888744E+02	3.2500000000E+02	0.000E+00	0.0
	25	2	5	5	0	0	5.7264267646E+00	-1.4216560708E+02	-1.5043379104E+02	2.4195861041E+02	1.2517903925E+02	0.000E+00	0.0
	-5	1	9	9	0	501	-5.2437982769E+01	-9.2720049664E+01	-5.5878701078E+01	1.2036050549E+02	4.1800000000E+00	0.000E+00	0.0
	5	1	9	9	501	0	5.8164409534E+01	-4.9445557421E+01	-9.4555089960E+01	1.2159810493E+02	4.1800000000E+00	0.000E+00	0.0
</event>
<event>
    11  -1  1.0000000E+00  1.0000000E+00  -1.0000000E+00  -1.0000000E+00
	2212	-1	0	0	0	0	0.0000000000E+00	0.0000000000E+00	6.5000000000E+03	6.5000000000E+03	9.3827000000E-01	0.000E+00	0.0
	2212	-1	0	0	0	0	0.0000000000E+00	0.0000000000E+00	-6.5000000000E+03	6.5000000000E+03	9.3827000000E-01	0.000E+00	0.0
	2212	1	0	0	0	0	0.0000000000E+00	0.0000000000E+00	5.7356129729E+03	5.7356129729E+03	9.3827000000E-01	0.000E+00	0.0
	2212	1	0	0	0	0	0.0000000000E+00	0.0000000000E+00	-6.1408942130E+03	6.1408942130E+03	9.3827000000E-01	0.000E+00	0.0
	51	2	1	2	0	0	1.1692979623E+02	4.8185297391E+01	4.6292981963E+02	1.1525110142E+03	1.0478469449E+03	0.000E+00	0.0
	1000022	2	5	5	0	0	-1.1692979623E+02	-4.8185297391E+01	2.7949254128E+02	9.0558125598E+02	8.5203693020E+02	0.000E+00	0.0
	14	1	6	6	0	0	-2.6844724350E+02	-1.8081562284E+02	2.4934291704E+02	5.2206810119E+02	3.2500000000E+02	0.000E+00	0.0
	-14	1	6	6	0	0	1.5151744727E+02	1.3263032545E+02	3.0149624247E+01	3.8351315479E+02	3.2500000000E+02	0.000E+00	0.0
	25	2	5	5	0	0	1.1692979623E+02	4.8185297391E+01	1.2578869884E+02	2.1791155817E+02	1.2517288164E+02	0.000E+00	0.0
	-5	1	9	9	0	501	1.1238558961E+02	-1.3556001287E+01	9.8552788483E+01	1.5014796183E+02	4.1800000000E+00	0.000E+00	0.0
	5	1	9	9	501	0	4.5442066131E+00	6.1741298678E+01	2.7235910355E+01	6.7763596341E+01	4.1800000000E+00	0.000E+00	0.0
</event>
<event>
    11  -1  1.0000000E+00  1.0000000E+00  -1.0000000E+00  -1.0000000E+00
	2212	-1	0	0	0	0	0.0000000000E+00	0.0000000000E+00	6.5000000000E+03	6.5000000000E+03	9.3827000000E-01	0.000E+00	0.0
	2212	-1	0	0	0	0	0.0000000000E+00	0.0000000000E+00	-6.5000000000E+03	6.5000000000E+03	9.3827000000E-01	0.000E+00	0.0
	2212	1	0	0	0	0	0.0000000000E+00	0.0000000000E+00	5.9273723303E+03	5.9273723303E+03	9.3827000000E-01	0.000E+00	0.0
	2212	1	0	0	0	0	0.0000000000E+00	0.0000000000E+00	-6.0128583263E+03	6.0128583263E+03	9.3827000000E-01	0.000E+00	0.0
	51	2	1	2	0	0	3.2911517970E+01	1.4261670935E+02	1.3749670966E+02	1.0752354369E+03	1.0563158646E+03	0.000E+00	0.0
	1000022	2	5	5	0	0	-3.2911517970E+01	-1.4261670935E+02	1.8268375741E+01	8.5578332706E+02	8.4297608241E+02	0.000E+00	0.0
	14	1	6	6	0	0	-4.3699605070E+01	1.5445625742E+02	-1.3883245281E+02	3.8815697970E+02	3.2500000000E+02	0.000E+00	0.0
	-14	1	6	6	0	0	1.0788087099E+01	-2.9707296677E+02	1.5710082855E+02	4.6762634735E+02	3.2500000000E+02	0.000E+00	0.0
	25	2	5	5	0	0	3.2911517970E+01	1.4261670935E+02	6.7217620239E+01	2.0398601642E+02	1.2517744455E+02	0.000E+00	0.0
	-5	1	9	9	0	501	9.5551302631E+00	2.3384014399E+01	7.7848853703E+01	8.1951382335E+01	4.1800000000E+00	0.000E+00	0.0
	5	1	9	9	501	0	2.3356387707E+01	1.1923269495E+02	-1.0631233463E+01	1.2203463408E+02	4.1800000000E+00	0.000E+00	0.0
</event>
<event>
    11  -1  1.0000000E+00  1.0000000E+00  -1.0000000E+00  -1.0000000E+00
	2212	-1	0	0	0	0	0.0000000000E+00	0.0000000000E+00	6.5000000000E+03	6.5000000000E+03	9.3827000000E-01	0.000E+00	0.0
	2212	-1	0	0	0	0	0.0000000000E+00	0.0000000000E+00	-6.5000000000E+03	6.5000000000E+03	9.3827000000E-01	0.000E+00	0.0
	2212	1	0	0	0	0	0.0000000000E+00	0.0000000000E+00	4.8628323458E+03	4.8628323458E+03	9.3827000000E-01	0.000E+00	0.0
	2212	1	0	0	0	0	0.0000000000E+00	0.0000000000E+00	-6.3278687105E+03	6.3278687105E+03	9.3827000000E-01	0.000E+00	0.0
	51	2	1	2	0	0	3.8335304419E+01	-8.8459983744E+01	1.2655400083E+03	1.6547257762E+03	1.0617114097E+03	0.000E+00	0.0
	1000022	2	5	5	0	0	-3.8335304419E+01	8.8459983744E+01	1.4014632551E+03	1.6389850854E+03	8.4432108259E+02	0.000E+00	0.0
	14	1	6	6	0	0	2.4471647832E+02	1.5247772408E+01	7.6946757023E+02	8.7053086732E+02	3.2500000000E+02	0.000E+00	0.0
	-14	1	6	6	0	0	-2.8305178274E+02	7.3212211336E+01	6.3199568484E+02	7.6845421806E+02	3.2500000000E+02	0.000E+00	0.0
	25	2	5	5	0	0	3.8335304419E+01	-8.8459983744E+01	6.3573109666E+01	1.7031385827E+02	1.2518189069E+02	0.000E+00	0.0
	-5	1	9	9	0	501	7.2941286827E+01	-5.1559527272E+01	7.6780873187E+01	1.1786259400E+02	4.1800000000E+00	0.000E+00	0.0
	5	1	9	9	501	0	-3.4605982408E+01	-3.6900456472E+01	-1.3207763521E+01	5.2451264270E+01	4.1800000000E+00	0.000E+00	0.0
</event>
<event>
    11  -1  1.0000000E+00  1.0000000E+00  -1.0000000E+00  -1.0000000E+00
	2212	-1	0	0	0	0	0.0000000000E+00	0.0000000000E+00	6.5000000000E+03	6.5000000000E+03	9.3827000000E-01	0.000E+00	0.0
	2212	-1	0	0	0	0	0.0000000000E+00	0.0000000000E+00	-6.5000000000E+03	6.5000000000E+03	9.3827000000E-01	0.000E+00	0.0
	2212	1	0	0	0	0	0.0000000000E+00	0.0000000000E+00	6.0776994503E+03	6.0776994503E+03	9.3827000000E-01	0.000E+00	0.0
	2212	1	0	0	0	0	0.0000000000E+00	0.0000000000E+00	-5.8247509331E+03	5.8247509331E+03	9.3827000000E-01	0.000E+00	0.0
	51	2	1	2	0	0	-1.4243543252E+02	4.9328677847E+01	-2.4596737005E+02	1.1062790455E+03	1.0680038429E+03	0.000E+00	0.0
	1000022	2	5	5	0	0	1.4243543252E+02	-4.9328677847E+01	-2.1598745442E+02	8.9815389626E+02	8.5866679801E+02	0.000E+00	0.0
	14	1	6	6	0	0	-1.5569538473E+02	-1.8421878618E+01	7.5428895013E+01	3.6863930425E+02	3.2500000000E+02	0.000E+00	0.0
	-14	1	6	6	0	0	2.9813081724E+02	-3.0906799228E+01	-2.9141634943E+02	5.2951459200E+02	3.2500000000E+02	0.000E+00	0.0
	25	2	5	5	0	0	-1.4243543252E+02	4.9328677847E+01	-3.6961062792E+01	1.9939572031E+02	1.2518531152E+02	0.000E+00	0.0
	-5	1	9	9	0	501	-6.9542421794E+01	4.2526366186E+01	-8.0066088649E+01	1.1433587014E+02	4.1800000000E+00	0.000E+00	0.0
	5	1	9	9	501	0	-7.2893010724E+01	6.8023116606E+00	4.3105025857E+01	8.5059850167E+01	4.1800000000E+00	0.000E+00	0.0
</event>
<event>
    11  -1  1.0000000E+00  1.0000000E+00  -1.0000000E+00  -1.0000000E+00
	2212	-1	0	0	0	0	0.0000000000E+00	0.0000000000E+00	6.5000000000E+03	6.5000000000E+03	9.3827000000E-01	0.000E+00	0.0
	2212	-1	0	0	0	0	0.0000000000E+00	0.0000000000E+00	-6.5000000000E+03	6.5000000000E+03	9.3827000000E-01	0.000E+00	0.0
	2212	1	0	0	0	0	0.0000000000E+00	0.0000000000E+00	6.1506930729E+03	6.1506930729E+03	9.3827000000E-01	0.000E+00	0.0
	2212	1	0	0	0	0	0.0000000000E+00	0.0000000000E+00	-5.7105765419E+03	5.7105765419E+03	9.3827000000E-01	0.000E+00	0.0
	51	2	1	2	0	0	-3.5810672365E+01	8.7576203757E+01	-5.6385307389E+02	1.1957786643E+03	1.0502401294E+03	0.000E+00	0.0
	1000022	2	5	5	0	0	3.5810672365E+01	-8.7576203757E+01	-2.4020463615E+02	8.8459069570E+02	8.4607945016E+02	0.000E+00	0.0
	14	1	6	6	0	0	2.8214127281E+02	-6.6941025330E+01	-1.8234709962E+02	4.7218668282E+02	3.2500000000E+02	0.000E+00	0.0
	-14	1	6	6	0	0	-2.4633060045E+02	-2.0635178426E+01	-5.7857536532E+01	4.1240401288E+02	3.2500000000E+02	0.000E+00	0.0
	25	2	5	5	0	0	-3.5810672365E+01	8.7576203757E+01	-1.9991189483E+02	2.5413968952E+02	1.2518075081E+02	0.000E+00	0.0
	-5	1	9	9	0	501	-3.6907223237E+01	-2.3830922354E+01	-4.2698035788E+01	6.1405623908E+01	4.1800000000E+00	0.000E+00	0.0
	5	1	9	9	501	0	1.0965508718E+00	1.1140712611E+02	-1.5721385905E+02	1.9273406561E+02	4.1800000000E+00	0.000E+00	0.0
</event>
<event>
    11  -1  1.0000000E+00  1.0000000E+00  -1.0000000E+00  -1.0000000E+00
	2212	-1	0	0	0	0	0.0000000000E+00	0.0000000000E+00	6.5000000000E+03	6.5000000000E+03	9.3827000000E-01	0.000E+00	0.0
	2212	-1	0	0	0	0	0.0000000000E+00	0.0000000000E+00	-6.5000000000E+03	6.5000000000E+03	9.3827000000E-01	0.000E+00	0.0
	2212	1	0	0	0	0	0.0000000000E+00	0.0000000000E+00	6.1099016973E+03	6.1099016973E+03	9.3827000000E-01	0.000E+00	0.0
	2212	1	0	0	0	0	0.0000000000E+00	0.0000000000E+00	-5.7964696294E+03	5.7964696294E+03	9.3827000000E-01	0.000E+00	0.0
	51	2	1	2	0	0	-2.0168904139E+01	-3.0462862118E+01	-1.7891394316E+02	1.0635454779E+03	1.0477518856E+03	0.000E+00	0.0
	1000022	2	5	5	0	0	2.0168904139E+01	3.0462862118E+01	-3.9521069393E+02	9.3969295724E+02	8.5176087644E+02	0.000E+00	0.0
	14	1	6	6	0	0	-3.6473008590E+01	2.0922431544E+02	-4.0938861067E+02	5.6420663686E+02	3.2500000000E+02	0.000E+00	0.0
	-14	1	6	6	0	0	5.6641912729E+01	-1.7876145332E+02	1.4177916746E+01	3.7548632038E+02	3.2500000000E+02	0.000E+00	0.0
	25	2	5	5	0	0	-2.0168904139E+01	-3.0462862118E+01	8.1778626060E+01	1.5393571605E+02	1.2519460984E+02	0.000E+00	0.0
	-5	1	9	9	0	501	-3.8228919104E+01	4.3308593029E+00	-2.0875783903E+01	4.3971324198E+01	4.1800000000E+00	0.000E+00	0.0
	5	1	9	9	501	0	1.8060014965E+01	-3.4793721421E+01	1.0265440996E+02	1.0996439185E+02	4.1800000000E+00	0.000E+00	0.0
</event>
<event>
    11  -1  1.0000000E+00  1.0000000E+00  -1.0000000E+00  -1.0000000E+00
	2212	-1	0	0	0	0	0.0000000000E+00	0.0000000000E+00	6.5000000000E+03	6.5000000000E+03	9.3827000000E-01	0.000E+00	0.0
	2212	-1	0	0	0	0	0.0000000000E+00	0.0000000000E+00	-6.5000000000E+03	6.5000000000E+03	9.3827000000E-01	0.000E+00	0.0
	2212	1	0	0	0	0	0.0000000000E+00	0.0000000000E+00	6.2680985225E+03	6.2680985225E+03	9.3827000000E-01	0.000E+00	0.0
	2212	1	0	0	0	0	0.0000000000E+00	0.0000000000E+00	-5.3171832131E+03	5.3171832131E+03	9.3827000000E-01	0.000E+00	0.0
	51	2	1	2	0	0	8.7683215024E+01	2.3828092513E+01	-8.2278371869E+02	1.3350719134E+03	1.0474673465E+03	0.000E+00	0.0
	1000022	2	5	5	0	0	-8.7683215024E+01	-2.3828092513E+01	-9.1939005758E+02	1.2568361532E+03	8.5211672550E+02	0.000E+00	0.0
	14	1	6	6	0	0	1.8910646040E+02	-1.5292968210E+02	-3.7037016582E+02	5.4949777139E+02	3.2500000000E+02	0.000E+00	0.0
	-14	1	6	6	0	0	-2.7678967543E+02	1.2910158959E+02	-5.4901989176E+02	7.0733838183E+02	3.2500000000E+02	0.000E+00	0.0
	25	2	5	5	0	0	8.7683215024E+01	2.3828092513E+01	-3.1525251783E+01	1.5788211115E+02	1.2520700991E+02	0.000E+00	0.0
	-5	1	9	9	0	501	2.1786187003E+01	6.8706881433E+01	-4.2337518969E-01	7.2200589658E+01	4.1800000000E+00	0.000E+00	0.0
	5	1	9	9	501	0	6.5897028022E+01	-4.4878788920E+01	-3.1101876593E+01	8.5681521489E+01	4.1800000000E+00	0.000E+00	0.0
</event>
<event>
    11  -1  1.0000000E+00  1.0000000E+00  -1.0000000E+00  -1.0000000E+00
	2212	-1	0	0	0	0	0.0000000000E+00	0.0000000000E+00	6.5000000000E+03	6.5000000000E+03	9.3827000000E-01	0.000E+00	0.0
	2212	-1	0	0	0	0	0.0000000000E+00	0.0000000000E+00	-6.5000000000E+03	6.5000000000E+03	9.3827000000E-01	0.000E+00	0.0
	2212	1	0	0	0	0	0.0000000000E+00	0.0000000000E+00	5.3749860387E+03	5.3749860387E+03	9.3827000000E-01	0.000E+00	0.0
	2212	1	0	0	0	0	0.0000000000E+00	0.0000000000E+00	-6.2564054592E+03	6.2564054592E+03	9.3827000000E-01	0.000E+00	0.0
	51	2	1	2	0	0	-1.2646222540E+02	-5.7035443197E+01	8.2900867942E+02	1.3426429771E+03	1.0469904666E+03	0.000E+00	0.0
	1000022	2	5	5	0	0	1.2646222540E+02	5.7035443197E+01	7.8026852090E+02	1.1561338905E+03	8.4177245853E+02	0.000E+00	0.0
	14	1	6	6	0	0	1.8823084824E+02	7.7763118095E+01	7.2484896590E+02	8.2006644739E+02	3.2500000000E+02	0.000E+00	0.0
	-14	1	6	6	0	0	-6.1768622840E+01	-2.0727674898E+01	5.5419554995E+01	3.3606744316E+02	3.2500000000E+02	0.000E+00	0.0
	25	2	5	5	0	0	-1.2646222540E+02	-5.7035443197E+01	1.0115089958E+02	2.1247461156E+02	1.2517275998E+02	0.000E+00	0.0
	-5	1	9	9	0	501	-3.6187513743E+01	-4.9777701671E+01	1.0494775985E+02	1.2173274182E+02	4.1800000000E+00	0.000E+00	0.0
	5	1	9	9	501	0	-9.0274711654E+01	-7.2577415265E+00	-3.7968602692E+00	9.0741869742E+01	4.1800000000E+00	0.000E+00	0.0
</event>
<event>
    11  -1  1.0000000E+00  1.0000000E+00  -1.0000000E+00  -1.0000000E+00
	2212	-1	0	0	0	0	0.0000000000E+00	0.0000000000E+00	6.5000000000E+03	6.5000000000E+03	9.3827000000E-01	0.000E+00	0.0
	2212	-1	0	0	0	0	0.0000000000E+00	0.0000000000E+00	-6.5000000000E+03	6.5000000000E+03	9.3827000000E-01	0.000E+00	0.0
	2212	1	0	0	0	0	0.0000000000E+00	0.0000000000E+00	6.2585017153E+03	6.2585017153E+03	9.3827000000E-01	0.000E+00	0.0
	2212	1	0	0	0	0	0.0000000000E+00	0.0000000000E+00	-5.3591034247E+03	5.3591034247E+03	9.3827000000E-01	0.000E+00	0.0
	51	2	1	2	0	0	-1.2805401257E+02	-2.5526131002E+01	-8.7324929759E+02	1.3717550849E+03	1.0498086796E+03	0.000E+00	0.0
	1000022	2	5	5	0	0	1.2805401257E+02	2.5526131002E+01	-7.7625557452E+02	1.1635700103E+03	8.5689733251E+02	0.000E+00	0.0
	14	1	6	6	0	0	1.4838389608E+02	-1.4537032060E+02	-1.0757674614E+02	4.0043484743E+02	3.2500000000E+02	0.000E+00	0.0
	-14	1	6	6	0	0	-2.0329883506E+01	1.7089645160E+02	-6.6867882838E+02	7.6313516290E+02	3.2500000000E+02	0.000E+00	0.0
	25	2	5	5	0	0	-1.2805401257E+02	-2.5526131002E+01	-1.2314271604E+02	2.1882484962E+02	1.2518295731E+02	0.000E+00	0.0
	-5	1	9	9	0	501	-9.6999781451E+01	-1.6841754272E+01	-1.4806449886E+02	1.7785716323E+02	4.1800000000E+00	0.000E+00	0.0
	5	1	9	9	501	0	-3.1054231119E+01	-8.6843767299E+00	2.4921782823E+01	4.0967686396E+01	4.1800000000E+00	0.000E+00	0.0
</event>
<event>
    11  -1  1.0000000E+00  1.0000000E+00  -1.0000000E+00  -1.0000000E+00
	2212	-1	0	0	0	0	0.0000000000E+00	0.0000000000E+00	6.5000000000E+03	6.5000000000E+03	9.3827000000E-01	0.000E+00	0.0
	2212	-1	0	0	0	0	0.0000000000E+00	0.0000000000E+00	-6.5000000000E+03	6.5000000000E+03	9.3827000000E-01	0.000E+00	0.0
	2212	1	0	0	0	0	0.0000000000E+00	0.0000000000E+00	5.2379320330E+03	5.2379320330E+03	9.3827000000E-01	0.000E+00	0.0
	2212	1	0	0	0	0	0.0000000000E+00	0.0000000000E+00	-6.2851461248E+03	6.2851461248E+03	9.3827000000E-01	0.000E+00	0.0
	51	2	1	2	0	0	-1.8894299206E+01	-1.1661130148E+02	1.1477771481E+03	1.5543449893E+03	1.0414608845E+03	0.000E+00	0.0
	1000022	2	5	5	0	0	1.8894299206E+01	1.1661130148E+02	7.7050718741E+02	1.1510770031E+03	8.4696030072E+02	0.000E+00	0.0
	14	1	6	6	0	0	-8.7917684682E+01	-1.9458284612E+02	2.9806573853E+02	4.8995937359E+02	3.2500000000E+02	0.000E+00	0.0
	-14	1	6	6	0	0	1.0681198389E+02	3.1119414760E+02	4.7244144888E+02	6.6111762949E+02	3.2500000000E+02	0.000E+00	0.0
	25	2	5	5	0	0	-1.8894299206E+01	-1.1661130148E+02	2.7670690434E+02	3.2584483908E+02	1.2511178230E+02	0.000E+00	0.0
	-5	1	9	9	0	501	3.0798180373E+01	-1.0341880574E+02	1.2282061433E+02	1.6354312275E+02	4.1800000000E+00	0.000E+00	0.0
	5	1	9	9	501	0	-4.9692479578E+01	-1.3192495743E+01	1.5388629001E+02	1.6230171633E+02	4.1800000000E+00	0.000E+00	0.0
</event>
<event>
    11  -1  1.0000000E+00  1.0000000E+00  -1.0000000E+00  -1.0000000E+00
	2212	-1	0	0	0	0	0.0000000000E+00	0.0000000000E+00	6.5000000000E+03	6.5000000000E+03	9.3827000000E-01	0.000E+00	0.0
	2212	-1	0	0	0	0	0.0000000000E+00	0.0000000000E+00	-6.5000000000E+03	6.5000000000E+03	9.3827000000E-01	0.000E+00	0.0
	2212	1	0	0	0	0	0.0000000000E+00	0.0000000000E+00	4.9049503390E+03	4.9049503390E+03	9.3827000000E-01	0.000E+00	0.0
	2212	1	0	0	0	0	0.0000000000E+00	0.0000000000E+00	-6.3270876860E+03	6.3270876860E+03	9.3827000000E-01	0.000E+00	0.0
	51	2	1	2	0	0	5.9228752666E+01	6.0829178736E+01	1.2373422768E+03	1.6252504592E+03	1.0503403786E+03	0.000E+00	0.0
	1000022	2	5	5	0	0	-5.9228752666E+01	-6.0829178736E+01	1.3606687345E+03	1.6045252639E+03	8.4609318841E+02	0.000E+00	0.0
	14	1	6	6	0	0	1.2819342287E+02	1.6303649319E+02	4.3708336098E+02	5.8282185633E+02	3.2500000000E+02	0.000E+00	0.0
	-14	1	6	6	0	0	-1.8742217554E+02	-2.2386567192E+02	9.2358537349E+02	1.0217034076E+03	3.2500000000E+02	0.000E+00	0.0
	25	2	5	5	0	0	5.9228752666E+01	6.0829178736E+01	6.1468612581E+01	1.6343671103E+02	1.2539909909E+02	0.000E+00	0.0
	-5	1	9	9	0	501	-1.9014197888E+01	6.5882120949E+01	4.7916836529E+01	8.3758517209E+01	4.1800000000E+00	0.000E+00	0.0
	5	1	9	9	501	0	7.8242950554E+01	-5.0529422128E+00	1.3551776052E+01	7.9678193821E+01	4.1800000000E+00	0.000E+00	0.0
</event>
<event>
    11  -1  1.0000000E+00  1.0000000E+00  -1.0000000E+00  -1.0000000E+00
	2212	-1	0	0	0	0	0.0000000000E+00	0.0000000000E+00	6.5000000000E+03	6.5000000000E+03	9.3827000000E-01	0.000E+00	0.0
	2212	-1	0	0	0	0	0.0000000000E+00	0.0000000000E+00	-6.5000000000E+03	6.5000000000E+03	9.3827000000E-01	0.000E+00	0.0
	2212	1	0	0	0	0	0.0000000000E+00	0.0000000000E+00	6.2792952627E+03	6.2792952627E+03	9.3827000000E-01	0.000E+00	0.0
	2212	1	0	0	0	0	0.0000000000E+00	0.0000000000E+00	-5.2840690299E+03	5.2840690299E+03	9.3827000000E-01	0.000E+00	0.0
	51	2	1	2	0	0	-9.7355608042E+01	7.6552273652E+01	-1.0060959651E+03	1.4494876188E+03	1.0360728261E+03	0.000E+00	0.0
	1000022	2	5	5	0	0	9.7355608042E+01	-7.6552273652E+01	-8.2226700371E+02	1.1898032684E+03	8.5098203684E+02	0.000E+00	0.0
	14	1	6	6	0	0	-7.4732446665E+01	-2.6913036092E+02	-3.0218701039E+02	5.2436445246E+02	3.2500000000E+02	0.000E+00	0.0
	-14	1	6	6	0	0	1.7208805471E+02	1.9257808727E+02	-5.2007999332E+02	6.6543881591E+02	3.2500000000E+02	0.000E+00	0.0
	25	2	5	5	0	0	-9.7355608042E+01	7.6552273652E+01	-1.7295922909E+02	2.4683243895E+02	1.2519182469E+02	0.000E+00	0.0
	-5	1	9	9	0	501	-8.4493901949E+01	6.9983919596E+01	-4.6088329561E+01	1.1907382160E+02	4.1800000000E+00	0.000E+00	0.0
	5	1	9	9	501	0	-1.2861706093E+01	6.5683540565E+00	-1.2687089953E+02	1.2775861735E+02	4.1800000000E+00	0.000E+00	0.0
</event>
<event>
    11  -1  1.0000000E+00  1.0000000E+00  -1.0000000E+00  -1.0000000E+00
	2212	-1	0	0	0	0	0.0000000000E+00	0.0000000000E+00	6.5000000000E+03	6.5000000000E+03	9.3827000000E-01	0.000E+00	0.0
	2212	-1	0	0	0	0	0.0000000000E+00	0.0000000000E+00	-6.5000000000E+03	6.5000000000E+03	9.3827000000E-01	0.000E+00	0.0
	2212	1	0	0	0	0	0.0000000000E+00	0.0000000000E+00	6.0375766468E+03	6.0375766468E+03	9.3827000000E-01	0.000E+00	0.0
	2212	1	0	0	0	0	0.0000000000E+00	0.0000000000E+00	-5.0358278195E+03	5.0358278195E+03	9.3827000000E-01	0.000E+00	0.0
	51	2	1	2	0	0	1.8066121854E+01	9.3434616190E+01	-3.7990156773E+02	1.6916415846E+03	1.6456821191E+03	0.000E+00	0.0
	1000022	2	5	5	0	0	-1.8066121854E+01	-9.3434616190E+01	-1.3178553188E+03	1.5735390132E+03	8.5453260482E+02	0.000E+00	0.0
	14	1	6	6	0	0	-9.5894363661E+01	-6.8168661085E+01	-1.8476881190E+02	3.9192755604E+02	3.2500000000E+02	0.000E+00	0.0
	-14	1	6	6	0	0	7.7828241807E+01	-2.5265955105E+01	-1.1330865069E+03	1.1816114572E+03	3.2500000000E+02	0.000E+00	0.0
	25	2	5	5	0	0	1.8066121854E+01	9.3434616190E+01	3.1610649150E+02	3.5305652037E+02	1.2517659664E+02	0.000E+00	0.0
	-5	1	9	9	0	501	-1.9970333035E+01	9.8361555796E+01	1.3724229614E+02	1.7007859980E+02	4.1800000000E+00	0.000E+00	0.0
	5	1	9	9	501	0	3.8036454889E+01	-4.9269396065E+00	1.7886419536E+02	1.8297792057E+02	4.1800000000E+00	0.000E+00	0.0
</event>
<event>
    11  -1  1.0000000E+00  1.0000000E+00  -1.0000000E+00  -1.0000000E+00
	2212	-1	0	0	0	0	0.0000000000E+00	0.0000000000E+00	6.5000000000E+03	6.5000000000E+03	9.3827000000E-01	0.000E+00	0.0
	2212	-1	0	0	0	0	0.0000000000E+00	0.0000000000E+00	-6.5000000000E+03	6.5000000000E+03	9.3827000000E-01	0.000E+00	0.0
	2212	1	0	0	0	0	0.0000000000E+00	0.0000000000E+00	6.2700146894E+03	6.2700146894E+03	9.3827000000E-01	0.000E+00	0.0
	2212	1	0	0	0	0	0.0000000000E+00	0.0000000000E+00	-5.2516741132E+03	5.2516741132E+03	9.3827000000E-01	0.000E+00	0.0
	51	2	1	2	0	0	7.7823209563E+01	1.0557226812E+01	-7.8361003062E+02	1.3298868578E+03	1.0716279520E+03	0.000E+00	0.0
	1000022	2	5	5	0	0	-7.7823209563E+01	-1.0557226812E+01	-1.0471209844E+03	1.3277605171E+03	8.1259936488E+02	0.000E+00	0.0
	14	1	6	6	0	0	5.5574812649E+01	7.7098523467E+01	-8.5118331766E+02	9.1606265200E+02	3.2500000000E+02	0.000E+00	0.0
	-14	1	6	6	0	0	-1.3339802221E+02	-8.7655750280E+01	-1.9593766676E+02	4.1169786512E+02	3.2500000000E+02	0.000E+00	0.0
	25	2	5	5	0	0	7.7823209563E+01	1.0557226812E+01	2.8780408220E+01	1.5055068036E+02	1.2517702855E+02	0.000E+00	0.0
	-5	1	9	9	0	501	1.0113856143E+02	-2.1331351097E+01	3.5841608939E+00	1.0351016258E+02	4.1800000000E+00	0.000E+00	0.0
	5	1	9	9	501	0	-2.3315351870E+01	3.1888577909E+01	2.5196247326E+01	4.7040517782E+01	4.1800000000E+00	0.000E+00	0.0
</event>
<event>
    11  -1  1.0000000E+00  1.0000000E+00  -1.0000000E+00  -1.0000000E+00
	2212	-1	0	0	0	0	0.0000000000E+00	0.0000000000E+00	6.5000000000E+03	6.5000000000E+03	9.3827000000E-01	0.000E+00	0.0
	2212	-1	0	0	0	0	0.0000000000E+00	0.0000000000E+00	-6.5000000000E+03	6.5000000000E+03	9.3827000000E-01	0.000E+00	0.0
	2212	1	0	0	0	0	0.0000000000E+00	0.0000000000E+00	4.8495748087E+03	4.8495748087E+03	9.3827000000E-01	0.000E+00	0.0
	2212	1	0	0	0	0	0.0000000000E+00	0.0000000000E+00	-6.3317535653E+03	6.3317535653E+03	9.3827000000E-01	0.000E+00	0.0
	51	2	1	2	0	0	-7.5966889447E+01	1.7927878299E+01	1.3104571022E+03	1.6834793764E+03	1.0539035141E+03	0.000E+00	0.0
	1000022	2	5	5	0	0	7.5966889447E+01	-1.7927878299E+01	1.4098083122E+03	1.6543565645E+03	8.6211587873E+02	0.000E+00	0.0
	14	1	6	6	0	0	1.3376583284E+02	2.2810054394E+02	9.4328807307E+02	1.0321533534E+03	3.2500000000E+02	0.000E+00	0.0
	-14	1	6	6	0	0	-5.7798943393E+01	-2.4602842224E+02	4.6652023912E+02	6.2220321111E+02	3.2500000000E+02	0.000E+00	0.0
	25	2	5	5	0	0	-7.5966889447E+01	1.7927878299E+01	7.2370444306E+01	1.6431506147E+02	1.2517819739E+02	0.000E+00	0.0
	-5	1	9	9	0	501	-5.8025275322E+01	-2.8467142565E+01	9.0429040576E+01	1.1123036708E+02	4.1800000000E+00	0.000E+00	0.0
	5	1	9	9	501	0	-1.7941614125E+01	4.6395020864E+01	-1.8058596270E+01	5.3084694382E+01	4.1800000000E+00	0.000E+00	0.0
</event>
<event>
    11  -1  1.0000000E+00  1.0000000E+00  -1.0000000E+00  -1.0000000E+00
	2212	-1	0	0	0	0	0.0000000000E+00	0.0000000000E+00	6.5000000000E+03	6.5000000000E+03	9.3827000000E-01	0.000E+00	0.0
	2212	-1	0	0	0	0	0.0000000000E+00	0.0000000000E+00	-6.5000000000E+03	6.5000000000E+03	9.3827000000E-01	0.000E+00	0.0
	2212	1	0	0	0	0	0.0000000000E+00	0.0000000000E+00	5.6897557554E+03	5.6897557554E+03	9.3827000000E-01	0.000E+00	0.0
	2212	1	0	0	0	0	0.0000000000E+00	0.0000000000E+00	-6.1578055669E+03	6.1578055669E+03	9.3827000000E-01	0.000E+00	0.0
	51	2	1	2	0	0	-1.1906955738E+02	2.7104216892E+00	4.6419082792E+02	1.1570230380E+03	1.0531117129E+03	0.000E+00	0.0
	1000022	2	5	5	0	0	1.1906955738E+02	-2.7104216892E+00	3.9807410047E+02	9.6605751800E+02	8.7213487072E+02	0.000E+00	0.0
	14	1	6	6	0	0	1.2891954648E+02	-2.8205808564E+02	1.6850910683E+02	4.7978884129E+02	3.2500000000E+02	0.000E+00	0.0
	-14	1	6	6	0	0	-9.8499891035E+00	2.7934766395E+02	2.2956499364E+02	4.8626867671E+02	3.2500000000E+02	0.000E+00	0.0
	25	2	5	5	0	0	-1.1906955738E+02	2.7104216892E+00	6.9975710963E+01	1.8638115970E+02	1.2512565958E+02	0.000E+00	0.0
	-5	1	9	9	0	501	-1.3784436910E+02	2.8058986339E+01	5.3602710690E+01	1.5059581601E+02	4.1800000000E+00	0.000E+00	0.0
	5	1	9	9	501	0	1.8774811719E+01	-2.5348564650E+01	1.6373000272E+01	3.5785343687E+01	4.1800000000E+00	0.000E+00	0.0
</event>
<event>
    11  -1  1.0000000E+00  1.0000000E+00  -1.0000000E+00  -1.0000000E+00
	2212	-1	0	0	0	0	0.0000000000E+00	0.0000000000E+00	6.5000000000E+03	6.5000000000E+03	9.3827000000E-01	0.000E+00	0.0
	2212	-1	0	0	0	0	0.0000000000E+00	0.0000000000E+00	-6.5000000000E+03	6.5000000000E+03	9.3827000000E-01	0.000E+00	0.0
	2212	1	0	0	0	0	0.0000000000E+00	0.0000000000E+00	6.2162081933E+03	6.2162081933E+03	9.3827000000E-01	0.000E+00	0.0
	2212	1	0	0	0	0	0.0000000000E+00	0.0000000000E+00	-5.5605975174E+03	5.5605975174E+03	9.3827000000E-01	0.000E+00	0.0
	51	2	1	2	0	0	-1.1381209018E+02	-8.6084957756E+00	-7.4028812429E+02	1.2757087113E+03	1.0326562405E+03	0.000E+00	0.0
	1000022	2	5	5	0	0	1.1381209018E+02	8.6084957756E+00	-4.6063867686E+02	9.6489971532E+02	8.4012866392E+02	0.000E+00	0.0
	14	1	6	6	0	0	-1.3453971235E+02	-1.3854310548E+02	-7.8484517440E+01	3.8610872271E+02	3.2500000000E+02	0.000E+00	0.0
	-14	1	6	6	0	0	2.4835180253E+02	1.4715160126E+02	-3.8215415942E+02	5.7879099261E+02	3.2500000000E+02	0.000E+00	0.0
	25	2	5	5	0	0	-1.1381209018E+02	-8.6084957756E+00	-1.9497199906E+02	2.5829457400E+02	1.2519867598E+02	0.000E+00	0.0
	-5	1	9	9	0	501	2.8376473359E+00	3.7256490911E+01	-1.8780869797E+01	4.2027274807E+01	4.1800000000E+00	0.000E+00	0.0
	5	1	9	9	501	0	-1.1664973752E+02	-4.5864986686E+01	-1.7619112927E+02	2.1626729919E+02	4.1800000000E+00	0.000E+00	0.0
</event>
<event>
    11  -1  1.0000000E+00  1.0000000E+00  -1.0000000E+00  -1.0000000E+00
	2212	-1	0	0	0	0	0.0000000000E+00	0.0000000000E+00	6.5000000000E+03	6.5000000000E+03	9.3827000000E-01	0.000E+00	0.0
	2212	-1	0	0	0	0	0.0000000000E+00	0.0000000000E+00	-6.5000000000E+03	6.5000000000E+03	9.3827000000E-01	0.000E+00	0.0
	2212	1	0	0	0	0	0.0000000000E+00	0.0000000000E+00	5.7115705101E+03	5.7115705101E+03	9.3827000000E-01	0.000E+00	0.0
	2212	1	0	0	0	0	0.0000000000E+00	0.0000000000E+00	-6.1398091677E+03	6.1398091677E+03	9.3827000000E-01	0.000E+00	0.0
	51	2	1	2	0	0	-1.2654042038E+02	9.1938148743E+01	4.1369086247E+02	1.1539261361E+03	1.0658049994E+03	0.000E+00	0.0
	1000022	2	5	5	0	0	1.2654042038E+02	-9.1938148743E+01	3.6661902731E+02	9.3901849003E+02	8.5022415412E+02	0.000E+00	0.0
	14	1	6	6	0	0	5.9628320097E+01	-2.5932309352E+02	3.8100896578E+02	5.6709508497E+02	3.2500000000E+02	0.000E+00	0.0
	-14	1	6	6	0	0	6.6912100284E+01	1.6738494478E+02	-1.4389938476E+01	3.7192340506E+02	3.2500000000E+02	0.000E+00	0.0
	25	2	5	5	0	0	-1.2654042038E+02	9.1938148743E+01	6.1619630227E+01	2.0960183213E+02	1.2518325775E+02	0.000E+00	0.0
	-5	1	9	9	0	501	-1.0945655060E+02	2.9851906618E+00	3.6799698362E+01	1.1559125413E+02	4.1800000000E+00	0.000E+00	0.0
	5	1	9	9	501	0	-1.7083869780E+01	8.8952958081E+01	2.4819931865E+01	9.4010578000E+01	4.1800000000E+00	0.000E+00	0.0
</event>
<event>
    11  -1  1.0000000E+00  1.0000000E+00  -1.0000000E+00  -1.0000000E+00
	2212	-1	0	0	0	0	0.0000000000E+00	0.0000000000E+00	6.5000000000E+03	6.5000000000E+03	9.3827000000E-01	0.000E+00	0.0
	2212	-1	0	0	0	0	0.0000000000E+00	0.0000000000E+00	-6.5000000000E+03	6.5000000000E+03	9.3827000000E-01	0.000E+00	0.0
	2212	1	0	0	0	0	0.0000000000E+00	0.0000000000E+00	6.2186336238E+03	6.2186336238E+03	9.3827000000E-01	0.000E+00	0.0
	2212	1	0	0	0	0	0.0000000000E+00	0.0000000000E+00	-5.5192984427E+03	5.5192984427E+03	9.3827000000E-01	0.000E+00	0.0
	51	2	1	2	0	0	1.4032975616E+02	1.4473156865E+01	-6.5946237851E+02	1.2484143201E+03	1.0505930579E+03	0.000E+00	0.0
	1000022	2	5	5	0	0	-1.4032975616E+02	-1.4473156865E+01	-6.1634675134E+02	1.0539977928E+03	8.4328293985E+02	0.000E+00	0.0
	14	1	6	6	0	0	-1.1054497790E+02	2.5823511040E+02	-3.1887964611E+02	5.3499046074E+02	3.2500000000E+02	0.000E+00	0.0
	-14	1	6	6	0	0	-2.9784778261E+01	-2.7270826727E+02	-2.9746710523E+02	5.1900733207E+02	3.2500000000E+02	0.000E+00	0.0
	25	2	5	5	0	0	1.4032975616E+02	1.4473156865E+01	-8.2988429817E+01	2.0807014071E+02	1.2846863912E+02	0.000E+00	0.0
	-5	1	9	9	0	501	8.1910354055E+01	7.0442448578E+01	-3.3713077335E+01	1.1324967394E+02	4.1800000000E+00	0.000E+00	0.0
	5	1	9	9	501	0	5.8419402108E+01	-5.5969291713E+01	-4.9275352483E+01	9.4820466777E+01	4.1800000000E+00	0.000E+00	0.0
</event>
<event>
    11  -1  1.0000000E+00  1.0000000E+00  -1.0000000E+00  -1.0000000E+00
	2212	-1	0	0	0	0	0.0000000000E+00	0.0000000000E+00	6.5000000000E+03	6.5000000000E+03	9.3827000000E-01	0.000E+00	0.0
	2212	-1	0	0	0	0	0.0000000000E+00	0.0000000000E+00	-6.5000000000E+03	6.5000000000E+03	9.3827000000E-01	0.000E+00	0.0
	2212	1	0	0	0	0	0.0000000000E+00	0.0000000000E+00	5.8287743676E+03	5.8287743676E+03	9.3827000000E-01	0.000E+00	0.0
	2212	1	0	0	0	0	0.0000000000E+00	0.0000000000E+00	-6.0889400017E+03	6.0889400017E+03	9.3827000000E-01	0.000E+00	0.0
	51	2	1	2	0	0	7.0005838061E+01	1.1469914483E+02	2.9439820158E+02	1.0992647732E+03	1.0505503459E+03	0.000E+00	0.0
	1000022	2	5	5	0	0	-7.0005838061E+01	-1.1469914483E+02	1.8203883343E+02	8.8270705300E+02	8.5321561949E+02	0.000E+00	0.0
	14	1	6	6	0	0	-2.4983142194E+02	-2.3333300130E+02	1.3045880358E+02	4.8939199862E+02	3.2500000000E+02	0.000E+00	0.0
	-14	1	6	6	0	0	1.7982558388E+02	1.1863385647E+02	5.1580029855E+01	3.9331505438E+02	3.2500000000E+02	0.000E+00	0.0
	25	2	5	5	0	0	7.0005838061E+01	1.1469914483E+02	7.8126800667E+01	1.9957857769E+02	1.2518426619E+02	0.000E+00	0.0
	-5	1	9	9	0	501	9.1956956921E+01	1.0941384342E+02	2.9777312989E+01	1.4605352384E+02	4.1800000000E+00	0.000E+00	0.0
	5	1	9	9	501	0	-2.1951118860E+01	5.2853014035E+00	4.8349487678E+01	5.3525053843E+01	4.1800000000E+00	0.000E+00	0.0
</event>
<event>
    11  -1  1.0000000E+00  1.0000000E+00  -1.0000000E+00  -1.0000000E+00
	2212	-1	0	0	0	0	0.0000000000E+00	0.0000000000E+00	6.5000000000E+03	6.5000000000E+03	9.3827000000E-01	0.000E+00	0.0
	2212	-1	0	0	0	0	0.0000000000E+00	0.0000000000E+00	-6.5000000000E+03	6.5000000000E+03	9.3827000000E-01	0.000E+00	0.0
	2212	1	0	0	0	0	0.0000000000E+00	0.0000000000E+00	6.1543663305E+03	6.1543663305E+03	9.3827000000E-01	0.000E+00	0.0
	2212	1	0	0	0	0	0.0000000000E+00	0.0000000000E+00	-5.7138501944E+03	5.7138501944E+03	9.3827000000E-01	0.000E+00	0.0
	51	2	1	2	0	0	2.9084925316E+01	-1.8280803002E+01	-5.8719432975E+02	1.1970199121E+03	1.0425350682E+03	0.000E+00	0.0
	1000022	2	5	5	0	0	-2.9084925316E+01	1.8280803002E+01	-2.1944088501E+02	8.7540452752E+02	8.4675773639E+02	0.000E+00	0.0
	14	1	6	6	0	0	8.9715110169E+01	-1.6827251799E+02	7.5050879154E+01	3.8421618363E+02	3.2500000000E+02	0.000E+00	0.0
	-14	1	6	6	0	0	-1.1880003548E+02	1.8655332099E+02	-2.9449176417E+02	4.9118834388E+02	3.2500000000E+02	0.000E+00	0.0
	25	2	5	5	0	0	2.9084925316E+01	-1.8280803002E+01	-2.2107525111E+02	2.5637894765E+02	1.2520294528E+02	0.000E+00	0.0
	-5	1	9	9	0	501	2.6353409704E+01	5.0741273066E+01	-1.2927712954E+02	1.4141862542E+02	4.1800000000E+00	0.000E+00	0.0
	5	1	9	9	501	0	2.7315156118E+00	-6.9022076068E+01	-9.1798121573E+01	1.1496032223E+02	4.1800000000E+00	0.000E+00	0.0
</event>
<event>
    11  -1  1.0000000E+00  1.0000000E+00  -1.0000000E+00  -1.0000000E+00
	2212	-1	0	0	0	0	0.0000000000E+00	0.0000000000E+00	6.5000000000E+03	6.5000000000E+03	9.3827000000E-01	0.000E+00	0.0
	2212	-1	0	0	0	0	0.0000000000E+00	0.0000000000E+00	-6.5000000000E+03	6.5000000000E+03	9.3827000000E-01	0.000E+00	0.0
	2212	1	0	0	0	0	0.0000000000E+00	0.0000000000E+00	6.1934487451E+03	6.1934487451E+03	9.3827000000E-01	0.000E+00	0.0
	2212	1	0	0	0	0	0.0000000000E+00	0.0000000000E+00	-5.6131666577E+03	5.6131666577E+03	9.3827000000E-01	0.000E+00	0.0
	51	2	1	2	0	0	1.0342579770E+02	5.2919082455E+01	-5.4007344931E+02	1.1800915860E+03	1.0428036708E+03	0.000E+00	0.0
	1000022	2	5	5	0	0	-1.0342579770E+02	-5.2919082455E+01	-5.2703913485E+02	1.0144888585E+03	8.5902274094E+02	0.000E+00	0.0
	14	1	6	6	0	0	1.4892635470E+02	-1.1326407828E+02	-4.4767124887E+01	3.7767301469E+02	3.2500000000E+02	0.000E+00	0.0
	-14	1	6	6	0	0	-2.5235215240E+02	6.0344995824E+01	-4.8227200997E+02	6.3681584382E+02	3.2500000000E+02	0.000E+00	0.0
	25	2	5	5	0	0	1.0342579770E+02	5.2919082455E+01	-5.3242952583E+01	1.7889573866E+02	1.2518605510E+02	0.000E+00	0.0
	-5	1	9	9	0	501	8.5622287774E+00	6.5111527726E+01	6.3779007907E+00	6.6113333171E+01	4.1800000000E+00	0.000E+00	0.0
	5	1	9	9	501	0	9.4863568921E+01	-1.2192445272E+01	-5.9620853374E+01	1.1278240549E+02	4.1800000000E+00	0.000E+00	0.0
</event>
<event>
    11  -1  1.0000000E+00  1.0000000E+00  -1.0000000E+00  -1.0000000E+00
	2212	-1	0	0	0	0	0.0000000000E+00	0.0000000000E+00	6.5000000000E+03	6.5000000000E+03	9.3827000000E-01	0.000E+00	0.0
	2212	-1	0	0	0	0	0.0000000000E+00	0.0000000000E+00	-6.5000000000E+03	6.5000000000E+03	9.3827000000E-01	0.000E+00	0.0
	2212	1	0	0	0	0	0.0000000000E+00	0.0000000000E+00	6.1818539746E+03	6.1818539746E+03	9.3827000000E-01	0.000E+00	0.0
	2212	1	0	0	0	0	0.0000000000E+00	0.0000000000E+00	-5.6386117631E+03	5.6386117631E+03	9.3827000000E-01	0.000E+00	0.0
	51	2	1	2	0	0	-2.6835945477E+01	-1.0007477543E+02	-4.5789610695E+02	1.1474288427E+03	1.0469904372E+03	0.000E+00	0.0
	1000022	2	5	5	0	0	2.6835945477E+01	1.0007477543E+02	-5.3893386786E+02	1.0169742250E+03	8.5618440286E+02	0.000E+00	0.0
	14	1	6	6	0	0	-1.0593450981E+02	2.9863325465E+02	-3.4079076202E+02	5.6759781944E+02	3.2500000000E+02	0.000E+00	0.0
	-14	1	6	6	0	0	1.3277045529E+02	-1.9855847922E+02	-1.9814310583E+02	4.4937640554E+02	3.2500000000E+02	0.000E+00	0.0
	25	2	5	5	0	0	-2.6835945477E+01	-1.0007477543E+02	-4.3083435978E+00	1.6256003729E+02	1.2518815939E+02	0.000E+00	0.0
	-5	1	9	9	0	501	4.7861617040E+01	-5.5783752531E+01	1.0500544950E+01	7.4365955090E+01	4.1800000000E+00	0.000E+00	0.0
	5	1	9	9	501	0	-7.4697562517E+01	-4.4291022902E+01	-1.4808888547E+01	8.8194082203E+01	4.1800000000E+00	0.000E+00	0.0
</event>
<event>
    11  -1  1.0000000E+00  1.0000000E+00  -1.0000000E+00  -1.0000000E+00
	2212	-1	0	0	0	0	0.0000000000E+00	0.0000000000E+00	6.5000000000E+03	6.5000000000E+03	9.3827000000E-01	0.000E+00	0.0
	2212	-1	0	0	0	0	0.0000000000E+00	0.0000000000E+00	-6.5000000000E+03	6.5000000000E+03	9.3827000000E-01	0.000E+00	0.0
	2212	1	0	0	0	0	0.0000000000E+00	0.0000000000E+00	4.9894461445E+03	4.9894461445E+03	9.3827000000E-01	0.000E+00	0.0
	2212	1	0	0	0	0	0.0000000000E+00	0.0000000000E+00	-6.3156265644E+03	6.3156265644E+03	9.3827000000E-01	0.000E+00	0.0
	51	2	1	2	0	0	-1.2435571291E+02	-1.6022144914E+01	1.5361437835E+03	1.8680157366E+03	1.0554733612E+03	0.000E+00	0.0
	1000022	2	5	5	0	0	1.2435571291E+02	1.6022144914E+01	8.6533135662E+02	1.2011939222E+03	8.2361849750E+02	0.000E+00	0.0
	14	1	6	6	0	0	6.2622848549E+01	2.6086389084E+02	4.2744769579E+02	6.0025671454E+02	3.2500000000E+02	0.000E+00	0.0
	-14	1	6	6	0	0	6.1732864361E+01	-2.4484174593E+02	4.3788366083E+02	6.0093720763E+02	3.2500000000E+02	0.000E+00	0.0
	25	2	5	5	0	0	-1.2435571291E+02	-1.6022144914E+01	4.6084906326E+02	4.9373336896E+02	1.2517878435E+02	0.000E+00	0.0
	-5	1	9	9	0	501	-1.4925412153E+02	-1.5055628589E+01	4.1623693001E+02	4.4246369235E+02	4.1800000000E+00	0.000E+00	0.0
	5	1	9	9	501	0	2.4898408624E+01	-9.6651632458E-01	4.4612133256E+01	5.1269676608E+01	4.1800000000E+00	0.000E+00	0.0
</event>
<event>
    11  -1  1.0000000E+00  1.0000000E+00  -1.0000000E+00  -1.0000000E+00
	2212	-1	0	0	0	0	0.0000000000E+00	0.0000000000E+00	6.5000000000E+03	6.5000000000E+03	9.3827000000E-01	0.000E+00	0.0
	2212	-1	0	0	0	0	0.0000000000E+00	0.0000000000E+00	-6.5000000000E+03	6.5000000000E+03	9.3827000000E-01	0.000E+00	0.0
	2212	1	0	0	0	0	0.0000000000E+00	0.0000000000E+00	5.6275070553E+03	5.6275070553E+03	9.3827000000E-01	0.000E+00	0.0
	2212	1	0	0	0	0	0.0000000000E+00	0.0000000000E+00	-6.1799046974E+03	6.1799046974E+03	9.3827000000E-01	0.000E+00	0.0
	51	2	1	2	0	0	-1.3112209179E+02	-7.9474974266E+01	5.4051037526E+02	1.1969896879E+03	1.0569406666E+03	0.000E+00	0.0
	1000022	2	5	5	0	0	1.3112209179E+02	7.9474974266E+01	4.6635087153E+02	9.7675400358E+02	8.4442641695E+02	0.000E+00	0.0
	14	1	6	6	0	0	1.3973173623E+02	2.7312463912E+01	5.3348826757E+02	6.4070715653E+02	3.2500000000E+02	0.000E+00	0.0
	-14	1	6	6	0	0	-8.6096444455E+00	5.2162510354E+01	-6.7137396040E+01	3.3604684705E+02	3.2500000000E+02	0.000E+00	0.0
	25	2	5	5	0	0	-1.3112209179E+02	-7.9474974266E+01	8.6046770521E+01	2.1583424374E+02	1.2518426244E+02	0.000E+00	0.0
	-5	1	9	9	0	501	1.9912850451E+00	2.5974315417E+01	2.4207409048E+00	2.6494578012E+01	4.1800000000E+00	0.000E+00	0.0
	5	1	9	9	501	0	-1.3311337683E+02	-1.0544928968E+02	8.3626029616E+01	1.8933966572E+02	4.1800000000E+00	0.000E+00	0.0
</event>
<event>
    11  -1  1.0000000E+00  1.0000000E+00  -1.0000000E+00  -1.0000000E+00
	2212	-1	0	0	0	0	0.0000000000E+00	0.0000000000E+00	6.5000000000E+03	6.5000000000E+03	9.3827000000E-01	0.000E+00	0.0
	2212	-1	0	0	0	0	0.0000000000E+00	0.0000000000E+00	-6.5000000000E+03	6.5000000000E+03	9.3827000000E-01	0.000E+00	0.0
	2212	1	0	0	0	0	0.0000000000E+00	0.0000000000E+00	6.0984311128E+03	6.0984311128E+03	9.3827000000E-01	0.000E+00	0.0
	2212	1	0	0	0	0	0.0000000000E+00	0.0000000000E+00	-5.7992208513E+03	5.7992208513E+03	9.3827000000E-01	0.000E+00	0.0
	51	2	1	2	0	0	-3.6283994121E+01	-1.1421967750E+02	-3.8153249391E+02	1.1338316094E+03	1.0609639068E+03	0.000E+00	0.0
	1000022	2	5	5	0	0	3.6283994121E+01	1.1421967750E+02	-1.6612278515E+02	8.8383555911E+02	8.5977081414E+02	0.000E+00	0.0
	14	1	6	6	0	0	-3.7316563494E+00	2.2517911593E+02	-3.1682291028E+02	5.0667673717E+02	3.2500000000E+02	0.000E+00	0.0
	-14	1	6	6	0	0	4.0015650471E+01	-1.1095943843E+02	1.5070012512E+02	3.7715882195E+02	3.2500000000E+02	0.000E+00	0.0
	25	2	5	5	0	0	-3.6283994121E+01	-1.1421967750E+02	-1.3308747640E+02	2.1851247676E+02	1.2519090689E+02	0.000E+00	0.0
	-5	1	9	9	0	501	6.0316100937E+00	-7.6613690833E+01	-1.4154912564E+02	1.6112003387E+02	4.1800000000E+00	0.000E+00	0.0
	5	1	9	9	501	0	-4.2315604215E+01	-3.7605986666E+01	8.4616492408E+00	5.7392442892E+01	4.1800000000E+00	0.000E+00	0.0
</event>
<event>
    11  -1  1.0000000E+00  1.0000000E+00  -1.0000000E+00  -1.0000000E+00
	2212	-1	0	0	0	0	0.0000000000E+00	0.0000000000E+00	6.5000000000E+03	6.5000000000E+03	9.3827000000E-01	0.000E+00	0.0
	2212	-1	0	0	0	0	0.0000000000E+00	0.0000000000E+00	-6.5000000000E+03	6.5000000000E+03	9.3827000000E-01	0.000E+00	0.0
	2212	1	0	0	0	0	0.0000000000E+00	0.0000000000E+00	5.8195439061E+03	5.8195439061E+03	9.3827000000E-01	0.000E+00	0.0
	2212	1	0	0	0	0	0.0000000000E+00	0.0000000000E+00	-6.0977277871E+03	6.0977277871E+03	9.3827000000E-01	0.000E+00	0.0
	51	2	1	2	0	0	9.1991212355E+01	7.2286013593E+00	1.5721163881E+02	1.0621414453E+03	1.0463815340E+03	0.000E+00	0.0
	1000022	2	5	5	0	0	-9.1991212355E+01	-7.2286013593E+00	3.4987101625E+02	9.1149104054E+02	8.3659521463E+02	0.000E+00	0.0
	14	1	6	6	0	0	3.5069644091E+01	-2.1706243660E+02	3.1431350544E+02	5.0275636348E+02	3.2500000000E+02	0.000E+00	0.0
	-14	1	6	6	0	0	-1.2706085645E+02	2.0983383524E+02	3.5557510814E+01	4.0873467706E+02	3.2500000000E+02	0.000E+00	0.0
	25	2	5	5	0	0	9.1991212355E+01	7.2286013593E+00	-7.1687135292E+01	1.7123726621E+02	1.2517395953E+02	0.000E+00	0.0
	-5	1	9	9	0	501	8.1506768533E+01	-4.7476972606E+01	-6.5768262185E+01	1.1506673262E+02	4.1800000000E+00	0.000E+00	0.0
	5	1	9	9	501	0	1.0484443822E+01	5.4705573966E+01	-5.9188731070E+00	5.6170533592E+01	4.1800000000E+00	0.000E+00	0.0
</event>
<event>
    11  -1  1.0000000E+00  1.0000000E+00  -1.0000000E+00  -1.0000000E+00
	2212	-1	0	0	0	0	0.0000000000E+00	0.0000000000E+00	6.5000000000E+03	6.5000000000E+03	9.3827000000E-01	0.000E+00	0.0
	2212	-1	0	0	0	0	0.0000000000E+00	0.0000000000E+00	-6.5000000000E+03	6.5000000000E+03	9.3827000000E-01	0.000E+00	0.0
	2212	1	0	0	0	0	0.0000000000E+00	0.0000000000E+00	5.9218005963E+03	5.9218005963E+03	9.3827000000E-01	0.000E+00	0.0
	2212	1	0	0	0	0	0.0000000000E+00	0.0000000000E+00	-6.0240810030E+03	6.0240810030E+03	9.3827000000E-01	0.000E+00	0.0
	51	2	1	2	0	0	-2.7348913722E+01	7.6090021305E+01	2.2023920883E+02	1.0750568751E+03	1.0491445664E+03	0.000E+00	0.0
	1000022	2	5	5	0	0	2.7348913722E+01	-7.6090021305E+01	-3.3185836495E+01	8.5274540847E+02	8.4825454759E+02	0.000E+00	0.0
	14	1	6	6	0	0	2.6162125285E+02	-4.2531040729E+01	-1.3027865784E+02	4.3914928903E+02	3.2500000000E+02	0.000E+00	0.0
	-14	1	6	6	0	0	-2.3427233913E+02	-3.3558980576E+01	9.7092821344E+01	4.1359611944E+02	3.2500000000E+02	0.000E+00	0.0
	25	2	5	5	0	0	-2.7348913722E+01	7.6090021305E+01	1.3546624324E+02	2.0137299225E+02	1.2514920904E+02	0.000E+00	0.0
	-5	1	9	9	0	501	-7.1495097828E+01	2.0906313723E+01	9.1409982696E+01	1.1799101789E+02	4.1800000000E+00	0.000E+00	0.0
	5	1	9	9	501	0	4.4146184106E+01	5.5183707581E+01	4.4056260546E+01	8.3381974352E+01	4.1800000000E+00	0.000E+00	0.0
</event>
<event>
    11  -1  1.0000000E+00  1.0000000E+00  -1.0000000E+00  -1.0000000E+00
	2212	-1	0	0	0	0	0.0000000000E+00	0.0000000000E+00	6.5000000000E+03	6.5000000000E+03	9.3827000000E-01	0.000E+00	0.0
	2212	-1	0	0	0	0	0.0000000000E+00	0.0000000000E+00	-6.5000000000E+03	6.5000000000E+03	9.3827000000E-01	0.000E+00	0.0
	2212	1	0	0	0	0	0.0000000000E+00	0.0000000000E+00	5.0180199593E+03	5.0180199593E+03	9.3827000000E-01	0.000E+00	0.0
	2212	1	0	0	0	0	0.0000000000E+00	0.0000000000E+00	-6.3115791541E+03	6.3115791541E+03	9.3827000000E-01	0.000E+00	0.0
	51	2	1	2	0	0	-3.4133812066E+01	9.9787949109E+01	1.3827007835E+03	1.7435389127E+03	1.0568555870E+03	0.000E+00	0.0
	1000022	2	5	5	0	0	3.4133812066E+01	-9.9787949109E+01	1.0023829226E+03	1.3363711165E+03	8.7749272674E+02	0.000E+00	0.0
	14	1	6	6	0	0	-2.3818737710E+02	-9.7491719707E+01	7.0710827451E+02	8.1967369965E+02	3.2500000000E+02	0.000E+00	0.0
	-14	1	6	6	0	0	2.7232118916E+02	-2.2962294015E+00	2.9527464812E+02	5.1669741683E+02	3.2500000000E+02	0.000E+00	0.0
	25	2	5	5	0	0	-3.4133812066E+01	9.9787949109E+01	2.9117627214E+02	3.3402977015E+02	1.2517792927E+02	0.000E+00	0.0
	-5	1	9	9	0	501	-6.2687358167E+01	3.8005835442E+01	6.5913168564E+01	9.8672015241E+01	4.1800000000E+00	0.000E+00	0.0
	5	1	9	9	501	0	2.8553546100E+01	6.1782113667E+01	2.2526310358E+02	2.3535775491E+02	4.1800000000E+00	0.000E+00	0.0
</event>
<event>
    11  -1  1.0000000E+00  1.0000000E+00  -1.0000000E+00  -1.0000000E+00
	2212	-1	0	0	0	0	0.0000000000E+00	0.0000000000E+00	6.5000000000E+03	6.5000000000E+03	9.3827000000E-01	0.000E+00	0.0
	2212	-1	0	0	0	0	0.0000000000E+00	0.0000000000E+00	-6.5000000000E+03	6.5000000000E+03	9.3827000000E-01	0.000E+00	0.0
	2212	1	0	0	0	0	0.0000000000E+00	0.0000000000E+00	6.2601005153E+03	6.2601005153E+03	9.3827000000E-01	0.000E+00	0.0
	2212	1	0	0	0	0	0.0000000000E+00	0.0000000000E+00	-4.7708248614E+03	4.7708248614E+03	9.3827000000E-01	0.000E+00	0.0
	51	2	1	2	0	0	-2.3983721230E+02	2.0379679721E+02	-1.3227529102E+03	1.8729770910E+03	1.2881431982E+03	0.000E+00	0.0
	1000022	2	5	5	0	0	2.3983721230E+02	-2.0379679721E+02	-1.2832841243E+03	1.5726452012E+03	8.5284216719E+02	0.000E+00	0.0
	14	1	6	6	0	0	-8.5566283525E+01	2.6813228214E+01	-2.5459588114E+02	4.2247437884E+02	3.2500000000E+02	0.000E+00	0.0
	-14	1	6	6	0	0	3.2540349583E+02	-2.3061002542E+02	-1.0286882432E+03	1.1501708224E+03	3.2500000000E+02	0.000E+00	0.0
	25	2	5	5	0	0	-2.3983721230E+02	2.0379679721E+02	-2.0599152951E+02	3.9642942211E+02	1.2517489176E+02	0.000E+00	0.0
	-5	1	9	9	0	501	-7.3312452777E+01	2.7882262680E+00	-2.0857349053E+01	7.6387115061E+01	4.1800000000E+00	0.000E+00	0.0
	5	1	9	9	501	0	-1.6652475953E+02	2.0100857094E+02	-1.8513418046E+02	3.2004230705E+02	4.1800000000E+00	0.000E+00	0.0
</event>
<event>
    11  -1  1.0000000E+00  1.0000000E+00  -1.0000000E+00  -1.0000000E+00
	2212	-1	0	0	0	0	0.0000000000E+00	0.0000000000E+00	6.5000000000E+03	6.5000000000E+03	9.3827000000E-01	0.000E+00	0.0
	2212	-1	0	0	0	0	0.0000000000E+00	0.0000000000E+00	-6.5000000000E+03	6.5000000000E+03	9.3827000000E-01	0.000E+00	0.0
	2212	1	0	0	0	0	0.0000000000E+00	0.0000000000E+00	5.4198020339E+03	5.4198020339E+03	9.3827000000E-01	0.000E+00	0.0
	2212	1	0	0	0	0	0.0000000000E+00	0.0000000000E+00	-6.1980689797E+03	6.1980689797E+03	9.3827000000E-01	0.000E+00	0.0
	51	2	1	2	0	0	-1.4192717472E+02	2.3605727021E+01	5.8083598410E+02	1.2894386723E+03	1.1421826019E+03	0.000E+00	0.0
	1000022	2	5	5	0	0	1.4192717472E+02	-2.3605727021E+01	8.1422652675E+02	1.1880612965E+03	8.5312616534E+02	0.000E+00	0.0
	14	1	6	6	0	0	-2.0111014260E+02	-3.0396617928E+01	4.5143382588E+02	5.9227252425E+02	3.2500000000E+02	0.000E+00	0.0
	-14	1	6	6	0	0	3.4303731732E+02	6.7908909065E+00	3.6279270087E+02	5.9578877220E+02	3.2500000000E+02	0.000E+00	0.0
	25	2	5	5	0	0	-1.4192717472E+02	2.3605727021E+01	-3.5959580895E+01	1.9406768993E+02	1.2517437255E+02	0.000E+00	0.0
	-5	1	9	9	0	501	-1.3594522589E+02	-2.2815789701E+01	-5.4046006001E+00	1.3801574842E+02	4.1800000000E+00	0.000E+00	0.0
	5	1	9	9	501	0	-5.9819488286E+00	4.6421516723E+01	-3.0554980295E+01	5.6051941513E+01	4.1800000000E+00	0.000E+00	0.0
</event>
<event>
    11  -1  1.0000000E+00  1.0000000E+00  -1.0000000E+00  -1.0000000E+00
	2212	-1	0	0	0	0	0.0000000000E+00	0.0000000000E+00	6.5000000000E+03	6.5000000000E+03	9.3827000000E-01	0.000E+00	0.0
	2212	-1	0	0	0	0	0.0000000000E+00	0.0000000000E+00	-6.5000000000E+03	6.5000000000E+03	9.3827000000E-01	0.000E+00	0.0
	2212	1	0	0	0	0	0.0000000000E+00	0.0000000000E+00	6.3143490908E+03	6.3143490908E+03	9.3827000000E-01	0.000E+00	0.0
	2212	1	0	0	0	0	0.0000000000E+00	0.0000000000E+00	-5.0232386313E+03	5.0232386313E+03	9.3827000000E-01	0.000E+00	0.0
	51	2	1	2	0	0	1.0140300985E+02	9.8779831393E+01	-1.1819768768E+03	1.5854834361E+03	1.0472097990E+03	0.000E+00	0.0
	1000022	2	5	5	0	0	-1.0140300985E+02	-9.8779831393E+01	-1.1633300949E+03	1.4342946756E+03	8.2693668514E+02	0.000E+00	0.0
	14	1	6	6	0	0	2.0029046485E+02	8.4382572142E+00	-5.6303325002E+02	6.8030795609E+02	3.2500000000E+02	0.000E+00	0.0
	-14	1	6	6	0	0	-3.0169347471E+02	-1.0721808861E+02	-6.0029684488E+02	7.5398671950E+02	3.2500000000E+02	0.000E+00	0.0
	25	2	5	5	0	0	1.0140300985E+02	9.8779831393E+01	-1.2778036459E+02	2.2811760234E+02	1.2517904548E+02	0.000E+00	0.0
	-5	1	9	9	0	501	-9.2069882857E+00	-1.3230587087E+01	9.5296176965E+00	1.9186012650E+01	4.1800000000E+00	0.000E+00	0.0
	5	1	9	9	501	0	1.1060999814E+02	1.1201041848E+02	-1.3730998229E+02	2.0893158969E+02	4.1800000000E+00	0.000E+00	0.0
</event>
<event>
    11  -1  1.0000000E+00  1.0000000E+00  -1.0000000E+00  -1.0000000E+00
	2212	-1	0	0	0	0	0.0000000000E+00	0.0000000000E+00	6.5000000000E+03	6.5000000000E+03	9.3827000000E-01	0.000E+00	0.0
	2212	-1	0	0	0	0	0.0000000000E+00	0.0000000000E+00	-6.5000000000E+03	6.5000000000E+03	9.3827000000E-01	0.000E+00	0.0
	2212	1	0	0	0	0	0.0000000000E+00	0.0000000000E+00	6.0589158023E+03	6.0589158023E+03	9.3827000000E-01	0.000E+00	0.0
	2212	1	0	0	0	0	0.0000000000E+00	0.0000000000E+00	-5.8766166265E+03	5.8766166265E+03	9.3827000000E-01	0.000E+00	0.0
	51	2	1	2	0	0	-8.8064579922E+01	4.0820354629E+01	-2.8181110833E+02	1.0902739990E+03	1.0487412553E+03	0.000E+00	0.0
	1000022	2	5	5	0	0	8.8064579922E+01	-4.0820354629E+01	-5.2090257831E+01	8.5941762603E+02	8.5232833426E+02	0.000E+00	0.0
	14	1	6	6	0	0	2.9627799354E+02	8.9794442158E+00	8.2666979831E+01	4.4757134563E+02	3.2500000000E+02	0.000E+00	0.0
	-14	1	6	6	0	0	-2.0821341362E+02	-4.9799798845E+01	-1.3475723766E+02	4.1184628040E+02	3.2500000000E+02	0.000E+00	0.0
	25	2	5	5	0	0	-8.8064579922E+01	4.0820354629E+01	-1.3020891793E+02	2.0504994511E+02	1.2517765812E+02	0.000E+00	0.0
	-5	1	9	9	0	501	-7.5661819721E+01	7.1455348573E+01	-1.3593318281E+02	1.7124800844E+02	4.1800000000E+00	0.000E+00	0.0
	5	1	9	9	501	0	-1.2402760201E+01	-3.0634993944E+01	5.7242648799E+00	3.3801936675E+01	4.1800000000E+00	0.000E+00	0.0
</event>
<event>
    11  -1  1.0000000E+00  1.0000000E+00  -1.0000000E+00  -1.0000000E+00
	2212	-1	0	0	0	0	0.0000000000E+00	0.0000000000E+00	6.5000000000E+03	6.5000000000E+03	9.3827000000E-01	0.000E+00	0.0
	2212	-1	0	0	0	0	0.0000000000E+00	0.0000000000E+00	-6.5000000000E+03	6.5000000000E+03	9.3827000000E-01	0.000E+00	0.0
	2212	1	0	0	0	0	0.0000000000E+00	0.0000000000E+00	5.0175939508E+03	5.0175939508E+03	9.3827000000E-01	0.000E+00	0.0
	2212	1	0	0	0	0	0.0000000000E+00	0.0000000000E+00	-6.3147527714E+03	6.3147527714E+03	9.3827000000E-01	0.000E+00	0.0
	51	2	1	2	0	0	8.0465960272E+00	-1.2585917445E+02	1.2110348078E+03	1.6065357246E+03	1.0480679602E+03	0.000E+00	0.0
	1000022	2	5	5	0	0	-8.0465960272E+00	1.2585917445E+02	1.1621671071E+03	1.4445000388E+03	8.4855329690E+02	0.000E+00	0.0
	14	1	6	6	0	0	7.2019281008E+01	3.0949271681E+02	7.8945787754E+02	9.1095623331E+02	3.2500000000E+02	0.000E+00	0.0
	-14	1	6	6	0	0	-8.0065877035E+01	-1.8363354236E+02	3.7270922958E+02	5.3354380547E+02	3.2500000000E+02	0.000E+00	0.0
	25	2	5	5	0	0	8.0465960272E+00	-1.2585917445E+02	1.3499171344E+02	2.2315323902E+02	1.2517717798E+02	0.000E+00	0.0
	-5	1	9	9	0	501	4.2916527767E+01	-7.1735352962E+01	1.2388022357E+01	8.4609247238E+01	4.1800000000E+00	0.000E+00	0.0
	5	1	9	9	501	0	-3.4869931740E+01	-5.4123821485E+01	1.2260369108E+02	1.3854399178E+02	4.1800000000E+00	0.000E+00	0.0
</event>
<event>
    11  -1  1.0000000E+00  1.0000000E+00  -1.0000000E+00  -1.0000000E+00
	2212	-1	0	0	0	0	0.0000000000E+00	0.0000000000E+00	6.5000000000E+03	6.5000000000E+03	9.3827000000E-01	0.000E+00	0.0
	2212	-1	0	0	0	0	0.0000000000E+00	0.0000000000E+00	-6.5000000000E+03	6.5000000000E+03	9.3827000000E-01	0.000E+00	0.0
	2212	1	0	0	0	0	0.0000000000E+00	0.0000000000E+00	6.0299520841E+03	6.0299520841E+03	9.3827000000E-01	0.000E+00	0.0
	2212	1	0	0	0	0	0.0000000000E+00	0.0000000000E+00	-5.9148680143E+03	5.9148680143E+03	9.3827000000E-01	0.000E+00	0.0
	51	2	1	2	0	0	-7.8383299676E+01	-1.0981450336E+02	-1.6217055223E+02	1.0698891235E+03	1.0488852567E+03	0.000E+00	0.0
	1000022	2	5	5	0	0	7.8383299676E+01	1.0981450336E+02	-4.8244813104E+01	8.5936194418E+02	8.4733241546E+02	0.000E+00	0.0
	14	1	6	6	0	0	-1.6385667337E+02	-6.4805307054E+01	-1.6192152121E+02	4.0359920251E+02	3.2500000000E+02	0.000E+00	0.0
	-14	1	6	6	0	0	2.4223997305E+02	1.7461981041E+02	1.1367670811E+02	4.5576274167E+02	3.2500000000E+02	0.000E+00	0.0
	25	2	5	5	0	0	-7.8383299676E+01	-1.0981450336E+02	-6.6839256677E+01	1.9581795748E+02	1.2519592414E+02	0.000E+00	0.0
	-5	1	9	9	0	501	-6.6994396249E+01	-1.2642173565E+02	-1.9826591739E+01	1.4450353114E+02	4.1800000000E+00	0.000E+00	0.0
	5	1	9	9	501	0	-1.1388903427E+01	1.6607232289E+01	-4.7012664937E+01	5.1314426335E+01	4.1800000000E+00	0.000E+00	0.0
</event>
<event>
    11  -1  1.0000000E+00  1.0000000E+00  -1.0000000E+00  -1.0000000E+00
	2212	-1	0	0	0	0	0.0000000000E+00	0.0000000000E+00	6.5000000000E+03	6.5000000000E+03	9.3827000000E-01	0.000E+00	0.0
	2212	-1	0	0	0	0	0.0000000000E+00	0.0000000000E+00	-6.5000000000E+03	6.5000000000E+03	9.3827000000E-01	0.000E+00	0.0
	2212	1	0	0	0	0	0.0000000000E+00	0.0000000000E+00	5.5165353448E+03	5.5165353448E+03	9.3827000000E-01	0.000E+00	0.0
	2212	1	0	0	0	0	0.0000000000E+00	0.0000000000E+00	-6.2130893860E+03	6.2130893860E+03	9.3827000000E-01	0.000E+00	0.0
	51	2	1	2	0	0	7.4657575498E+01	1.2783085278E+02	7.5253013847E+02	1.3102983943E+03	1.0623868374E+03	0.000E+00	0.0
	1000022	2	5	5	0	0	-7.4657575498E+01	-1.2783085278E+02	5.1791110995E+02	1.0067323707E+03	8.5050788815E+02	0.000E+00	0.0
	14	1	6	6	0	0	-3.1243495386E+02	-7.8065971666E+01	2.7628614007E+02	5.3448005343E+02	3.2500000000E+02	0.000E+00	0.0
	-14	1	6	6	0	0	2.3777737836E+02	-4.9764881110E+01	2.4162496988E+02	4.7225231722E+02	3.2500000000E+02	0.000E+00	0.0
	25	2	5	5	0	0	7.4657575498E+01	1.2783085278E+02	1.7864293129E+02	2.6364289857E+02	1.2521901042E+02	0.000E+00	0.0
	-5	1	9	9	0	501	9.9254348619E+01	4.8177051495E+01	1.0333678585E+02	1.5122307271E+02	4.1800000000E+00	0.000E+00	0.0
	5	1	9	9	501	0	-2.4596773121E+01	7.9653801281E+01	7.5306145438E+01	1.1241982586E+02	4.1800000000E+00	0.000E+00	0.0
</event>
<event>
    11  -1  1.0000000E+00  1.0000000E+00  -1.0000000E+00  -1.0000000E+00
	2212	-1	0	0	0	0	0.0000000000E+00	0.0000000000E+00	6.5000000000E+03	6.5000000000E+03	9.3827000000E-01	0.000E+00	0.0
	2212	-1	0	0	0	0	0.0000000000E+00	0.0000000000E+00	-6.5000000000E+03	6.5000000000E+03	9.3827000000E-01	0.000E+00	0.0
	2212	1	0	0	0	0	0.0000000000E+00	0.0000000000E+00	6.2346461856E+03	6.2346461856E+03	9.3827000000E-01	0.000E+00	0.0
	2212	1	0	0	0	0	0.0000000000E+00	0.0000000000E+00	-5.4684340685E+03	5.4684340685E+03	9.3827000000E-01	0.000E+00	0.0
	51	2	1	2	0	0	1.2428247799E+02	1.5358027776E+02	-7.9735123841E+02	1.3303089311E+03	1.0463841641E+03	0.000E+00	0.0
	1000022	2	5	5	0	0	-1.2428247799E+02	-1.5358027776E+02	-5.7711804083E+02	9.9617000133E+02	7.8756358628E+02	0.000E+00	0.0
	14	1	6	6	0	0	-7.1810402337E+01	-1.7339636764E+01	-1.8753395068E+01	3.3381744519E+02	3.2500000000E+02	0.000E+00	0.0
	-14	1	6	6	0	0	-5.2472075653E+01	-1.3624064099E+02	-5.5836464576E+02	6.6235255614E+02	3.2500000000E+02	0.000E+00	0.0
	25	2	5	5	0	0	1.2428247799E+02	1.5358027776E+02	-1.8909407633E+02	3.0074974455E+02	1.2514313044E+02	0.000E+00	0.0
	-5	1	9	9	0	501	6.3486651652E+01	4.4246761539E+00	-1.9206354473E+01	6.6606975229E+01	4.1800000000E+00	0.000E+00	0.0
	5	1	9	9	501	0	6.0795826339E+01	1.4915560161E+02	-1.6988772186E+02	2.3414276933E+02	4.1800000000E+00	0.000E+00	0.0
</event>
<event>
    11  -1  1.0000000E+00  1.0000000E+00  -1.0000000E+00  -1.0000000E+00
	2212	-1	0	0	0	0	0.0000000000E+00	0.0000000000E+00	6.5000000000E+03	6.5000000000E+03	9.3827000000E-01	0.000E+00	0.0
	2212	-1	0	0	0	0	0.0000000000E+00	0.0000000000E+00	-6.5000000000E+03	6.5000000000E+03	9.3827000000E-01	0.000E+00	0.0
	2212	1	0	0	0	0	0.0000000000E+00	0.0000000000E+00	5.1309745915E+03	5.1309745915E+03	9.3827000000E-01	0.000E+00	0.0
	2212	1	0	0	0	0	0.0000000000E+00	0.0000000000E+00	-6.2991595327E+03	6.2991595327E+03	9.3827000000E-01	0.000E+00	0.0
	51	2	1	2	0	0	-6.8475591888E+01	1.0347905238E+02	1.0564301712E+03	1.4937417242E+03	1.0487243733E+03	0.000E+00	0.0
	1000022	2	5	5	0	0	6.8475591888E+01	-1.0347905238E+02	1.0748834311E+03	1.3704250501E+03	8.4100749494E+02	0.000E+00	0.0
	14	1	6	6	0	0	8.1978046355E-01	-3.1583108312E+02	5.1872806462E+02	6.8880603230E+02	3.2500000000E+02	0.000E+00	0.0
	-14	1	6	6	0	0	6.7655811425E+01	2.1235203074E+02	5.5615536650E+02	6.8161901783E+02	3.2500000000E+02	0.000E+00	0.0
	25	2	5	5	0	0	-6.8475591888E+01	1.0347905238E+02	9.3301510041E+01	1.9944082562E+02	1.2519844321E+02	0.000E+00	0.0
	-5	1	9	9	0	501	-6.6364999589E+01	1.3143610338E+02	8.4210769681E+01	1.6967229760E+02	4.1800000000E+00	0.000E+00	0.0
	5	1	9	9	501	0	-2.1105922995E+00	-2.7957050999E+01	9.0907403602E+00	2.9768528024E+01	4.1800000000E+00	0.000E+00	0.0
</event>
<event>
    11  -1  1.0000000E+00  1.0000000E+00  -1.0000000E+00  -1.0000000E+00
	2212	-1	0	0	0	0	0.0000000000E+00	0.0000000000E+00	6.5000000000E+03	6.5000000000E+03	9.3827000000E-01	0.000E+00	0.0
	2212	-1	0	0	0	0	0.0000000000E+00	0.0000000000E+00	-6.5000000000E+03	6.5000000000E+03	9.3827000000E-01	0.000E+00	0.0
	2212	1	0	0	0	0	0.0000000000E+00	0.0000000000E+00	5.8762920728E+03	5.8762920728E+03	9.3827000000E-01	0.000E+00	0.0
	2212	1	0	0	0	0	0.0000000000E+00	0.0000000000E+00	-6.0540174382E+03	6.0540174382E+03	9.3827000000E-01	0.000E+00	0.0
	51	2	1	2	0	0	3.3205212311E+01	4.5094540572E+01	3.3960417001E+02	1.1095578095E+03	1.0548229409E+03	0.000E+00	0.0
	1000022	2	5	5	0	0	-3.3205212311E+01	-4.5094540572E+01	-1.7116044480E+01	8.3142838529E+02	8.2936367003E+02	0.000E+00	0.0
	14	1	6	6	0	0	-8.2428454351E+01	2.2049050457E+02	4.6870934828E+01	4.0402029308E+02	3.2500000000E+02	0.000E+00	0.0
	-14	1	6	6	0	0	4.9223242041E+01	-2.6558504514E+02	-6.3986979308E+01	4.2740809220E+02	3.2500000000E+02	0.000E+00	0.0
	25	2	5	5	0	0	3.3205212311E+01	4.5094540572E+01	1.9484140987E+02	2.3826210366E+02	1.2517807847E+02	0.000E+00	0.0
	-5	1	9	9	0	501	-2.6684084309E+00	8.2365561633E+01	9.5725686132E+01	1.2638071662E+02	4.1800000000E+00	0.000E+00	0.0
	5	1	9	9	501	0	3.5873620741E+01	-3.7271021061E+01	9.9115723734E+01	1.1188138705E+02	4.1800000000E+00	0.000E+00	0.0
</event>
<event>
    11  -1  1.0000000E+00  1.0000000E+00  -1.0000000E+00  -1.0000000E+00
	2212	-1	0	0	0	0	0.0000000000E+00	0.0000000000E+00	6.5000000000E+03	6.5000000000E+03	9.3827000000E-01	0.000E+00	0.0
	2212	-1	0	0	0	0	0.0000000000E+00	0.0000000000E+00	-6.5000000000E+03	6.5000000000E+03	9.3827000000E-01	0.000E+00	0.0
	2212	1	0	0	0	0	0.0000000000E+00	0.0000000000E+00	6.1108103458E+03	6.1108103458E+03	9.3827000000E-01	0.000E+00	0.0
	2212	1	0	0	0	0	0.0000000000E+00	0.0000000000E+00	-5.7584754940E+03	5.7584754940E+03	9.3827000000E-01	0.000E+00	0.0
	51	2	1	2	0	0	4.9774315977E+00	1.5769659613E+02	-4.1149468015E+02	1.1612904578E+03	1.0744182911E+03	0.000E+00	0.0
	1000022	2	5	5	0	0	-4.9774315977E+00	-1.5769659613E+02	-2.2913660483E+02	8.9462555950E+02	8.5026955536E+02	0.000E+00	0.0
	14	1	6	6	0	0	3.2772740519E+01	-3.3771666072E+02	-2.8512258833E+01	4.7070643118E+02	3.2500000000E+02	0.000E+00	0.0
	-14	1	6	6	0	0	-3.7750172117E+01	1.8002006459E+02	-2.0062434599E+02	4.2391912832E+02	3.2500000000E+02	0.000E+00	0.0
	25	2	5	5	0	0	4.9774315977E+00	1.5769659613E+02	-1.2319824704E+02	2.3608860071E+02	1.2516799932E+02	0.000E+00	0.0
	-5	1	9	9	0	501	-5.1053493281E+01	1.1234000508E+02	-1.0384246255E+02	1.6133029891E+02	4.1800000000E+00	0.000E+00	0.0
	5	1	9	9	501	0	5.6030924879E+01	4.5356591052E+01	-1.9355784491E+01	7.4758301799E+01	4.1800000000E+00	0.000E+00	0.0
</event>
<event>
    11  -1  1.0000000E+00  1.0000000E+00  -1.0000000E+00  -1.0000000E+00
	2212	-1	0	0	0	0	0.0000000000E+00	0.0000000000E+00	6.5000000000E+03	6.5000000000E+03	9.3827000000E-01	0.000E+00	0.0
	2212	-1	0	0	0	0	0.0000000000E+00	0.0000000000E+00	-6.5000000000E+03	6.5000000000E+03	9.3827000000E-01	0.000E+00	0.0
	2212	1	0	0	0	0	0.0000000000E+00	0.0000000000E+00	6.0233027829E+03	6.0233027829E+03	9.3827000000E-01	0.000E+00	0.0
	2212	1	0	0	0	0	0.0000000000E+00	0.0000000000E+00	-5.9196376236E+03	5.9196376236E+03	9.3827000000E-01	0.000E+00	0.0
	51	2	1	2	0	0	1.7169107611E+02	-4.8275608273E+01	-1.4232593906E+02	1.0764262873E+03	1.0519641244E+03	0.000E+00	0.0
	1000022	2	5	5	0	0	-1.7169107611E+02	4.8275608273E+01	-4.4767516049E+01	8.3134034245E+02	8.1074920569E+02	0.000E+00	0.0
	14	1	6	6	0	0	-1.9256532756E+02	1.5601316025E+02	1.5178915248E+02	4.3598905762E+02	3.2500000000E+02	0.000E+00	0.0
	-14	1	6	6	0	0	2.0874251451E+01	-1.0773755198E+02	-1.9655666853E+02	3.9535128484E+02	3.2500000000E+02	0.000E+00	0.0
	25	2	5	5	0	0	1.7169107611E+02	-4.8275608273E+01	-5.8897643267E+01	2.2571925108E+02	1.2518741134E+02	0.000E+00	0.0
	-5	1	9	9	0	501	3.7410295510E+01	1.6192448424E+01	3.1272850690E+01	5.1547930961E+01	4.1800000000E+00	0.000E+00	0.0
	5	1	9	9	501	0	1.3428078060E+02	-6.4468056697E+01	-9.0170493957E+01	1.7417132012E+02	4.1800000000E+00	0.000E+00	0.0
</event>
<event>
    11  -1  1.0000000E+00  1.0000000E+00  -1.0000000E+00  -1.0000000E+00
	2212	-1	0	0	0	0	0.0000000000E+00	0.0000000000E+00	6.5000000000E+03	6.5000000000E+03	9.3827000000E-01	0.000E+00	0.0
	2212	-1	0	0	0	0	0.0000000000E+00	0.0000000000E+00	-6.5000000000E+03	6.5000000000E+03	9.3827000000E-01	0.000E+00	0.0
	2212	1	0	0	0	0	0.0000000000E+00	0.0000000000E+00	5.9627686683E+03	5.9627686683E+03	9.3827000000E-01	0.000E+00	0.0
	2212	1	0	0	0	0	0.0000000000E+00	0.0000000000E+00	-5.9867529317E+03	5.9867529317E+03	9.3827000000E-01	0.000E+00	0.0
	51	2	1	2	0	0	4.6028021470E+01	1.3242349938E+02	1.2882269017E+01	1.0595990462E+03	1.0502045628E+03	0.000E+00	0.0
	1000022	2	5	5	0	0	-4.6028021470E+01	-1.3242349938E+02	3.1000285663E+01	8.6239768232E+02	8.5036120726E+02	0.000E+00	0.0
	14	1	6	6	0	0	-5.0017561457E+01	-1.7552892448E+02	-2.3461866439E+02	4.4043510017E+02	3.2500000000E+02	0.000E+00	0.0
	-14	1	6	6	0	0	3.9895399873E+00	4.3105425101E+01	2.6561895006E+02	4.2196258215E+02	3.2500000000E+02	0.000E+00	0.0
	25	2	5	5	0	0	4.6028021470E+01	1.3242349938E+02	-7.0160222446E+00	1.8808071761E+02	1.2518214657E+02	0.000E+00	0.0
	-5	1	9	9	0	501	-2.6231075989E+01	2.5937242996E+01	-4.0601701223E+01	5.5016183655E+01	4.1800000000E+00	0.000E+00	0.0
	5	1	9	9	501	0	7.2259097459E+01	1.0648625638E+02	3.3585678979E+01	1.3306453396E+02	4.1800000000E+00	0.000E+00	0.0
</event>
<event>
    11  -1  1.0000000E+00  1.0000000E+00  -1.0000000E+00  -1.0000000E+00
	2212	-1	0	0	0	0	0.0000000000E+00	0.0000000000E+00	6.5000000000E+03	6.5000000000E+03	9.3827000000E-01	0.000E+00	0.0
	2212	-1	0	0	0	0	0.0000000000E+00	0.0000000000E+00	-6.5000000000E+03	6.5000000000E+03	9.3827000000E-01	0.000E+00	0.0
	2212	1	0	0	0	0	0.0000000000E+00	0.0000000000E+00	5.9941735102E+03	5.9941735102E+03	9.3827000000E-01	0.000E+00	0.0
	2212	1	0	0	0	0	0.0000000000E+00	0.0000000000E+00	-5.9568106306E+03	5.9568106306E+03	9.3827000000E-01	0.000E+00	0.0
	51	2	1	2	0	0	-4.5880179734E+01	-1.1099284933E+02	-3.3259305154E+01	1.0557314398E+03	1.0483502698E+03	0.000E+00	0.0
	1000022	2	5	5	0	0	4.5880179734E+01	1.1099284933E+02	-3.5526988832E+01	8.7554136481E+02	8.6653684922E+02	0.000E+00	0.0
	14	1	6	6	0	0	-7.6504972962E+01	-9.5166032980E+01	-2.4079023272E+02	4.2250978793E+02	3.2500000000E+02	0.000E+00	0.0
	-14	1	6	6	0	0	1.2238515270E+02	2.0615888231E+02	2.0526324389E+02	4.5303157688E+02	3.2500000000E+02	0.000E+00	0.0
	25	2	5	5	0	0	-4.5880179734E+01	-1.1099284933E+02	-1.8358907757E+00	1.7347449443E+02	1.2516239941E+02	0.000E+00	0.0
	-5	1	9	9	0	501	-3.1351371431E+01	2.0269599449E+01	1.4645567356E+01	4.0320344686E+01	4.1800000000E+00	0.000E+00	0.0
	5	1	9	9	501	0	-1.4528808303E+01	-1.3126244878E+02	-1.6481458131E+01	1.3315414974E+02	4.1800000000E+00	0.000E+00	0.0
</event>
<event>
    11  -1  1.0000000E+00  1.0000000E+00  -1.0000000E+00  -1.0000000E+00
	2212	-1	0	0	0	0	0.0000000000E+00	0.0000000000E+00	6.5000000000E+03	6.5000000000E+03	9.3827000000E-01	0.000E+00	0.0
	2212	-1	0	0	0	0	0.0000000000E+00	0.0000000000E+00	-6.5000000000E+03	6.5000000000E+03	9.3827000000E-01	0.000E+00	0.0
	2212	1	0	0	0	0	0.0000000000E+00	0.0000000000E+00	5.2620100486E+03	5.2620100486E+03	9.3827000000E-01	0.000E+00	0.0
	2212	1	0	0	0	0	0.0000000000E+00	0.0000000000E+00	-6.2726561551E+03	6.2726561551E+03	9.3827000000E-01	0.000E+00	0.0
	51	2	1	2	0	0	1.1349340296E+02	-4.4122389554E+01	1.1445791381E+03	1.5654668707E+03	1.0610360890E+03	0.000E+00	0.0
	1000022	2	5	5	0	0	-1.1349340296E+02	4.4122389554E+01	6.9996932988E+02	1.1089403148E+03	8.5144819055E+02	0.000E+00	0.0
	14	1	6	6	0	0	8.0042981358E+01	-2.1836839988E+02	3.3121500292E+02	5.1905685150E+02	3.2500000000E+02	0.000E+00	0.0
	-14	1	6	6	0	0	-1.9353638432E+02	2.6249078944E+02	3.6875432696E+02	5.8988346327E+02	3.2500000000E+02	0.000E+00	0.0
	25	2	5	5	0	0	1.1349340296E+02	-4.4122389554E+01	3.1067677656E+02	3.5639348156E+02	1.2517474355E+02	0.000E+00	0.0
	-5	1	9	9	0	501	1.1595297295E+02	-3.8854223963E+01	3.2117025097E+02	3.4368960584E+02	4.1800000000E+00	0.000E+00	0.0
	5	1	9	9	501	0	-2.4595699891E+00	-5.2681655912E+00	-1.0493474402E+01	1.2703875718E+01	4.1800000000E+00	0.000E+00	0.0
</event>
<event>
    11  -1  1.0000000E+00  1.0000000E+00  -1.0000000E+00  -1.0000000E+00
	2212	-1	0	0	0	0	0.0000000000E+00	0.0000000000E+00	6.5000000000E+03	6.5000000000E+03	9.3827000000E-01	0.000E+00	0.0
	2212	-1	0	0	0	0	0.0000000000E+00	0.0000000000E+00	-6.5000000000E+03	6.5000000000E+03	9.3827000000E-01	0.000E+00	0.0
	2212	1	0	0	0	0	0.0000000000E+00	0.0000000000E+00	4.9150628248E+03	4.9150628248E+03	9.3827000000E-01	0.000E+00	0.0
	2212	1	0	0	0	0	0.0000000000E+00	0.0000000000E+00	-6.3220977160E+03	6.3220977160E+03	9.3827000000E-01	0.000E+00	0.0
	51	2	1	2	0	0	-1.4717039224E+02	5.4148123659E+01	1.2707303591E+03	1.6634910769E+03	1.0620055431E+03	0.000E+00	0.0
	1000022	2	5	5	0	0	1.4717039224E+02	-5.4148123659E+01	1.2701739623E+03	1.5199455441E+03	8.1993988740E+02	0.000E+00	0.0
	14	1	6	6	0	0	2.4762768263E+02	1.2626989543E+02	8.4008720332E+02	9.4267442146E+02	3.2500000000E+02	0.000E+00	0.0
	-14	1	6	6	0	0	-1.0045729039E+02	-1.8041801909E+02	4.3008675895E+02	5.7727112264E+02	3.2500000000E+02	0.000E+00	0.0
	25	2	5	5	0	0	-1.4717039224E+02	5.4148123659E+01	1.3686092892E+02	2.4289391501E+02	1.2520142346E+02	0.000E+00	0.0
	-5	1	9	9	0	501	-9.1590228164E+01	3.1016527302E+01	1.5243724987E+02	1.8056960544E+02	4.1800000000E+00	0.000E+00	0.0
	5	1	9	9	501	0	-5.5580164076E+01	2.3131596357E+01	-1.5576320951E+01	6.2324309568E+01	4.1800000000E+00	0.000E+00	0.0
</event>
<event>
    11  -1  1.0000000E+00  1.0000000E+00  -1.0000000E+00  -1.0000000E+00
	2212	-1	0	0	0	0	0.0000000000E+00	0.0000000000E+00	6.5000000000E+03	6.5000000000E+03	9.3827000000E-01	0.000E+00	0.0
	2212	-1	0	0	0	0	0.0000000000E+00	0.0000000000E+00	-6.5000000000E+03	6.5000000000E+03	9.3827000000E-01	0.000E+00	0.0
	2212	1	0	0	0	0	0.0000000000E+00	0.0000000000E+00	5.2214931490E+03	5.2214931490E+03	9.3827000000E-01	0.000E+00	0.0
	2212	1	0	0	0	0	0.0000000000E+00	0.0000000000E+00	-6.2836026028E+03	6.2836026028E+03	9.3827000000E-01	0.000E+00	0.0
	51	2	1	2	0	0	9.6058052646E+01	-8.3169894554E+01	1.1685718342E+03	1.5774557781E+03	1.0519801421E+03	0.000E+00	0.0
	1000022	2	5	5	0	0	-9.6058052646E+01	8.3169894554E+01	7.7286454715E+02	1.1550888609E+03	8.4897955659E+02	0.000E+00	0.0
	14	1	6	6	0	0	1.1190644662E+02	-2.4154685049E+01	6.5083044367E+02	7.3641820185E+02	3.2500000000E+02	0.000E+00	0.0
	-14	1	6	6	0	0	-2.0796449927E+02	1.0732457960E+02	1.2203410348E+02	4.1867065906E+02	3.2500000000E+02	0.000E+00	0.0
	25	2	5	5	0	0	9.6058052646E+01	-8.3169894554E+01	2.8924490668E+02	3.3981538732E+02	1.2516988688E+02	0.000E+00	0.0
	-5	1	9	9	0	501	-2.6220416653E+01	-4.1185596192E+01	7.8517317117E+01	9.2553795549E+01	4.1800000000E+00	0.000E+00	0.0
	5	1	9	9	501	0	1.2227846930E+02	-4.1984298362E+01	2.1072758957E+02	2.4726159178E+02	4.1800000000E+00	0.000E+00	0.0
</event>
<event>
    11  -1  1.0000000E+00  1.0000000E+00  -1.0000000E+00  -1.0000000E+00
	2212	-1	0	0	0	0	0.0000000000E+00	0.0000000000E+00	6.5000000000E+03	6.5000000000E+03	9.3827000000E-01	0.000E+00	0.0
	2212	-1	0	0	0	0	0.0000000000E+00	0.0000000000E+00	-6.5000000000E+03	6.5000000000E+03	9.3827000000E-01	0.000E+00	0.0
	2212	1	0	0	0	0	0.0000000000E+00	0.0000000000E+00	6.1053483279E+03	6.1053483279E+03	9.3827000000E-01	0.000E+00	0.0
	2212	1	0	0	0	0	0.0000000000E+00	0.0000000000E+00	-5.8018517217E+03	5.8018517217E+03	9.3827000000E-01	0.000E+00	0.0
	51	2	1	2	0	0	-4.0217084858E+01	-1.3308277079E+02	-2.8333979720E+02	1.0962259896E+03	1.0498102408E+03	0.000E+00	0.0
	1000022	2	5	5	0	0	4.0217084858E+01	1.3308277079E+02	-2.7191173948E+02	9.0306770734E+02	8.4986284315E+02	0.000E+00	0.0
	14	1	6	6	0	0	-1.9994589123E+02	3.1867705785E+01	3.6636106359E+01	3.8465713873E+02	3.2500000000E+02	0.000E+00	0.0
	-14	1	6	6	0	0	2.4016297608E+02	1.0121506501E+02	-3.0854784584E+02	5.1841056860E+02	3.2500000000E+02	0.000E+00	0.0
	25	2	5	5	0	0	-4.0217084858E+01	-1.3308277079E+02	-3.1584866698E+01	1.8973224309E+02	1.2518898701E+02	0.000E+00	0.0
	-5	1	9	9	0	501	-2.1891413268E+00	-6.9178994123E+01	4.5190764003E+01	8.2765953862E+01	4.1800000000E+00	0.000E+00	0.0
	5	1	9	9	501	0	-3.8027943531E+01	-6.3903776670E+01	-7.6775630701E+01	1.0696628923E+02	4.1800000000E+00	0.000E+00	0.0
</event>
<event>
    11  -1  1.0000000E+00  1.0000000E+00  -1.0000000E+00  -1.0000000E+00
	2212	-1	0	0	0	0	0.0000000000E+00	0.0000000000E+00	6.5000000000E+03	6.5000000000E+03	9.3827000000E-01	0.000E+00	0.0
	2212	-1	0	0	0	0	0.0000000000E+00	0.0000000000E+00	-6.5000000000E+03	6.5000000000E+03	9.3827000000E-01	0.000E+00	0.0
	2212	1	0	0	0	0	0.0000000000E+00	0.0000000000E+00	5.5652370870E+03	5.5652370870E+03	9.3827000000E-01	0.000E+00	0.0
	2212	1	0	0	0	0	0.0000000000E+00	0.0000000000E+00	-6.2322293606E+03	6.2322293606E+03	9.3827000000E-01	0.000E+00	0.0
	51	2	1	2	0	0	-7.1868298423E+01	-1.9578006272E+01	6.8318256744E+02	1.2138760326E+03	1.0006039434E+03	0.000E+00	0.0
	1000022	2	5	5	0	0	7.1868298423E+01	1.9578006272E+01	5.5527463214E+02	1.0189629290E+03	8.5112113291E+02	0.000E+00	0.0
	14	1	6	6	0	0	-1.1558367585E+02	2.2842121662E+02	3.5505709433E+02	5.4518471967E+02	3.2500000000E+02	0.000E+00	0.0
	-14	1	6	6	0	0	1.8745197428E+02	-2.0884321035E+02	2.0021753781E+02	4.7377820931E+02	3.2500000000E+02	0.000E+00	0.0
	25	2	5	5	0	0	-7.1868298423E+01	-1.9578006272E+01	1.1171764150E+02	1.8357062342E+02	1.2517584316E+02	0.000E+00	0.0
	-5	1	9	9	0	501	-5.1781810567E+01	4.5433185801E+01	2.5311572075E+01	7.3509716082E+01	4.1800000000E+00	0.000E+00	0.0
	5	1	9	9	501	0	-2.0086487856E+01	-6.5011192073E+01	8.6406069429E+01	1.1006090733E+02	4.1800000000E+00	0.000E+00	0.0
</event>
<event>
    11  -1  1.0000000E+00  1.0000000E+00  -1.0000000E+00  -1.0000000E+00
	2212	-1	0	0	0	0	0.0000000000E+00	0.0000000000E+00	6.5000000000E+03	6.5000000000E+03	9.3827000000E-01	0.000E+00	0.0
	2212	-1	0	0	0	0	0.0000000000E+00	0.0000000000E+00	-6.5000000000E+03	6.5000000000E+03	9.3827000000E-01	0.000E+00	0.0
	2212	1	0	0	0	0	0.0000000000E+00	0.0000000000E+00	6.3212125188E+03	6.3212125188E+03	9.3827000000E-01	0.000E+00	0.0
	2212	1	0	0	0	0	0.0000000000E+00	0.0000000000E+00	-4.9526706902E+03	4.9526706902E+03	9.3827000000E-01	0.000E+00	0.0
	51	2	1	2	0	0	-1.1022211435E+01	9.5663294561E+01	-1.2267703296E+03	1.6188918545E+03	1.0519374696E+03	0.000E+00	0.0
	1000022	2	5	5	0	0	1.1022211435E+01	-9.5663294561E+01	-1.2828332669E+03	1.5464252855E+03	8.5819404451E+02	0.000E+00	0.0
	14	1	6	6	0	0	6.7217651645E+01	-1.9183094221E+02	-2.4924961350E+02	4.5723920754E+02	3.2500000000E+02	0.000E+00	0.0
	-14	1	6	6	0	0	-5.6195440210E+01	9.6167647652E+01	-1.0335836534E+03	1.0891860780E+03	3.2500000000E+02	0.000E+00	0.0
	25	2	5	5	0	0	-1.1022211435E+01	9.5663294561E+01	-8.5708561727E+01	1.7969150557E+02	1.2518036807E+02	0.000E+00	0.0
	-5	1	9	9	0	501	5.8992068536E+00	1.1085319932E+02	-1.0247240606E+02	1.5113338098E+02	4.1800000000E+00	0.000E+00	0.0
	5	1	9	9	501	0	-1.6921418289E+01	-1.5189904761E+01	1.6763844334E+01	2.8558124596E+01	4.1800000000E+00	0.000E+00	0.0
</event>
<event>
    11  -1  1.0000000E+00  1.0000000E+00  -1.0000000E+00  -1.0000000E+00
	2212	-1	0	0	0	0	0.0000000000E+00	0.0000000000E+00	6.5000000000E+03	6.5000000000E+03	9.3827000000E-01	0.000E+00	0.0
	2212	-1	0	0	0	0	0.0000000000E+00	0.0000000000E+00	-6.5000000000E+03	6.5000000000E+03	9.3827000000E-01	0.000E+00	0.0
	2212	1	0	0	0	0	0.0000000000E+00	0.0000000000E+00	4.9729951870E+03	4.9729951870E+03	9.3827000000E-01	0.000E+00	0.0
	2212	1	0	0	0	0	0.0000000000E+00	0.0000000000E+00	-6.3166515774E+03	6.3166515774E+03	9.3827000000E-01	0.000E+00	0.0
	51	2	1	2	0	0	-5.8945904157E+01	-1.2222089052E+02	1.2564931811E+03	1.6483577812E+03	1.0582512437E+03	0.000E+00	0.0
	1000022	2	5	5	0	0	5.8945904157E+01	1.2222089052E+02	1.1967656066E+03	1.4744190948E+03	8.5044175825E+02	0.000E+00	0.0
	14	1	6	6	0	0	8.2159007021E+01	-8.1378430638E+01	1.8344181607E+02	3.9070250996E+02	3.2500000000E+02	0.000E+00	0.0
	-14	1	6	6	0	0	-2.3213102864E+01	2.0359932115E+02	1.0133237905E+03	1.0837165848E+03	3.2500000000E+02	0.000E+00	0.0
	25	2	5	5	0	0	-5.8945904157E+01	-1.2222089052E+02	1.4689078383E+02	2.3593414081E+02	1.2520164028E+02	0.000E+00	0.0
	-5	1	9	9	0	501	8.8076522786E+00	-2.8047996229E+01	-1.7664829005E+01	3.4551170963E+01	4.1800000000E+00	0.000E+00	0.0
	5	1	9	9	501	0	-6.7753556435E+01	-9.4172894287E+01	1.6455561284E+02	2.0138296985E+02	4.1800000000E+00	0.000E+00	0.0
</event>
<event>
    11  -1  1.0000000E+00  1.0000000E+00  -1.0000000E+00  -1.0000000E+00
	2212	-1	0	0	0	0	0.0000000000E+00	0.0000000000E+00	6.5000000000E+03	6.5000000000E+03	9.3827000000E-01	0.000E+00	0.0
	2212	-1	0	0	0	0	0.0000000000E+00	0.0000000000E+00	-6.5000000000E+03	6.5000000000E+03	9.3827000000E-01	0.000E+00	0.0
	2212	1	0	0	0	0	0.0000000000E+00	0.0000000000E+00	5.9434869419E+03	5.9434869419E+03	9.3827000000E-01	0.000E+00	0.0
	2212	1	0	0	0	0	0.0000000000E+00	0.0000000000E+00	-6.0060184465E+03	6.0060184465E+03	9.3827000000E-01	0.000E+00	0.0
	51	2	1	2	0	0	-6.3484786715E+01	-9.0128068509E+01	1.5357804583E+02	1.0655366456E+03	1.0486318420E+03	0.000E+00	0.0
	1000022	2	5	5	0	0	6.3484786715E+01	9.0128068509E+01	-3.9251202499E+01	8.5509094460E+02	8.4704573653E+02	0.000E+00	0.0
	14	1	6	6	0	0	-1.5477514678E+02	1.8845834310E+02	1.1609668110E+02	4.2258174654E+02	3.2500000000E+02	0.000E+00	0.0
	-14	1	6	6	0	0	2.1825993350E+02	-9.8330274594E+01	-1.5534788360E+02	4.3250919806E+02	3.2500000000E+02	0.000E+00	0.0
	25	2	5	5	0	0	-6.3484786715E+01	-9.0128068509E+01	1.0178270705E+02	1.9540366703E+02	1.2517782055E+02	0.000E+00	0.0
	-5	1	9	9	0	501	-6.1968875076E+01	-9.2483248664E+01	1.9657701712E+01	1.1312466751E+02	4.1800000000E+00	0.000E+00	0.0
	5	1	9	9	501	0	-1.5159116389E+00	2.3551801548E+00	8.2125005335E+01	8.2278999525E+01	4.1800000000E+00	0.000E+00	0.0
</event>
<event>
    11  -1  1.0000000E+00  1.0000000E+00  -1.0000000E+00  -1.0000000E+00
	2212	-1	0	0	0	0	0.0000000000E+00	0.0000000000E+00	6.5000000000E+03	6.5000000000E+03	9.3827000000E-01	0.000E+00	0.0
	2212	-1	0	0	0	0	0.0000000000E+00	0.0000000000E+00	-6.5000000000E+03	6.5000000000E+03	9.3827000000E-01	0.000E+00	0.0
	2212	1	0	0	0	0	0.0000000000E+00	0.0000000000E+00	6.0488946005E+03	6.0488946005E+03	9.3827000000E-01	0.000E+00	0.0
	2212	1	0	0	0	0	0.0000000000E+00	0.0000000000E+00	-5.8829626923E+03	5.8829626923E+03	9.3827000000E-01	0.000E+00	0.0
	51	2	1	2	0	0	1.7785556412E+01	-1.0047937836E+02	-2.6430159262E+02	1.0925489500E+03	1.0551755516E+03	0.000E+00	0.0
	1000022	2	5	5	0	0	-1.7785556412E+01	1.0047937836E+02	-3.9490608674E+01	8.6303287789E+02	8.5606881070E+02	0.000E+00	0.0
	14	1	6	6	0	0	-2.8510081671E+02	7.3344231346E+01	8.7824386218E+00	4.3859318643E+02	3.2500000000E+02	0.000E+00	0.0
	-14	1	6	6	0	0	2.6731526030E+02	2.7135147010E+01	-4.8273047296E+01	4.2443969146E+02	3.2500000000E+02	0.000E+00	0.0
	25	2	5	5	0	0	1.7785556412E+01	-1.0047937836E+02	-1.2644129951E+02	2.0510982926E+02	1.2518070278E+02	0.000E+00	0.0
	-5	1	9	9	0	501	2.6319961844E+01	-1.0054517145E+02	-1.4837639314E+02	1.8120457592E+02	4.1800000000E+00	0.000E+00	0.0
	5	1	9	9	501	0	-8.5344054315E+00	6.5793095727E-02	2.1935093632E+01	2.3905253344E+01	4.1800000000E+00	0.000E+00	0.0
</event>
<event>
    11  -1  1.0000000E+00  1.0000000E+00  -1.0000000E+00  -1.0000000E+00
	2212	-1	0	0	0	0	0.0000000000E+00	0.0000000000E+00	6.5000000000E+03	6.5000000000E+03	9.3827000000E-01	0.000E+00	0.0
	2212	-1	0	0	0	0	0.0000000000E+00	0.0000000000E+00	-6.5000000000E+03	6.5000000000E+03	9.3827000000E-01	0.000E+00	0.0
	2212	1	0	0	0	0	0.0000000000E+00	0.0000000000E+00	6.2242860343E+03	6.2242860343E+03	9.3827000000E-01	0.000E+00	0.0
	2212	1	0	0	0	0	0.0000000000E+00	0.0000000000E+00	-5.4976778159E+03	5.4976778159E+03	9.3827000000E-01	0.000E+00	0.0
	51	2	1	2	0	0	-1.2079897027E+02	1.4002241991E+01	-6.4399669102E+02	1.2389257803E+03	1.0513880811E+03	0.000E+00	0.0
	1000022	2	5	5	0	0	1.2079897027E+02	-1.4002241991E+01	-6.8499809082E+02	1.0986522033E+03	8.5030925284E+02	0.000E+00	0.0
	14	1	6	6	0	0	8.2732260543E+01	1.2742412483E+02	-6.4745301507E+02	7.4020398624E+02	3.2500000000E+02	0.000E+00	0.0
	-14	1	6	6	0	0	3.8066709725E+01	-1.4142636682E+02	-3.7545075745E+01	3.5844821709E+02	3.2500000000E+02	0.000E+00	0.0
	25	2	5	5	0	0	-1.2079897027E+02	1.4002241991E+01	-4.1610127575E+01	1.7938394645E+02	1.2513490133E+02	0.000E+00	0.0
	-5	1	9	9	0	501	-2.6938420860E+00	3.2859525569E+01	-4.9308329703E+01	5.9462500653E+01	4.1800000000E+00	0.000E+00	0.0
	5	1	9	9	501	0	-1.1810512818E+02	-1.8857283578E+01	7.6982021279E+00	1.1992144580E+02	4.1800000000E+00	0.000E+00	0.0
</event>
<event>
    11  -1  1.0000000E+00  1.0000000E+00  -1.0000000E+00  -1.0000000E+00
	2212	-1	0	0	0	0	0.0000000000E+00	0.0000000000E+00	6.5000000000E+03	6.5000000000E+03	9.3827000000E-01	0.000E+00	0.0
	2212	-1	0	0	0	0	0.0000000000E+00	0.0000000000E+00	-6.5000000000E+03	6.5000000000E+03	9.3827000000E-01	0.000E+00	0.0
	2212	1	0	0	0	0	0.0000000000E+00	0.0000000000E+00	6.1443155940E+03	6.1443155940E+03	9.3827000000E-01	0.000E+00	0.0
	2212	1	0	0	0	0	0.0000000000E+00	0.0000000000E+00	-5.6857809603E+03	5.6857809603E+03	9.3827000000E-01	0.000E+00	0.0
	51	2	1	2	0	0	-7.4805942455E+01	3.4539773938E+01	-3.2464945733E+02	1.1272117180E+03	1.0762992437E+03	0.000E+00	0.0
	1000022	2	5	5	0	0	7.4805942455E+01	-3.4539773938E+01	-5.1316243647E+02	1.0103782246E+03	8.6645227543E+02	0.000E+00	0.0
	14	1	6	6	0	0	-1.5415249227E+02	-2.6707866147E-01	-4.9374770615E+02	6.1088039707E+02	3.2500000000E+02	0.000E+00	0.0
	-14	1	6	6	0	0	2.2895843472E+02	-3.4272695276E+01	-1.9414730321E+01	3.9949782756E+02	3.2500000000E+02	0.000E+00	0.0
	25	2	5	5	0	0	-7.4805942455E+01	3.4539773938E+01	5.4627802725E+01	1.5952522108E+02	1.2520053643E+02	0.000E+00	0.0
	-5	1	9	9	0	501	-7.1104160563E+01	5.5018593460E+01	8.4117138080E+01	1.2319095987E+02	4.1800000000E+00	0.000E+00	0.0
	5	1	9	9	501	0	-3.7017818915E+00	-2.0478819522E+01	-2.9489335355E+01	3.6334261212E+01	4.1800000000E+00	0.000E+00	0.0
</event>
<event>
    11  -1  1.0000000E+00  1.0000000E+00  -1.0000000E+00  -1.0000000E+00
	2212	-1	0	0	0	0	0.0000000000E+00	0.0000000000E+00	6.5000000000E+03	6.5000000000E+03	9.3827000000E-01	0.000E+00	0.0
	2212	-1	0	0	0	0	0.0000000000E+00	0.0000000000E+00	-6.5000000000E+03	6.5000000000E+03	9.3827000000E-01	0.000E+00	0.0
	2212	1	0	0	0	0	0.0000000000E+00	0.0000000000E+00	5.1827931387E+03	5.1827931387E+03	9.3827000000E-01	0.000E+00	0.0
	2212	1	0	0	0	0	0.0000000000E+00	0.0000000000E+00	-6.2886783607E+03	6.2886783607E+03	9.3827000000E-01	0.000E+00	0.0
	51	2	1	2	0	0	2.1341420803E+01	-1.0895813556E+02	1.2692230032E+03	1.6542888551E+03	1.0551858854E+03	0.000E+00	0.0
	1000022	2	5	5	0	0	-2.1341420803E+01	1.0895813556E+02	7.4714420202E+02	1.1326863927E+03	8.4405371517E+02	0.000E+00	0.0
	14	1	6	6	0	0	-1.2090881380E+02	2.2374863175E+02	6.3403318929E+02	7.5650874191E+02	3.2500000000E+02	0.000E+00	0.0
	-14	1	6	6	0	0	9.9567393002E+01	-1.1479049619E+02	1.1311101273E+02	3.7617765081E+02	3.2500000000E+02	0.000E+00	0.0
	25	2	5	5	0	0	2.1341420803E+01	-1.0895813556E+02	3.5874102007E+02	3.9584210788E+02	1.2517397233E+02	0.000E+00	0.0
	-5	1	9	9	0	501	3.9905409517E+01	1.0153520212E+01	5.3561057897E+01	6.7688957773E+01	4.1800000000E+00	0.000E+00	0.0
	5	1	9	9	501	0	-1.8563988715E+01	-1.1911165577E+02	3.0517996217E+02	3.2815315011E+02	4.1800000000E+00	0.000E+00	0.0
</event>
<event>
    11  -1  1.0000000E+00  1.0000000E+00  -1.0000000E+00  -1.0000000E+00
	2212	-1	0	0	0	0	0.0000000000E+00	0.0000000000E+00	6.5000000000E+03	6.5000000000E+03	9.3827000000E-01	0.000E+00	0.0
	2212	-1	0	0	0	0	0.0000000000E+00	0.0000000000E+00	-6.5000000000E+03	6.5000000000E+03	9.3827000000E-01	0.000E+00	0.0
	2212	1	0	0	0	0	0.0000000000E+00	0.0000000000E+00	5.3176578486E+03	5.3176578486E+03	9.3827000000E-01	0.000E+00	0.0
	2212	1	0	0	0	0	0.0000000000E+00	0.0000000000E+00	-6.2660104714E+03	6.2660104714E+03	9.3827000000E-01	0.000E+00	0.0
	51	2	1	2	0	0	-8.5542717995E+01	1.0761473177E+02	1.0136666360E+03	1.4673245268E+03	1.0519613732E+03	0.000E+00	0.0
	1000022	2	5	5	0	0	8.5542717995E+01	-1.0761473177E+02	7.2001759801E+02	1.1218726187E+03	8.4927871991E+02	0.000E+00	0.0
	14	1	6	6	0	0	9.3744901338E+01	3.6625303609E+01	6.8455902458E+02	7.6444462031E+02	3.2500000000E+02	0.000E+00	0.0
	-14	1	6	6	0	0	-8.2021833433E+00	-1.4424003538E+02	3.5458573432E+01	3.5742799841E+02	3.2500000000E+02	0.000E+00	0.0
	25	2	5	5	0	0	-8.5542717995E+01	1.0761473177E+02	2.2833502479E+02	2.9445906134E+02	1.2518293879E+02	0.000E+00	0.0
	-5	1	9	9	0	501	8.5897378556E+00	8.2477110628E+01	7.0475473994E+01	1.0890602467E+02	4.1800000000E+00	0.000E+00	0.0
	5	1	9	9	501	0	-9.4132455851E+01	2.5137621138E+01	1.5785955080E+02	1.8555303667E+02	4.1800000000E+00	0.000E+00	0.0
</event>
<event>
    11  -1  1.0000000E+00  1.0000000E+00  -1.0000000E+00  -1.0000000E+00
	2212	-1	0	0	0	0	0.0000000000E+00	0.0000000000E+00	6.5000000000E+03	6.5000000000E+03	9.3827000000E-01	0.000E+00	0.0
	2212	-1	0	0	0	0	0.0000000000E+00	0.0000000000E+00	-6.5000000000E+03	6.5000000000E+03	9.3827000000E-01	0.000E+00	0.0
	2212	1	0	0	0	0	0.0000000000E+00	0.0000000000E+00	5.6311490972E+03	5.6311490972E+03	9.3827000000E-01	0.000E+00	0.0
	2212	1	0	0	0	0	0.0000000000E+00	0.0000000000E+00	-6.1810856755E+03	6.1810856755E+03	9.3827000000E-01	0.000E+00	0.0
	51	2	1	2	0	0	-1.1388401625E+02	7.6765118989E+01	6.3260651097E+02	1.2358840744E+03	1.0527848759E+03	0.000E+00	0.0
	1000022	2	5	5	0	0	1.1388401625E+02	-7.6765118989E+01	3.6968015957E+02	9.2887692145E+02	8.4100324742E+02	0.000E+00	0.0
	14	1	6	6	0	0	-9.0693870590E+01	1.6408105549E+02	2.7655447398E+02	4.6610658439E+02	3.2500000000E+02	0.000E+00	0.0
	-14	1	6	6	0	0	2.0457788684E+02	-2.4084617448E+02	9.3125685594E+01	4.6277033706E+02	3.2500000000E+02	0.000E+00	0.0
	25	2	5	5	0	0	-1.1388401625E+02	7.6765118989E+01	1.8025641881E+02	2.5888830585E+02	1.2517318297E+02	0.000E+00	0.0
	-5	1	9	9	0	501	1.5575899576E+01	-9.5459972827E+00	-2.4167717437E+00	1.8895711084E+01	4.1800000000E+00	0.000E+00	0.0
	5	1	9	9	501	0	-1.2945991582E+02	8.6311116272E+01	1.8267319055E+02	2.3999259477E+02	4.1800000000E+00	0.000E+00	0.0
</event>
<event>
    11  -1  1.0000000E+00  1.0000000E+00  -1.0000000E+00  -1.0000000E+00
	2212	-1	0	0	0	0	0.0000000000E+00	0.0000000000E+00	6.5000000000E+03	6.5000000000E+03	9.3827000000E-01	0.000E+00	0.0
	2212	-1	0	0	0	0	0.0000000000E+00	0.0000000000E+00	-6.5000000000E+03	6.5000000000E+03	9.3827000000E-01	0.000E+00	0.0
	2212	1	0	0	0	0	0.0000000000E+00	0.0000000000E+00	5.6280010849E+03	5.6280010849E+03	9.3827000000E-01	0.000E+00	0.0
	2212	1	0	0	0	0	0.0000000000E+00	0.0000000000E+00	-6.1786042048E+03	6.1786042048E+03	9.3827000000E-01	0.000E+00	0.0
	51	2	1	2	0	0	2.4417166554E+01	1.4986751455E+02	5.6160019156E+02	1.2080887319E+03	1.0587856908E+03	0.000E+00	0.0
	1000022	2	5	5	0	0	-2.4417166554E+01	-1.4986751455E+02	4.4288001045E+02	9.6905359881E+02	8.4844899892E+02	0.000E+00	0.0
	14	1	6	6	0	0	-2.7737307959E+02	-2.4930404545E+01	1.7685172862E+02	4.6309705707E+02	3.2500000000E+02	0.000E+00	0.0
	-14	1	6	6	0	0	2.5295591303E+02	-1.2493711001E+02	2.6602828183E+02	5.0595654174E+02	3.2500000000E+02	0.000E+00	0.0
	25	2	5	5	0	0	2.4417166554E+01	1.4986751455E+02	1.0772310944E+02	2.2434111155E+02	1.2517266509E+02	0.000E+00	0.0
	-5	1	9	9	0	501	6.6249579983E+01	7.1531058074E+01	9.1883815680E+01	1.3403658867E+02	4.1800000000E+00	0.000E+00	0.0
	5	1	9	9	501	0	-4.1832413429E+01	7.8336456478E+01	1.5839293755E+01	9.0304522885E+01	4.1800000000E+00	0.000E+00	0.0
</event>
<event>
    11  -1  1.0000000E+00  1.0000000E+00  -1.0000000E+00  -1.0000000E+00
	2212	-1	0	0	0	0	0.0000000000E+00	0.0000000000E+00	6.5000000000E+03	6.5000000000E+03	9.3827000000E-01	0.000E+00	0.0
	2212	-1	0	0	0	0	0.0000000000E+00	0.0000000000E+00	-6.5000000000E+03	6.5000000000E+03	9.3827000000E-01	0.000E+00	0.0
	2212	1	0	0	0	0	0.0000000000E+00	0.0000000000E+00	6.2872266800E+03	6.2872266800E+03	9.3827000000E-01	0.000E+00	0.0
	2212	1	0	0	0	0	0.0000000000E+00	0.0000000000E+00	-5.1999965694E+03	5.1999965694E+03	9.3827000000E-01	0.000E+00	0.0
	51	2	1	2	0	0	-9.6898135559E+01	-1.0287050893E+02	-9.9550765333E+02	1.4551396022E+03	1.0518669992E+03	0.000E+00	0.0
	1000022	2	5	5	0	0	9.6898135559E+01	1.0287050893E+02	-9.8228578760E+02	1.2967708774E+03	8.3472016243E+02	0.000E+00	0.0
	14	1	6	6	0	0	-1.1420098935E+02	1.6678779248E+02	-2.2575086095E+02	4.4435175808E+02	3.2500000000E+02	0.000E+00	0.0
	-14	1	6	6	0	0	2.1109912491E+02	-6.3917283551E+01	-7.5653492666E+02	8.5241911929E+02	3.2500000000E+02	0.000E+00	0.0
	25	2	5	5	0	0	-9.6898135559E+01	-1.0287050893E+02	-1.0494432294E+02	2.1600587324E+02	1.2519439315E+02	0.000E+00	0.0
	-5	1	9	9	0	501	-5.2695410825E+01	1.1114546364E+01	-7.0704334094E+01	8.8977046044E+01	4.1800000000E+00	0.000E+00	0.0
	5	1	9	9	501	0	-4.4202724734E+01	-1.1398505529E+02	-3.4239988845E+01	1.2702882720E+02	4.1800000000E+00	0.000E+00	0.0
</event>
<event>
    11  -1  1.0000000E+00  1.0000000E+00  -1.0000000E+00  -1.0000000E+00
	2212	-1	0	0	0	0	0.0000000000E+00	0.0000000000E+00	6.5000000000E+03	6.5000000000E+03	9.3827000000E-01	0.000E+00	0.0
	2212	-1	0	0	0	0	0.0000000000E+00	0.0000000000E+00	-6.5000000000E+03	6.5000000000E+03	9.3827000000E-01	0.000E+00	0.0
	2212	1	0	0	0	0	0.0000000000E+00	0.0000000000E+00	6.3251339373E+03	6.3251339373E+03	9.3827000000E-01	0.000E+00	0.0
	2212	1	0	0	0	0	0.0000000000E+00	0.0000000000E+00	-4.9168561908E+03	4.9168561908E+03	9.3827000000E-01	0.000E+00	0.0
	51	2	1	2	0	0	-1.5696578461E+02	2.4116486492E+01	-1.3698500365E+03	1.7346646602E+03	1.0523081766E+03	0.000E+00	0.0
	1000022	2	5	5	0	0	1.5696578461E+02	-2.4116486492E+01	-1.1891502518E+03	1.4598385407E+03	8.3176341662E+02	0.000E+00	0.0
	14	1	6	6	0	0	-1.7786611451E+02	4.7413779786E+01	-4.8681314073E+02	6.1359306971E+02	3.2500000000E+02	0.000E+00	0.0
	-14	1	6	6	0	0	3.3483189912E+02	-7.1530266278E+01	-7.0233711104E+02	8.4624547101E+02	3.2500000000E+02	0.000E+00	0.0
	25	2	5	5	0	0	-1.5696578461E+02	2.4116486492E+01	-2.1912749476E+02	2.9817133123E+02	1.2517755930E+02	0.000E+00	0.0
	-5	1	9	9	0	501	-3.7715800655E+01	6.0747034722E+01	-4.7458366398E+01	8.5921201037E+01	4.1800000000E+00	0.000E+00	0.0
	5	1	9	9	501	0	-1.1924998395E+02	-3.6630548230E+01	-1.7166912836E+02	2.1225013019E+02	4.1800000000E+00	0.000E+00	0.0
</event>
<event>
    11  -1  1.0000000E+00  1.0000000E+00  -1.0000000E+00  -1.0000000E+00
	2212	-1	0	0	0	0	0.0000000000E+00	0.0000000000E+00	6.5000000000E+03	6.5000000000E+03	9.3827000000E-01	0.000E+00	0.0
	2212	-1	0	0	0	0	0.0000000000E+00	0.0000000000E+00	-6.5000000000E+03	6.5000000000E+03	9.3827000000E-01	0.000E+00	0.0
	2212	1	0	0	0	0	0.0000000000E+00	0.0000000000E+00	6.3145751005E+03	6.3145751005E+03	9.3827000000E-01	0.000E+00	0.0
	2212	1	0	0	0	0	0.0000000000E+00	0.0000000000E+00	-5.0066992575E+03	5.0066992575E+03	9.3827000000E-01	0.000E+00	0.0
	51	2	1	2	0	0	1.1029936940E+02	1.8356644576E+01	-1.1395878579E+03	1.5552311609E+03	1.0524165338E+03	0.000E+00	0.0
	1000022	2	5	5	0	0	-1.1029936940E+02	-1.8356644576E+01	-1.2384334303E+03	1.4970809797E+03	8.3368530096E+02	0.000E+00	0.0
	14	1	6	6	0	0	5.1929977098E+01	-7.3111226460E+01	-1.0093297640E+03	1.0641492125E+03	3.2500000000E+02	0.000E+00	0.0
	-14	1	6	6	0	0	-1.6222934650E+02	5.4754581885E+01	-2.2910366633E+02	4.3293176717E+02	3.2500000000E+02	0.000E+00	0.0
	25	2	5	5	0	0	1.1029936940E+02	1.8356644576E+01	-6.9442412694E+01	1.8164466241E+02	1.2517834242E+02	0.000E+00	0.0
	-5	1	9	9	0	501	6.1146658393E+01	-4.8312142011E+01	-8.0420848656E+00	7.8454601058E+01	4.1800000000E+00	0.000E+00	0.0
	5	1	9	9	501	0	4.9152711011E+01	6.6668786586E+01	-6.1400327828E+01	1.0319006135E+02	4.1800000000E+00	0.000E+00	0.0
</event>
<event>
    11  -1  1.0000000E+00  1.0000000E+00  -1.0000000E+00  -1.0000000E+00
	2212	-1	0	0	0	0	0.0000000000E+00	0.0000000000E+00	6.5000000000E+03	6.5000000000E+03	9.3827000000E-01	0.000E+00	0.0
	2212	-1	0	0	0	0	0.0000000000E+00	0.0000000000E+00	-6.5000000000E+03	6.5000000000E+03	9.3827000000E-01	0.000E+00	0.0
	2212	1	0	0	0	0	0.0000000000E+00	0.0000000000E+00	5.2926266688E+03	5.2926266688E+03	9.3827000000E-01	0.000E+00	0.0
	2212	1	0	0	0	0	0.0000000000E+00	0.0000000000E+00	-6.2729058916E+03	6.2729058916E+03	9.3827000000E-01	0.000E+00	0.0
	51	2	1	2	0	0	1.3391439313E+02	3.0709226606E+01	9.9230545913E+02	1.4492397062E+03	1.0472580773E+03	0.000E+00	0.0
	1000022	2	5	5	0	0	-1.3391439313E+02	-3.0709226606E+01	8.0265971449E+02	1.1773783398E+03	8.5034170567E+02	0.000E+00	0.0
	14	1	6	6	0	0	-4.1129438728E+01	-2.6169121859E+02	2.4508968224E+02	4.8566230753E+02	3.2500000000E+02	0.000E+00	0.0
	-14	1	6	6	0	0	-9.2784954403E+01	2.3098199198E+02	5.5757003225E+02	6.9171603224E+02	3.2500000000E+02	0.000E+00	0.0
	25	2	5	5	0	0	1.3391439313E+02	3.0709226606E+01	1.7761950834E+02	2.5708909984E+02	1.2517984753E+02	0.000E+00	0.0
	-5	1	9	9	0	501	1.1220226606E+02	-1.9653766018E+01	6.3681596509E+01	1.3056966402E+02	4.1800000000E+00	0.000E+00	0.0
	5	1	9	9	501	0	2.1712127069E+01	5.0362992624E+01	1.1393791183E+02	1.2651943582E+02	4.1800000000E+00	0.000E+00	0.0
</event>
<event>
    11  -1  1.0000000E+00  1.0000000E+00  -1.0000000E+00  -1.0000000E+00
	2212	-1	0	0	0	0	0.0000000000E+00	0.0000000000E+00	6.5000000000E+03	6.5000000000E+03	9.3827000000E-01	0.000E+00	0.0
	2212	-1	0	0	0	0	0.0000000000E+00	0.0000000000E+00	-6.5000000000E+03	6.5000000000E+03	9.3827000000E-01	0.000E+00	0.0
	2212	1	0	0	0	0	0.0000000000E+00	0.0000000000E+00	5.9239344091E+03	5.9239344091E+03	9.3827000000E-01	0.000E+00	0.0
	2212	1	0	0	0	0	0.0000000000E+00	0.0000000000E+00	-6.0222316203E+03	6.0222316203E+03	9.3827000000E-01	0.000E+00	0.0
	51	2	1	2	0	0	-9.9187888396E+01	8.1290023481E+01	4.7068702416E+01	1.0580952054E+03	1.0492395798E+03	0.000E+00	0.0
	1000022	2	5	5	0	0	9.9187888396E+01	-8.1290023481E+01	1.3289740572E+02	8.7130234481E+02	8.5150440428E+02	0.000E+00	0.0
	14	1	6	6	0	0	2.3853496685E+02	1.5458223040E+01	2.6379172770E+02	4.8202589419E+02	3.2500000000E+02	0.000E+00	0.0
	-14	1	6	6	0	0	-1.3934707845E+02	-9.6748246521E+01	-1.3089432198E+02	3.8927645062E+02	3.2500000000E+02	0.000E+00	0.0
	25	2	5	5	0	0	-9.9187888396E+01	8.1290023481E+01	-3.4600194609E+01	1.8253162580E+02	1.2519710790E+02	0.000E+00	0.0
	-5	1	9	9	0	501	-1.0871000153E+02	2.0534951314E+01	2.2186334810E+00	1.1073365971E+02	4.1800000000E+00	0.000E+00	0.0
	5	1	9	9	501	0	9.5221131321E+00	6.0755072168E+01	-3.6818828090E+01	7.1797966089E+01	4.1800000000E+00	0.000E+00	0.0
</event>
<event>
    11  -1  1.0000000E+00  1.0000000E+00  -1.0000000E+00  -1.0000000E+00
	2212	-1	0	0	0	0	0.0000000000E+00	0.0000000000E+00	6.5000000000E+03	6.5000000000E+03	9.3827000000E-01	0.000E+00	0.0
	2212	-1	0	0	0	0	0.0000000000E+00	0.0000000000E+00	-6.5000000000E+03	6.5000000000E+03	9.3827000000E-01	0.000E+00	0.0
	2212	1	0	0	0	0	0.0000000000E+00	0.0000000000E+00	5.9884452554E+03	5.9884452554E+03	9.3827000000E-01	0.000E+00	0.0
	2212	1	0	0	0	0	0.0000000000E+00	0.0000000000E+00	-5.9604420957E+03	5.9604420957E+03	9.3827000000E-01	0.000E+00	0.0
	51	2	1	2	0	0	-5.8313989202E+01	3.2107131007E+01	-1.4958740231E+02	1.0634196743E+03	1.0507395603E+03	0.000E+00	0.0
	1000022	2	5	5	0	0	5.8313989202E+01	-3.2107131007E+01	9.8312018573E+01	8.6122758143E+02	8.5300428183E+02	0.000E+00	0.0
	14	1	6	6	0	0	1.8977941125E+02	-1.1046987846E+02	2.5655533007E+02	4.6868481559E+02	3.2500000000E+02	0.000E+00	0.0
	-14	1	6	6	0	0	-1.3146542205E+02	7.8362747451E+01	-1.5824331149E+02	3.9254276584E+02	3.2500000000E+02	0.000E+00	0.0
	25	2	5	5	0	0	-5.8313989202E+01	3.2107131007E+01	-1.2631517825E+02	1.8988506743E+02	1.2517757538E+02	0.000E+00	0.0
	-5	1	9	9	0	501	-5.5104048987E+01	-3.9272814094E+01	-7.8918022340E+01	1.0404007301E+02	4.1800000000E+00	0.000E+00	0.0
	5	1	9	9	501	0	-3.2099402155E+00	7.1379945102E+01	-4.7397155910E+01	8.5844994422E+01	4.1800000000E+00	0.000E+00	0.0
</event>
<event>
    11  -1  1.0000000E+00  1.0000000E+00  -1.0000000E+00  -1.0000000E+00
	2212	-1	0	0	0	0	0.0000000000E+00	0.0000000000E+00	6.5000000000E+03	6.5000000000E+03	9.3827000000E-01	0.000E+00	0.0
	2212	-1	0	0	0	0	0.0000000000E+00	0.0000000000E+00	-6.5000000000E+03	6.5000000000E+03	9.3827000000E-01	0.000E+00	0.0
	2212	1	0	0	0	0	0.0000000000E+00	0.0000000000E+00	6.3248603363E+03	6.3248603363E+03	9.3827000000E-01	0.000E+00	0.0
	2212	1	0	0	0	0	0.0000000000E+00	0.0000000000E+00	-4.9201453917E+03	4.9201453917E+03	9.3827000000E-01	0.000E+00	0.0
	51	2	1	2	0	0	-2.1509121442E+00	7.3698950301E+01	-1.2088780823E+03	1.6042453674E+03	1.0520365104E+03	0.000E+00	0.0
	1000022	2	5	5	0	0	2.1509121442E+00	-7.3698950301E+01	-1.3576596538E+03	1.6022835040E+03	8.4772432415E+02	0.000E+00	0.0
	14	1	6	6	0	0	4.4126283618E+00	1.2765196676E+02	-1.0650499628E+03	1.1208349206E+03	3.2500000000E+02	0.000E+00	0.0
	-14	1	6	6	0	0	-2.2617162175E+00	-2.0135091706E+02	-2.9260969100E+02	4.8144858337E+02	3.2500000000E+02	0.000E+00	0.0
	25	2	5	5	0	0	-2.1509121442E+00	7.3698950301E+01	-4.7055290712E+01	1.5271076800E+02	1.2518073566E+02	0.000E+00	0.0
	-5	1	9	9	0	501	1.2996681188E+01	8.7437584687E+01	1.2710385229E+01	8.9405096222E+01	4.1800000000E+00	0.000E+00	0.0
	5	1	9	9	501	0	-1.5147593333E+01	-1.3738634386E+01	-5.9765675941E+01	6.3305671778E+01	4.1800000000E+00	0.000E+00	0.0
</event>
<event>
    11  -1  1.0000000E+00  1.0000000E+00  -1.0000000E+00  -1.0000000E+00
	2212	-1	0	0	0	0	0.0000000000E+00	0.0000000000E+00	6.5000000000E+03	6.5000000000E+03	9.3827000000E-01	0.000E+00	0.0
	2212	-1	0	0	0	0	0.0000000000E+00	0.0000000000E+00	-6.5000000000E+03	6.5000000000E+03	9.3827000000E-01	0.000E+00	0.0
	2212	1	0	0	0	0	0.0000000000E+00	0.0000000000E+00	5.4475516095E+03	5.4475516095E+03	9.3827000000E-01	0.000E+00	0.0
	2212	1	0	0	0	0	0.0000000000E+00	0.0000000000E+00	-6.2388539864E+03	6.2388539864E+03	9.3827000000E-01	0.000E+00	0.0
	51	2	1	2	0	0	1.2738805807E+02	-3.8283129489E+00	8.1914664578E+02	1.3366429618E+03	1.0485088491E+03	0.000E+00	0.0
	1000022	2	5	5	0	0	-1.2738805807E+02	3.8283129489E+00	6.3392969053E+02	1.0755233602E+03	8.5944241948E+02	0.000E+00	0.0
	14	1	6	6	0	0	-7.4516728219E+01	2.4802199264E+02	4.8662883038E+02	6.3992208133E+02	3.2500000000E+02	0.000E+00	0.0
	-14	1	6	6	0	0	-5.2871329852E+01	-2.4419367969E+02	1.4730086014E+02	4.3560127883E+02	3.2500000000E+02	0.000E+00	0.0
	25	2	5	5	0	0	1.2738805807E+02	-3.8283129489E+00	1.5737268637E+02	2.3807104387E+02	1.2517701944E+02	0.000E+00	0.0
	-5	1	9	9	0	501	3.0584078306E+01	-1.5194984032E+01	-1.6913267003E+01	3.8338027940E+01	4.1800000000E+00	0.000E+00	0.0
	5	1	9	9	501	0	9.6803979765E+01	1.1366671083E+01	1.7428595337E+02	1.9973301593E+02	4.1800000000E+00	0.000E+00	0.0
</event>
<event>
    11  -1  1.0000000E+00  1.0000000E+00  -1.0000000E+00  -1.0000000E+00
	2212	-1	0	0	0	0	0.0000000000E+00	0.0000000000E+00	6.5000000000E+03	6.5000000000E+03	9.3827000000E-01	0.000E+00	0.0
	2212	-1	0	0	0	0	0.0000000000E+00	0.0000000000E+00	-6.5000000000E+03	6.5000000000E+03	9.3827000000E-01	0.000E+00	0.0
	2212	1	0	0	0	0	0.0000000000E+00	0.0000000000E+00	5.2273101026E+03	5.2273101026E+03	9.3827000000E-01	0.000E+00	0.0
	2212	1	0	0	0	0	0.0000000000E+00	0.0000000000E+00	-6.2941810600E+03	6.2941810600E+03	9.3827000000E-01	0.000E+00	0.0
	51	2	1	2	0	0	1.0245743570E+02	6.6589431870E+00	1.1211195755E+03	1.5215865775E+03	1.0236086863E+03	0.000E+00	0.0
	1000022	2	5	5	0	0	-1.0245743570E+02	-6.6589431870E+00	8.4624432493E+02	1.2048583529E+03	8.5147655605E+02	0.000E+00	0.0
	14	1	6	6	0	0	-1.0209420252E+02	-2.1323757375E+02	6.7012252269E+02	7.8139790406E+02	3.2500000000E+02	0.000E+00	0.0
	-14	1	6	6	0	0	-3.6323317840E-01	2.0657863056E+02	1.7612180224E+02	4.2346044888E+02	3.2500000000E+02	0.000E+00	0.0
	25	2	5	5	0	0	1.0245743570E+02	6.6589431870E+00	2.2062663245E+02	2.7365048447E+02	1.2516632556E+02	0.000E+00	0.0
	-5	1	9	9	0	501	1.6983125517E+01	-2.3624162950E+01	1.6410240651E+02	1.6671412613E+02	4.1800000000E+00	0.000E+00	0.0
	5	1	9	9	501	0	8.5474310184E+01	3.0283106137E+01	5.6524225934E+01	1.0693635834E+02	4.1800000000E+00	0.000E+00	0.0
</event>
<event>
    11  -1  1.0000000E+00  1.0000000E+00  -1.0000000E+00  -1.0000000E+00
	2212	-1	0	0	0	0	0.0000000000E+00	0.0000000000E+00	6.5000000000E+03	6.5000000000E+03	9.3827000000E-01	0.000E+00	0.0
	2212	-1	0	0	0	0	0.0000000000E+00	0.0000000000E+00	-6.5000000000E+03	6.5000000000E+03	9.3827000000E-01	0.000E+00	0.0
	2212	1	0	0	0	0	0.0000000000E+00	0.0000000000E+00	5.9130681304E+03	5.9130681304E+03	9.3827000000E-01	0.000E+00	0.0
	2212	1	0	0	0	0	0.0000000000E+00	0.0000000000E+00	-6.0295138397E+03	6.0295138397E+03	9.3827000000E-01	0.000E+00	0.0
	51	2	1	2	0	0	1.3902309077E+02	-2.2573869549E+01	1.0281748068E+02	1.0653552086E+03	1.0509868157E+03	0.000E+00	0.0
	1000022	2	5	5	0	0	-1.3902309077E+02	2.2573869549E+01	1.1018786566E+02	8.6889977724E+02	8.5029904022E+02	0.000E+00	0.0
	14	1	6	6	0	0	-4.2341036582E+01	2.6477091084E+02	1.5689877508E+02	4.4959829207E+02	3.2500000000E+02	0.000E+00	0.0
	-14	1	6	6	0	0	-9.6682054183E+01	-2.4219704129E+02	-4.6710909419E+01	4.1930148518E+02	3.2500000000E+02	0.000E+00	0.0
	25	2	5	5	0	0	1.3902309077E+02	-2.2573869549E+01	6.2578435878E+00	1.8851825271E+02	1.2515179442E+02	0.000E+00	0.0
	-5	1	9	9	0	501	1.0978309390E+02	-4.3216630179E+01	-4.4588840928E+01	1.2619683817E+02	4.1800000000E+00	0.000E+00	0.0
	5	1	9	9	501	0	2.9239996867E+01	2.0642760630E+01	5.0846684516E+01	6.2321414534E+01	4.1800000000E+00	0.000E+00	0.0
</event>
<event>
    11  -1  1.0000000E+00  1.0000000E+00  -1.0000000E+00  -1.0000000E+00
	2212	-1	0	0	0	0	0.0000000000E+00	0.0000000000E+00	6.5000000000E+03	6.5000000000E+03	9.3827000000E-01	0.000E+00	0.0
	2212	-1	0	0	0	0	0.0000000000E+00	0.0000000000E+00	-6.5000000000E+03	6.5000000000E+03	9.3827000000E-01	0.000E+00	0.0
	2212	1	0	0	0	0	0.0000000000E+00	0.0000000000E+00	6.2854754482E+03	6.2854754482E+03	9.3827000000E-01	0.000E+00	0.0
	2212	1	0	0	0	0	0.0000000000E+00	0.0000000000E+00	-5.2162056404E+03	5.2162056404E+03	9.3827000000E-01	0.000E+00	0.0
	51	2	1	2	0	0	5.7392829469E+01	-1.0644487297E+02	-9.7785536701E+02	1.4395996683E+03	1.0495816492E+03	0.000E+00	0.0
	1000022	2	5	5	0	0	-5.7392829469E+01	1.0644487297E+02	-9.7878408023E+02	1.3021497622E+03	8.5026541717E+02	0.000E+00	0.0
	14	1	6	6	0	0	3.2412675208E+01	-1.4704795591E+02	-1.8477369925E+02	4.0303846316E+02	3.2500000000E+02	0.000E+00	0.0
	-14	1	6	6	0	0	-8.9805504677E+01	2.5349282888E+02	-7.9401038098E+02	8.9911129904E+02	3.2500000000E+02	0.000E+00	0.0
	25	2	5	5	0	0	5.7392829469E+01	-1.0644487297E+02	-9.0485727544E+01	1.9616914916E+02	1.2518075066E+02	0.000E+00	0.0
	-5	1	9	9	0	501	7.6942035576E+01	-2.4234116209E+01	-7.4861499848E+01	1.1013212877E+02	4.1800000000E+00	0.000E+00	0.0
	5	1	9	9	501	0	-1.9549206107E+01	-8.2210756765E+01	-1.5624227696E+01	8.6037020395E+01	4.1800000000E+00	0.000E+00	0.0
</event>
<event>
    11  -1  1.0000000E+00  1.0000000E+00  -1.0000000E+00  -1.0000000E+00
	2212	-1	0	0	0	0	0.0000000000E+00	0.0000000000E+00	6.5000000000E+03	6.5000000000E+03	9.3827000000E-01	0.000E+00	0.0
	2212	-1	0	0	0	0	0.0000000000E+00	0.0000000000E+00	-6.5000000000E+03	6.5000000000E+03	9.3827000000E-01	0.000E+00	0.0
	2212	1	0	0	0	0	0.0000000000E+00	0.0000000000E+00	5.7340404452E+03	5.7340404452E+03	9.3827000000E-01	0.000E+00	0.0
	2212	1	0	0	0	0	0.0000000000E+00	0.0000000000E+00	-6.1416428278E+03	6.1416428278E+03	9.3827000000E-01	0.000E+00	0.0
	51	2	1	2	0	0	7.4550270700E+01	-7.9548790919E+01	3.0874488413E+02	1.0977966828E+03	1.0478303299E+03	0.000E+00	0.0
	1000022	2	5	5	0	0	-7.4550270700E+01	7.9548790919E+01	4.3580120752E+02	9.5593425847E+02	8.4380202716E+02	0.000E+00	0.0
	14	1	6	6	0	0	-9.8725306118E+01	1.7246244907E+02	4.8151571956E+02	6.1398075751E+02	3.2500000000E+02	0.000E+00	0.0
	-14	1	6	6	0	0	2.4175035418E+01	-9.2913658154E+01	-4.5714512039E+01	3.4195350096E+02	3.2500000000E+02	0.000E+00	0.0
	25	2	5	5	0	0	7.4550270700E+01	-7.9548790919E+01	-2.8198824934E+01	1.6838246852E+02	1.2518677637E+02	0.000E+00	0.0
	-5	1	9	9	0	501	5.7103393795E+01	-3.1946220158E+01	-7.4747524119E+01	9.9428483480E+01	4.1800000000E+00	0.000E+00	0.0
	5	1	9	9	501	0	1.7446876905E+01	-4.7602570761E+01	4.6548699185E+01	6.8953985038E+01	4.1800000000E+00	0.000E+00	0.0
</event>
<event>
    11  -1  1.0000000E+00  1.0000000E+00  -1.0000000E+00  -1.0000000E+00
	2212	-1	0	0	0	0	0.0000000000E+00	0.0000000000E+00	6.5000000000E+03	6.5000000000E+03	9.3827000000E-01	0.000E+00	0.0
	2212	-1	0	0	0	0	0.0000000000E+00	0.0000000000E+00	-6.5000000000E+03	6.5000000000E+03	9.3827000000E-01	0.000E+00	0.0
	2212	1	0	0	0	0	0.0000000000E+00	0.0000000000E+00	6.0694138079E+03	6.0694138079E+03	9.3827000000E-01	0.000E+00	0.0
	2212	1	0	0	0	0	0.0000000000E+00	0.0000000000E+00	-5.8514678892E+03	5.8514678892E+03	9.3827000000E-01	0.000E+00	0.0
	51	2	1	2	0	0	1.7476740307E+02	-2.1173380399E+01	-2.7090741823E+02	1.1051600222E+03	1.0568802620E+03	0.000E+00	0.0
	1000022	2	5	5	0	0	-1.7476740307E+02	2.1173380399E+01	-1.2255328589E+02	8.4298679269E+02	8.1523951545E+02	0.000E+00	0.0
	14	1	6	6	0	0	7.4211525376E+01	1.2394935390E+02	-2.0841793812E+02	4.1223031155E+02	3.2500000000E+02	0.000E+00	0.0
	-14	1	6	6	0	0	-2.4897892844E+02	-1.0277597350E+02	8.5864652237E+01	4.3075648114E+02	3.2500000000E+02	0.000E+00	0.0
	25	2	5	5	0	0	1.7476740307E+02	-2.1173380399E+01	-9.5392632788E+01	2.3613151017E+02	1.2516540454E+02	0.000E+00	0.0
	-5	1	9	9	0	501	1.3163689026E+02	-4.4106059673E+01	-1.1789988229E+02	1.8218526291E+02	4.1800000000E+00	0.000E+00	0.0
	5	1	9	9	501	0	4.3130512810E+01	2.2932679275E+01	2.2507249502E+01	5.3946247267E+01	4.1800000000E+00	0.000E+00	0.0
</event>
<event>
    11  -1  1.0000000E+00  1.0000000E+00  -1.0000000E+00  -1.0000000E+00
	2212	-1	0	0	0	0	0.0000000000E+00	0.0000000000E+00	6.5000000000E+03	6.5000000000E+03	9.3827000000E-01	0.000E+00	0.0
	2212	-1	0	0	0	0	0.0000000000E+00	0.0000000000E+00	-6.5000000000E+03	6.5000000000E+03	9.3827000000E-01	0.000E+00	0.0
	2212	1	0	0	0	0	0.0000000000E+00	0.0000000000E+00	5.7992984229E+03	5.7992984229E+03	9.3827000000E-01	0.000E+00	0.0
	2212	1	0	0	0	0	0.0000000000E+00	0.0000000000E+00	-6.1016645667E+03	6.1016645667E+03	9.3827000000E-01	0.000E+00	0.0
	51	2	1	2	0	0	-1.1752017195E+01	3.6897423656E+01	4.1895210843E+02	1.1373115071E+03	1.0566253192E+03	0.000E+00	0.0
	1000022	2	5	5	0	0	1.1752017195E+01	-3.6897423656E+01	1.3860611019E+02	8.8929474585E+02	8.7757276703E+02	0.000E+00	0.0
	14	1	6	6	0	0	1.9311389434E+02	1.2616303397E+02	2.4684442609E+02	4.6879340655E+02	3.2500000000E+02	0.000E+00	0.0
	-14	1	6	6	0	0	-1.8136187715E+02	-1.6306045763E+02	-1.0823831590E+02	4.2050133930E+02	3.2500000000E+02	0.000E+00	0.0
	25	2	5	5	0	0	-1.1752017195E+01	3.6897423656E+01	1.6376003360E+02	2.0974226449E+02	1.2519959716E+02	0.000E+00	0.0
	-5	1	9	9	0	501	1.0626638730E+01	-4.1629308282E+00	1.6231642946E+02	1.6277085463E+02	4.1800000000E+00	0.000E+00	0.0
	5	1	9	9	501	0	-2.2378655925E+01	4.1060354484E+01	1.4436041404E+00	4.6971409860E+01	4.1800000000E+00	0.000E+00	0.0
</event>
<event>
    11  -1  1.0000000E+00  1.0000000E+00  -1.0000000E+00  -1.0000000E+00
	2212	-1	0	0	0	0	0.0000000000E+00	0.0000000000E+00	6.5000000000E+03	6.5000000000E+03	9.3827000000E-01	0.000E+00	0.0
	2212	-1	0	0	0	0	0.0000000000E+00	0.0000000000E+00	-6.5000000000E+03	6.5000000000E+03	9.3827000000E-01	0.000E+00	0.0
	2212	1	0	0	0	0	0.0000000000E+00	0.0000000000E+00	5.6541276014E+03	5.6541276014E+03	9.3827000000E-01	0.000E+00	0.0
	2212	1	0	0	0	0	0.0000000000E+00	0.0000000000E+00	-6.1778215571E+03	6.1778215571E+03	9.3827000000E-01	0.000E+00	0.0
	51	2	1	2	0	0	5.5365362239E+01	-5.2782114726E+01	6.4493231555E+02	1.2295838221E+03	1.0440725114E+03	0.000E+00	0.0
	1000022	2	5	5	0	0	-5.5365362239E+01	5.2782114726E+01	3.1606025860E+02	9.1382106655E+02	8.5400443771E+02	0.000E+00	0.0
	14	1	6	6	0	0	-1.0866585221E+02	-1.3805335871E+02	3.7756296968E+02	5.2824785221E+02	3.2500000000E+02	0.000E+00	0.0
	-14	1	6	6	0	0	5.3300489971E+01	1.9083547343E+02	-6.1502711076E+01	3.8557321435E+02	3.2500000000E+02	0.000E+00	0.0
	25	2	5	5	0	0	5.5365362239E+01	-5.2782114726E+01	2.0763369713E+02	2.5422977493E+02	1.2517887723E+02	0.000E+00	0.0
	-5	1	9	9	0	501	2.7654928270E+01	-8.1277010600E+01	1.9368189466E+02	2.1189831578E+02	4.1800000000E+00	0.000E+00	0.0
	5	1	9	9	501	0	2.7710433970E+01	2.8494895873E+01	1.3951802471E+01	4.2331459151E+01	4.1800000000E+00	0.000E+00	0.0
</event>
<event>
    11  -1  1.0000000E+00  1.0000000E+00  -1.0000000E+00  -1.0000000E+00
	2212	-1	0	0	0	0	0.0000000000E+00	0.0000000000E+00	6.5000000000E+03	6.5000000000E+03	9.3827000000E-01	0.000E+00	0.0
	2212	-1	0	0	0	0	0.0000000000E+00	0.0000000000E+00	-6.5000000000E+03	6.5000000000E+03	9.3827000000E-01	0.000E+00	0.0
	2212	1	0	0	0	0	0.0000000000E+00	0.0000000000E+00	5.9149491079E+03	5.9149491079E+03	9.3827000000E-01	0.000E+00	0.0
	2212	1	0	0	0	0	0.0000000000E+00	0.0000000000E+00	-6.0352103628E+03	6.0352103628E+03	9.3827000000E-01	0.000E+00	0.0
	51	2	1	2	0	0	-1.0744144075E+02	-2.9178654600E+01	4.5765464854E+01	1.0498532766E+03	1.0429297040E+03	0.000E+00	0.0
	1000022	2	5	5	0	0	1.0744144075E+02	2.9178654600E+01	1.7458453868E+02	8.7372854895E+02	8.4883847641E+02	0.000E+00	0.0
	14	1	6	6	0	0	-9.5846127095E+01	1.7033785355E+02	2.5550600211E+02	4.5728522996E+02	3.2500000000E+02	0.000E+00	0.0
	-14	1	6	6	0	0	2.0328756784E+02	-1.4115919895E+02	-8.0921463428E+01	4.1644331899E+02	3.2500000000E+02	0.000E+00	0.0
	25	2	5	5	0	0	-1.0744144075E+02	-2.9178654600E+01	-5.4323283728E+01	1.7611198036E+02	1.2517728787E+02	0.000E+00	0.0
	-5	1	9	9	0	501	-4.9759646415E+00	4.1480465464E+01	-2.2222540773E+01	4.7504767736E+01	4.1800000000E+00	0.000E+00	0.0
	5	1	9	9	501	0	-1.0246547611E+02	-7.0659120065E+01	-3.2100742955E+01	1.2860721263E+02	4.1800000000E+00	0.000E+00	0.0
</event>
<event>
    11  -1  1.0000000E+00  1.0000000E+00  -1.0000000E+00  -1.0000000E+00
	2212	-1	0	0	0	0	0.0000000000E+00	0.0000000000E+00	6.5000000000E+03	6.5000000000E+03	9.3827000000E-01	0.000E+00	0.0
	2212	-1	0	0	0	0	0.0000000000E+00	0.0000000000E+00	-6.5000000000E+03	6.5000000000E+03	9.3827000000E-01	0.000E+00	0.0
	2212	1	0	0	0	0	0.0000000000E+00	0.0000000000E+00	6.1986330506E+03	6.1986330506E+03	9.3827000000E-01	0.000E+00	0.0
	2212	1	0	0	0	0	0.0000000000E+00	0.0000000000E+00	-5.5770369773E+03	5.5770369773E+03	9.3827000000E-01	0.000E+00	0.0
	51	2	1	2	0	0	7.1831099297E+01	1.1952135785E+02	-6.0762653863E+02	1.2252580441E+03	1.0547996029E+03	0.000E+00	0.0
	1000022	2	5	5	0	0	-7.1831099297E+01	-1.1952135785E+02	-5.3018879503E+02	1.0158459070E+03	8.5521791756E+02	0.000E+00	0.0
	14	1	6	6	0	0	3.6732810700E+01	-2.1256872015E+02	-1.5266852689E+01	3.9037525147E+02	3.2500000000E+02	0.000E+00	0.0
	-14	1	6	6	0	0	-1.0856391000E+02	9.3047362295E+01	-5.1492194234E+02	6.2547065550E+02	3.2500000000E+02	0.000E+00	0.0
	25	2	5	5	0	0	7.1831099297E+01	1.1952135785E+02	-9.1407278235E+01	2.0848406517E+02	1.2516090887E+02	0.000E+00	0.0
	-5	1	9	9	0	501	2.2892500341E+01	-4.7848267256E+00	-6.8980988094E+01	7.2957592182E+01	4.1800000000E+00	0.000E+00	0.0
	5	1	9	9	501	0	4.8938598956E+01	1.2430618458E+02	-2.2426290141E+01	1.3552647299E+02	4.1800000000E+00	0.000E+00	0.0
</event>
<event>
    11  -1  1.0000000E+00  1.0000000E+00  -1.0000000E+00  -1.0000000E+00
	2212	-1	0	0	0	0	0.0000000000E+00	0.0000000000E+00	6.5000000000E+03	6.5000000000E+03	9.3827000000E-01	0.000E+00	0.0
	2212	-1	0	0	0	0	0.0000000000E+00	0.0000000000E+00	-6.5000000000E+03	6.5000000000E+03	9.3827000000E-01	0.000E+00	0.0
	2212	1	0	0	0	0	0.0000000000E+00	0.0000000000E+00	6.3149931638E+03	6.3149931638E+03	9.3827000000E-01	0.000E+00	0.0
	2212	1	0	0	0	0	0.0000000000E+00	0.0000000000E+00	-5.0062261387E+03	5.0062261387E+03	9.3827000000E-01	0.000E+00	0.0
	51	2	1	2	0	0	4.5885590059E+01	-1.4221408395E+02	-1.3449266945E+03	1.7136486370E+03	1.0513959789E+03	0.000E+00	0.0
	1000022	2	5	5	0	0	-4.5885590059E+01	1.4221408395E+02	-1.0425721407E+03	1.3488421524E+03	8.4266728341E+02	0.000E+00	0.0
	14	1	6	6	0	0	-1.5465755924E+02	2.9720030845E+02	-4.5960252173E+02	6.5506218174E+02	3.2500000000E+02	0.000E+00	0.0
	-14	1	6	6	0	0	1.0877196918E+02	-1.5498622450E+02	-5.8296961894E+02	6.9377997065E+02	3.2500000000E+02	0.000E+00	0.0
	25	2	5	5	0	0	4.5885590059E+01	-1.4221408395E+02	-2.6619488446E+02	3.2993854515E+02	1.2517745012E+02	0.000E+00	0.0
	-5	1	9	9	0	501	4.4935528172E+01	-3.5762108493E+01	-1.9112000166E+02	1.9960575525E+02	4.1800000000E+00	0.000E+00	0.0
	5	1	9	9	501	0	9.5006188771E-01	-1.0645197545E+02	-7.5074882797E+01	1.3033278990E+02	4.1800000000E+00	0.000E+00	0.0
</event>
<event>
    11  -1  1.0000000E+00  1.0000000E+00  -1.0000000E+00  -1.0000000E+00
	2212	-1	0	0	0	0	0.0000000000E+00	0.0000000000E+00	6.5000000000E+03	6.5000000000E+03	9.3827000000E-01	0.000E+00	0.0
	2212	-1	0	0	0	0	0.0000000000E+00	0.0000000000E+00	-6.5000000000E+03	6.5000000000E+03	9.3827000000E-01	0.000E+00	0.0
	2212	1	0	0	0	0	0.0000000000E+00	0.0000000000E+00	5.9936386391E+03	5.9936386391E+03	9.3827000000E-01	0.000E+00	0.0
	2212	1	0	0	0	0	0.0000000000E+00	0.0000000000E+00	-5.9257247045E+03	5.9257247045E+03	9.3827000000E-01	0.000E+00	0.0
	51	2	1	2	0	0	1.4616559927E+02	7.2111466310E+01	-1.1355148250E+02	1.0966410834E+03	1.0785004778E+03	0.000E+00	0.0
	1000022	2	5	5	0	0	-1.4616559927E+02	-7.2111466310E+01	-9.8612931305E+00	8.6708506530E+02	8.5157196959E+02	0.000E+00	0.0
	14	1	6	6	0	0	-9.5284581234E+01	2.3672216985E+02	2.8856154973E+01	4.1421517934E+02	3.2500000000E+02	0.000E+00	0.0
	-14	1	6	6	0	0	-5.0881018037E+01	-3.0883363616E+02	-3.8717448104E+01	4.5286988596E+02	3.2500000000E+02	0.000E+00	0.0
	25	2	5	5	0	0	1.4616559927E+02	7.2111466310E+01	-5.8052641458E+01	2.1355159111E+02	1.2517877976E+02	0.000E+00	0.0
	-5	1	9	9	0	501	1.4571743025E+02	7.8579242081E+01	-1.1110074006E+01	1.6597943520E+02	4.1800000000E+00	0.000E+00	0.0
	5	1	9	9	501	0	4.4816902059E-01	-6.4677757703E+00	-4.6942567452E+01	4.7572155910E+01	4.1800000000E+00	0.000E+00	0.0
</event>
<event>
    11  -1  1.0000000E+00  1.0000000E+00  -1.0000000E+00  -1.0000000E+00
	2212	-1	0	0	0	0	0.0000000000E+00	0.0000000000E+00	6.5000000000E+03	6.5000000000E+03	9.3827000000E-01	0.000E+00	0.0
	2212	-1	0	0	0	0	0.0000000000E+00	0.0000000000E+00	-6.5000000000E+03	6.5000000000E+03	9.3827000000E-01	0.000E+00	0.0
	2212	1	0	0	0	0	0.0000000000E+00	0.0000000000E+00	5.1538778485E+03	5.1538778485E+03	9.3827000000E-01	0.000E+00	0.0
	2212	1	0	0	0	0	0.0000000000E+00	0.0000000000E+00	-6.2953760945E+03	6.2953760945E+03	9.3827000000E-01	0.000E+00	0.0
	51	2	1	2	0	0	1.0646263323E+02	-2.8880288670E+01	1.0252038852E+03	1.4713960912E+03	1.0496642737E+03	0.000E+00	0.0
	1000022	2	5	5	0	0	-1.0646263323E+02	2.8880288670E+01	1.0639413679E+03	1.3667456011E+03	8.5079606278E+02	0.000E+00	0.0
	14	1	6	6	0	0	-1.0255687666E+02	1.5992304912E+02	9.0843338848E+02	9.8334608145E+02	3.2500000000E+02	0.000E+00	0.0
	-14	1	6	6	0	0	-3.9057565798E+00	-1.3104276045E+02	1.5550797940E+02	3.8339951964E+02	3.2500000000E+02	0.000E+00	0.0
	25	2	5	5	0	0	1.0646263323E+02	-2.8880288670E+01	7.7556878115E+01	1.8400045587E+02	1.2519079466E+02	0.000E+00	0.0
	-5	1	9	9	0	501	1.1476820468E+02	-3.4933484438E+01	1.0176489165E+02	1.5737107331E+02	4.1800000000E+00	0.000E+00	0.0
	5	1	9	9	501	0	-8.3055714455E+00	6.0531957675E+00	-2.4208013539E+01	2.6629382561E+01	4.1800000000E+00	0.000E+00	0.0
</event>
<event>
    11  -1  1.0000000E+00  1.0000000E+00  -1.0000000E+00  -1.0000000E+00
	2212	-1	0	0	0	0	0.0000000000E+00	0.0000000000E+00	6.5000000000E+03	6.5000000000E+03	9.3827000000E-01	0.000E+00	0.0
	2212	-1	0	0	0	0	0.0000000000E+00	0.0000000000E+00	-6.5000000000E+03	6.5000000000E+03	9.3827000000E-01	0.000E+00	0.0
	2212	1	0	0	0	0	0.0000000000E+00	0.0000000000E+00	5.3444990582E+03	5.3444990582E+03	9.3827000000E-01	0.000E+00	0.0
	2212	1	0	0	0	0	0.0000000000E+00	0.0000000000E+00	-6.2582366128E+03	6.2582366128E+03	9.3827000000E-01	0.000E+00	0.0
	51	2	1	2	0	0	8.7584440423E+00	-5.9102609596E+01	1.0956524147E+03	1.5236322815E+03	1.0570862247E+03	0.000E+00	0.0
	1000022	2	5	5	0	0	-8.7584440423E+00	5.9102609596E+01	5.7522693948E+02	1.0314341137E+03	8.5404945421E+02	0.000E+00	0.0
	14	1	6	6	0	0	1.0982483591E+02	3.4898351689E+00	-1.6800301565E+01	3.4348351294E+02	3.2500000000E+02	0.000E+00	0.0
	-14	1	6	6	0	0	-1.1858327995E+02	5.5612774427E+01	5.9202724105E+02	6.8795060077E+02	3.2500000000E+02	0.000E+00	0.0
	25	2	5	5	0	0	8.7584440423E+00	-5.9102609596E+01	3.3851061509E+02	3.6583021529E+02	1.2518978029E+02	0.000E+00	0.0
	-5	1	9	9	0	501	-3.3544899103E+01	-5.5024590459E+01	3.0439993517E+02	3.1117480416E+02	4.1800000000E+00	0.000E+00	0.0
	5	1	9	9	501	0	4.2303343145E+01	-4.0780191371E+00	3.4110679914E+01	5.4655411127E+01	4.1800000000E+00	0.000E+00	0.0
</event>
<event>
    11  -1  1.0000000E+00  1.0000000E+00  -1.0000000E+00  -1.0000000E+00
	2212	-1	0	0	0	0	0.0000000000E+00	0.0000000000E+00	6.5000000000E+03	6.5000000000E+03	9.3827000000E-01	0.000E+00	0.0
	2212	-1	0	0	0	0	0.0000000000E+00	0.0000000000E+00	-6.5000000000E+03	6.5000000000E+03	9.3827000000E-01	0.000E+00	0.0
	2212	1	0	0	0	0	0.0000000000E+00	0.0000000000E+00	4.8454067875E+03	4.8454067875E+03	9.3827000000E-01	0.000E+00	0.0
	2212	1	0	0	0	0	0.0000000000E+00	0.0000000000E+00	-6.3324353397E+03	6.3324353397E+03	9.3827000000E-01	0.000E+00	0.0
	51	2	1	2	0	0	3.9140665004E+01	-1.3829057494E+02	1.4971102521E+03	1.8360285346E+03	1.0530932523E+03	0.000E+00	0.0
	1000022	2	5	5	0	0	-3.9140665004E+01	1.3829057494E+02	1.2215900101E+03	1.4953809928E+03	8.5042688466E+02	0.000E+00	0.0
	14	1	6	6	0	0	-1.7600500156E+02	-6.7881534896E+01	2.7883158948E+02	4.6792918123E+02	3.2500000000E+02	0.000E+00	0.0
	-14	1	6	6	0	0	1.3686433656E+02	2.0617210984E+02	9.4275842062E+02	1.0274518116E+03	3.2500000000E+02	0.000E+00	0.0
	25	2	5	5	0	0	3.9140665004E+01	-1.3829057494E+02	2.6543854212E+02	3.2677687991E+02	1.2517681425E+02	0.000E+00	0.0
	-5	1	9	9	0	501	1.6454228633E+01	-1.5540303269E+02	2.4804826573E+02	2.9320003196E+02	4.1800000000E+00	0.000E+00	0.0
	5	1	9	9	501	0	2.2686436372E+01	1.7112457746E+01	1.7390276389E+01	3.3576847949E+01	4.1800000000E+00	0.000E+00	0.0
</event>
<event>
    11  -1  1.0000000E+00  1.0000000E+00  -1.0000000E+00  -1.0000000E+00
	2212	-1	0	0	0	0	0.0000000000E+00	0.0000000000E+00	6.5000000000E+03	6.5000000000E+03	9.3827000000E-01	0.000E+00	0.0
	2212	-1	0	0	0	0	0.0000000000E+00	0.0000000000E+00	-6.5000000000E+03	6.5000000000E+03	9.3827000000E-01	0.000E+00	0.0
	2212	1	0	0	0	0	0.0000000000E+00	0.0000000000E+00	5.9959253012E+03	5.9959253012E+03	9.3827000000E-01	0.000E+00	0.0
	2212	1	0	0	0	0	0.0000000000E+00	0.0000000000E+00	-5.9568288093E+03	5.9568288093E+03	9.3827000000E-01	0.000E+00	0.0
	51	2	1	2	0	0	2.3790482950E+01	6.8646331053E+01	-1.5990715669E+02	1.0611522143E+03	1.0465158466E+03	0.000E+00	0.0
	1000022	2	5	5	0	0	-2.3790482950E+01	-6.8646331053E+01	8.8395707424E+01	8.5436674142E+02	8.4667019666E+02	0.000E+00	0.0
	14	1	6	6	0	0	1.5389569779E+02	-1.7250114106E+02	2.1023344174E+02	4.5084767881E+02	3.2500000000E+02	0.000E+00	0.0
	-14	1	6	6	0	0	-1.7768618074E+02	1.0385481001E+02	-1.2183773432E+02	4.0351906261E+02	3.2500000000E+02	0.000E+00	0.0
	25	2	5	5	0	0	2.3790482950E+01	6.8646331053E+01	-1.2749219930E+02	1.9287914802E+02	1.2517906779E+02	0.000E+00	0.0
	-5	1	9	9	0	501	4.3982083815E+01	4.9725649911E+01	-1.4523551734E+02	1.5974320597E+02	4.1800000000E+00	0.000E+00	0.0
	5	1	9	9	501	0	-2.0191600865E+01	1.8920681143E+01	1.7743318044E+01	3.3135942051E+01	4.1800000000E+00	0.000E+00	0.0
</event>
<event>
    11  -1  1.0000000E+00  1.0000000E+00  -1.0000000E+00  -1.0000000E+00
	2212	-1	0	0	0	0	0.0000000000E+00	0.0000000000E+00	6.5000000000E+03	6.5000000000E+03	9.3827000000E-01	0.000E+00	0.0
	2212	-1	0	0	0	0	0.0000000000E+00	0.0000000000E+00	-6.5000000000E+03	6.5000000000E+03	9.3827000000E-01	0.000E+00	0.0
	2212	1	0	0	0	0	0.0000000000E+00	0.0000000000E+00	5.9751736127E+03	5.9751736127E+03	9.3827000000E-01	0.000E+00	0.0
	2212	1	0	0	0	0	0.0000000000E+00	0.0000000000E+00	-5.9735418881E+03	5.9735418881E+03	9.3827000000E-01	0.000E+00	0.0
	51	2	1	2	0	0	1.3844348572E+02	1.6520640132E+01	-2.5626540017E+01	1.0607981361E+03	1.0512832329E+03	0.000E+00	0.0
	1000022	2	5	5	0	0	-1.3844348572E+02	-1.6520640132E+01	2.2641582465E+01	8.6234472320E+02	8.5069750798E+02	0.000E+00	0.0
	14	1	6	6	0	0	1.2225237719E+02	-4.9577857140E+00	-1.8848627381E+02	3.9512314382E+02	3.2500000000E+02	0.000E+00	0.0
	-14	1	6	6	0	0	-2.6069586291E+02	-1.1562854418E+01	2.1112785627E+02	4.6722157938E+02	3.2500000000E+02	0.000E+00	0.0
	25	2	5	5	0	0	1.3844348572E+02	1.6520640132E+01	-2.4273307113E+01	1.8893977601E+02	1.2517793428E+02	0.000E+00	0.0
	-5	1	9	9	0	501	2.5238840905E+00	-7.0301124066E+00	-4.8129681294E+01	4.8884875911E+01	4.1800000000E+00	0.000E+00	0.0
	5	1	9	9	501	0	1.3591960163E+02	2.3550752539E+01	2.3856374181E+01	1.4005490010E+02	4.1800000000E+00	0.000E+00	0.0
</event>
<event>
    11  -1  1.0000000E+00  1.0000000E+00  -1.0000000E+00  -1.0000000E+00
	2212	-1	0	0	0	0	0.0000000000E+00	0.0000000000E+00	6.5000000000E+03	6.5000000000E+03	9.3827000000E-01	0.000E+00	0.0
	2212	-1	0	0	0	0	0.0000000000E+00	0.0000000000E+00	-6.5000000000E+03	6.5000000000E+03	9.3827000000E-01	0.000E+00	0.0
	2212	1	0	0	0	0	0.0000000000E+00	0.0000000000E+00	6.2686741423E+03	6.2686741423E+03	9.3827000000E-01	0.000E+00	0.0
	2212	1	0	0	0	0	0.0000000000E+00	0.0000000000E+00	-5.3070971506E+03	5.3070971506E+03	9.3827000000E-01	0.000E+00	0.0
	51	2	1	2	0	0	-1.0316947879E+02	3.0577396881E+01	-8.7893510821E+02	1.3740098041E+03	1.0506174846E+03	0.000E+00	0.0
	1000022	2	5	5	0	0	1.0316947879E+02	-3.0577396881E+01	-8.8840474919E+02	1.2436653084E+03	8.6363272418E+02	0.000E+00	0.0
	14	1	6	6	0	0	-8.6516331329E+01	2.0631826468E+02	-5.8398505937E+02	7.0478071164E+02	3.2500000000E+02	0.000E+00	0.0
	-14	1	6	6	0	0	1.8968581012E+02	-2.3689566156E+02	-3.0441968982E+02	5.3888459672E+02	3.2500000000E+02	0.000E+00	0.0
	25	2	5	5	0	0	-1.0316947879E+02	3.0577396881E+01	-7.3172242524E+01	1.8056339866E+02	1.2518005155E+02	0.000E+00	0.0
	-5	1	9	9	0	501	-6.9081476954E+00	3.6918274441E+01	-7.5002830851E+01	8.3985585239E+01	4.1800000000E+00	0.000E+00	0.0
	5	1	9	9	501	0	-9.6261331094E+01	-6.3408775594E+00	1.8305883276E+00	9.6577813424E+01	4.1800000000E+00	0.000E+00	0.0
</event>
<event>
    11  -1  1.0000000E+00  1.0000000E+00  -1.0000000E+00  -1.0000000E+00
	2212	-1	0	0	0	0	0.0000000000E+00	0.0000000000E+00	6.5000000000E+03	6.5000000000E+03	9.3827000000E-01	0.000E+00	0.0
	2212	-1	0	0	0	0	0.0000000000E+00	0.0000000000E+00	-6.5000000000E+03	6.5000000000E+03	9.3827000000E-01	0.000E+00	0.0
	2212	1	0	0	0	0	0.0000000000E+00	0.0000000000E+00	5.5665103324E+03	5.5665103324E+03	9.3827000000E-01	0.000E+00	0.0
	2212	1	0	0	0	0	0.0000000000E+00	0.0000000000E+00	-6.2048447743E+03	6.2048447743E+03	9.3827000000E-01	0.000E+00	0.0
	51	2	1	2	0	0	1.0677793269E+02	5.9149026027E+01	5.6538239580E+02	1.1986053570E+03	1.0498082749E+03	0.000E+00	0.0
	1000022	2	5	5	0	0	-1.0677793269E+02	-5.9149026027E+01	6.0300466934E+02	1.0502671880E+03	8.5120291402E+02	0.000E+00	0.0
	14	1	6	6	0	0	6.4649871062E+01	4.8655328211E+01	5.7611762457E+02	6.6639587644E+02	3.2500000000E+02	0.000E+00	0.0
	-14	1	6	6	0	0	-1.7142780375E+02	-1.0780435424E+02	2.6887044766E+01	3.8387131160E+02	3.2500000000E+02	0.000E+00	0.0
	25	2	5	5	0	0	1.0677793269E+02	5.9149026027E+01	3.5329772594E+01	1.7837770527E+02	1.2518098385E+02	0.000E+00	0.0
	-5	1	9	9	0	501	8.2627214433E+01	-2.9532790231E+00	6.5062087764E+01	1.0529257375E+02	4.1800000000E+00	0.000E+00	0.0
	5	1	9	9	501	0	2.4150718258E+01	6.2102305050E+01	-2.9732315170E+01	7.3085131527E+01	4.1800000000E+00	0.000E+00	0.0
</event>
<event>
    11  -1  1.0000000E+00  1.0000000E+00  -1.0000000E+00  -1.0000000E+00
	2212	-1	0	0	0	0	0.0000000000E+00	0.0000000000E+00	6.5000000000E+03	6.5000000000E+03	9.3827000000E-01	0.000E+00	0.0
	2212	-1	0	0	0	0	0.0000000000E+00	0.0000000000E+00	-6.5000000000E+03	6.5000000000E+03	9.3827000000E-01	0.000E+00	0.0
	2212	1	0	0	0	0	0.0000000000E+00	0.0000000000E+00	6.2269338324E+03	6.2269338324E+03	9.3827000000E-01	0.000E+00	0.0
	2212	1	0	0	0	0	0.0000000000E+00	0.0000000000E+00	-5.4399776449E+03	5.4399776449E+03	9.3827000000E-01	0.000E+00	0.0
	51	2	1	2	0	0	-8.2318131014E+01	1.5728242842E+02	-8.9266383085E+02	1.4093217234E+03	1.0760227545E+03	0.000E+00	0.0
	1000022	2	5	5	0	0	8.2318131014E+01	-1.5728242842E+02	-5.2566658111E+02	9.9330249310E+02	8.2389953958E+02	0.000E+00	0.0
	14	1	6	6	0	0	1.0639822545E+02	-3.1346324798E+02	-1.9413865539E+02	5.0288627714E+02	3.2500000000E+02	0.000E+00	0.0
	-14	1	6	6	0	0	-2.4080094439E+01	1.5618081956E+02	-3.3152792572E+02	4.9041621596E+02	3.2500000000E+02	0.000E+00	0.0
	25	2	5	5	0	0	-8.2318131014E+01	1.5728242842E+02	-2.6128960646E+02	3.3978602962E+02	1.2517288243E+02	0.000E+00	0.0
	-5	1	9	9	0	501	-5.9136664793E+01	1.8274260535E+01	-2.9996012008E+01	6.8908104438E+01	4.1800000000E+00	0.000E+00	0.0
	5	1	9	9	501	0	-2.3181466221E+01	1.3900816789E+02	-2.3129359445E+02	2.7087792518E+02	4.1800000000E+00	0.000E+00	0.0
</event>
<event>
    11  -1  1.0000000E+00  1.0000000E+00  -1.0000000E+00  -1.0000000E+00
	2212	-1	0	0	0	0	0.0000000000E+00	0.0000000000E+00	6.5000000000E+03	6.5000000000E+03	9.3827000000E-01	0.000E+00	0.0
	2212	-1	0	0	0	0	0.0000000000E+00	0.0000000000E+00	-6.5000000000E+03	6.5000000000E+03	9.3827000000E-01	0.000E+00	0.0
	2212	1	0	0	0	0	0.0000000000E+00	0.0000000000E+00	5.0515744421E+03	5.0515744421E+03	9.3827000000E-01	0.000E+00	0.0
	2212	1	0	0	0	0	0.0000000000E+00	0.0000000000E+00	-6.2995325318E+03	6.2995325318E+03	9.3827000000E-01	0.000E+00	0.0
	51	2	1	2	0	0	-5.2139999745E+01	5.3190800928E+01	1.0355151424E+03	1.4964251631E+03	1.0777053482E+03	0.000E+00	0.0
	1000022	2	5	5	0	0	5.2139999745E+01	-5.3190800928E+01	1.2342759658E+03	1.5025879927E+03	8.5368944891E+02	0.000E+00	0.0
	14	1	6	6	0	0	1.3782804576E+02	1.6836664574E+02	8.9277737172E+02	9.7468986506E+02	3.2500000000E+02	0.000E+00	0.0
	-14	1	6	6	0	0	-8.5688046018E+01	-2.2155744667E+02	3.4149859408E+02	5.2789812764E+02	3.2500000000E+02	0.000E+00	0.0
	25	2	5	5	0	0	-5.2139999745E+01	5.3190800928E+01	1.3682123884E+01	1.4630503331E+02	1.2518035542E+02	0.000E+00	0.0
	-5	1	9	9	0	501	-7.9514042198E+01	7.1502067861E+01	2.7266209097E+01	1.1043526237E+02	4.1800000000E+00	0.000E+00	0.0
	5	1	9	9	501	0	2.7374042453E+01	-1.8311266933E+01	-1.3584085213E+01	3.5869770950E+01	4.1800000000E+00	0.000E+00	0.0
</event>
<event>
    11  -1  1.0000000E+00  1.0000000E+00  -1.0000000E+00  -1.0000000E+00
	2212	-1	0	0	0	0	0.0000000000E+00	0.0000000000E+00	6.5000000000E+03	6.5000000000E+03	9.3827000000E-01	0.000E+00	0.0
	2212	-1	0	0	0	0	0.0000000000E+00	0.0000000000E+00	-6.5000000000E+03	6.5000000000E+03	9.3827000000E-01	0.000E+00	0.0
	2212	1	0	0	0	0	0.0000000000E+00	0.0000000000E+00	6.2461193791E+03	6.2461193791E+03	9.3827000000E-01	0.000E+00	0.0
	2212	1	0	0	0	0	0.0000000000E+00	0.0000000000E+00	-5.4176698246E+03	5.4176698246E+03	9.3827000000E-01	0.000E+00	0.0
	51	2	1	2	0	0	-9.1318014094E+01	-4.7338381933E+01	-9.5736920326E+02	1.4234698174E+03	1.0483943092E+03	0.000E+00	0.0
	1000022	2	5	5	0	0	9.1318014094E+01	4.7338381933E+01	-5.5835239394E+02	1.0212457977E+03	8.4888496361E+02	0.000E+00	0.0
	14	1	6	6	0	0	1.0177196381E+02	2.2648161650E+02	-4.9913908815E+02	6.4530325007E+02	3.2500000000E+02	0.000E+00	0.0
	-14	1	6	6	0	0	-1.0453949716E+01	-1.7914323457E+02	-5.9213305796E+01	3.7594254766E+02	3.2500000000E+02	0.000E+00	0.0
	25	2	5	5	0	0	-9.1318014094E+01	-4.7338381933E+01	-2.7009716057E+02	3.1496499849E+02	1.2518215538E+02	0.000E+00	0.0
	-5	1	9	9	0	501	-1.0869815175E+02	-2.0702990813E+01	-2.5786423624E+02	2.8063381612E+02	4.1800000000E+00	0.000E+00	0.0
	5	1	9	9	501	0	1.7380137653E+01	-2.6635391120E+01	-1.2232924327E+01	3.4331182365E+01	4.1800000000E+00	0.000E+00	0.0
</event>
<event>
    11  -1  1.0000000E+00  1.0000000E+00  -1.0000000E+00  -1.0000000E+00
	2212	-1	0	0	0	0	0.0000000000E+00	0.0000000000E+00	6.5000000000E+03	6.5000000000E+03	9.3827000000E-01	0.000E+00	0.0
	2212	-1	0	0	0	0	0.0000000000E+00	0.0000000000E+00	-6.5000000000E+03	6.5000000000E+03	9.3827000000E-01	0.000E+00	0.0
	2212	1	0	0	0	0	0.0000000000E+00	0.0000000000E+00	5.0626677175E+03	5.0626677175E+03	9.3827000000E-01	0.000E+00	0.0
	2212	1	0	0	0	0	0.0000000000E+00	0.0000000000E+00	-6.3264164361E+03	6.3264164361E+03	9.3827000000E-01	0.000E+00	0.0
	51	2	1	2	0	0	1.8166505983E+01	9.3887812274E+00	1.3952540924E+03	1.7161413677E+03	9.9899401416E+02	0.000E+00	0.0
	1000022	2	5	5	0	0	-1.8166505983E+01	-9.3887812274E+00	9.4744721385E+02	1.2701284516E+03	8.4566653558E+02	0.000E+00	0.0
	14	1	6	6	0	0	1.5976608381E+02	1.3315586782E+02	2.2735074664E+02	4.4784935934E+02	3.2500000000E+02	0.000E+00	0.0
	-14	1	6	6	0	0	-1.7793258979E+02	-1.4254464904E+02	7.2009646721E+02	8.2227909226E+02	3.2500000000E+02	0.000E+00	0.0
	25	2	5	5	0	0	1.8166505983E+01	9.3887812274E+00	3.1630150481E+02	3.4078739482E+02	1.2518480485E+02	0.000E+00	0.0
	-5	1	9	9	0	501	2.0557059608E+01	2.2726437700E+01	3.2343745453E+02	3.2491282379E+02	4.1800000000E+00	0.000E+00	0.0
	5	1	9	9	501	0	-2.3905536243E+00	-1.3337656472E+01	-7.1359497199E+00	1.5874571024E+01	4.1800000000E+00	0.000E+00	0.0
</event>
<event>
    11  -1  1.0000000E+00  1.0000000E+00  -1.0000000E+00  -1.0000000E+00
	2212	-1	0	0	0	0	0.0000000000E+00	0.0000000000E+00	6.5000000000E+03	6.5000000000E+03	9.3827000000E-01	0.000E+00	0.0
	2212	-1	0	0	0	0	0.0000000000E+00	0.0000000000E+00	-6.5000000000E+03	6.5000000000E+03	9.3827000000E-01	0.000E+00	0.0
	2212	1	0	0	0	0	0.0000000000E+00	0.0000000000E+00	5.9053344779E+03	5.9053344779E+03	9.3827000000E-01	0.000E+00	0.0
	2212	1	0	0	0	0	0.0000000000E+00	0.0000000000E+00	-6.0336825232E+03	6.0336825232E+03	9.3827000000E-01	0.000E+00	0.0
	51	2	1	2	0	0	6.6245953739E+01	9.1661193561E+00	6.2275715935E+00	1.0553307680E+03	1.0531911997E+03	0.000E+00	0.0
	1000022	2	5	5	0	0	-6.6245953739E+01	-9.1661193561E+00	2.2875513426E+02	8.8714256989E+02	8.5452939313E+02	0.000E+00	0.0
	14	1	6	6	0	0	-1.5813169623E+02	-9.1314046513E+01	3.5747706806E+02	5.1648692397E+02	3.2500000000E+02	0.000E+00	0.0
	-14	1	6	6	0	0	9.1885742492E+01	8.2147927157E+01	-1.2872193380E+02	3.7065564592E+02	3.2500000000E+02	0.000E+00	0.0
	25	2	5	5	0	0	6.6245953739E+01	9.1661193561E+00	-1.0040708898E+02	1.7384042895E+02	1.2516535898E+02	0.000E+00	0.0
	-5	1	9	9	0	501	4.4230395354E+01	5.5911881567E+01	-9.8888242812E+01	1.2197878234E+02	4.1800000000E+00	0.000E+00	0.0
	5	1	9	9	501	0	2.2015558385E+01	-4.6745762210E+01	-1.5188461655E+00	5.1861646612E+01	4.1800000000E+00	0.000E+00	0.0
</event>
<event>
    11  -1  1.0000000E+00  1.0000000E+00  -1.0000000E+00  -1.0000000E+00
	2212	-1	0	0	0	0	0.0000000000E+00	0.0000000000E+00	6.5000000000E+03	6.5000000000E+03	9.3827000000E-01	0.000E+00	0.0
	2212	-1	0	0	0	0	0.0000000000E+00	0.0000000000E+00	-6.5000000000E+03	6.5000000000E+03	9.3827000000E-01	0.000E+00	0.0
	2212	1	0	0	0	0	0.0000000000E+00	0.0000000000E+00	5.6915732636E+03	5.6915732636E+03	9.3827000000E-01	0.000E+00	0.0
	2212	1	0	0	0	0	0.0000000000E+00	0.0000000000E+00	-6.1572139079E+03	6.1572139079E+03	9.3827000000E-01	0.000E+00	0.0
	51	2	1	2	0	0	-1.3031392429E+02	7.6955816984E+01	4.1667600979E+02	1.1423627185E+03	1.0528389083E+03	0.000E+00	0.0
	1000022	2	5	5	0	0	1.3031392429E+02	-7.6955816984E+01	4.3031656315E+02	9.5167423365E+02	8.3522906190E+02	0.000E+00	0.0
	14	1	6	6	0	0	5.7595269293E+01	-2.9073556014E+02	3.0974159096E+02	5.3796768876E+02	3.2500000000E+02	0.000E+00	0.0
	-14	1	6	6	0	0	7.2718654996E+01	2.1377974316E+02	1.2057497219E+02	4.1370654489E+02	3.2500000000E+02	0.000E+00	0.0
	25	2	5	5	0	0	-1.3031392429E+02	7.6955816984E+01	3.5324081165E+01	1.9953859487E+02	1.2515567706E+02	0.000E+00	0.0
	-5	1	9	9	0	501	-4.9721295966E+01	-2.9637533683E+01	-8.9088148877E+00	5.8714819748E+01	4.1800000000E+00	0.000E+00	0.0
	5	1	9	9	501	0	-8.0592628324E+01	1.0659335067E+02	4.4232896052E+01	1.4082377512E+02	4.1800000000E+00	0.000E+00	0.0
</event>
<event>
    11  -1  1.0000000E+00  1.0000000E+00  -1.0000000E+00  -1.0000000E+00
	2212	-1	0	0	0	0	0.0000000000E+00	0.0000000000E+00	6.5000000000E+03	6.5000000000E+03	9.3827000000E-01	0.000E+00	0.0
	2212	-1	0	0	0	0	0.0000000000E+00	0.0000000000E+00	-6.5000000000E+03	6.5000000000E+03	9.3827000000E-01	0.000E+00	0.0
	2212	1	0	0	0	0	0.0000000000E+00	0.0000000000E+00	5.0555922937E+03	5.0555922937E+03	9.3827000000E-01	0.000E+00	0.0
	2212	1	0	0	0	0	0.0000000000E+00	0.0000000000E+00	-6.3130711085E+03	6.3130711085E+03	9.3827000000E-01	0.000E+00	0.0
	51	2	1	2	0	0	1.4257576918E+02	-8.0645300549E+00	1.4104139234E+03	1.7577447050E+03	1.0392334319E+03	0.000E+00	0.0
	1000022	2	5	5	0	0	-1.4257576918E+02	8.0645300549E+00	8.6789827387E+02	1.1979266154E+03	8.1325757013E+02	0.000E+00	0.0
	14	1	6	6	0	0	-7.8399696389E+00	-1.2260552151E+02	7.1059592163E+02	7.9098997646E+02	3.2500000000E+02	0.000E+00	0.0
	-14	1	6	6	0	0	-1.3473579954E+02	1.3067005156E+02	1.5730235224E+02	4.0693663889E+02	3.2500000000E+02	0.000E+00	0.0
	25	2	5	5	0	0	1.4257576918E+02	-8.0645300549E+00	3.8958054093E+02	4.3340998253E+02	1.2521313223E+02	0.000E+00	0.0
	-5	1	9	9	0	501	-2.0211599533E+01	1.0158731700E+01	7.8658669876E+01	8.1953446128E+01	4.1800000000E+00	0.000E+00	0.0
	5	1	9	9	501	0	1.6278736871E+02	-1.8223261755E+01	3.1092187106E+02	3.5145653640E+02	4.1800000000E+00	0.000E+00	0.0
</event>
<event>
    11  -1  1.0000000E+00  1.0000000E+00  -1.0000000E+00  -1.0000000E+00
	2212	-1	0	0	0	0	0.0000000000E+00	0.0000000000E+00	6.5000000000E+03	6.5000000000E+03	9.3827000000E-01	0.000E+00	0.0
	2212	-1	0	0	0	0	0.0000000000E+00	0.0000000000E+00	-6.5000000000E+03	6.5000000000E+03	9.3827000000E-01	0.000E+00	0.0
	2212	1	0	0	0	0	0.0000000000E+00	0.0000000000E+00	6.2825470211E+03	6.2825470211E+03	9.3827000000E-01	0.000E+00	0.0
	2212	1	0	0	0	0	0.0000000000E+00	0.0000000000E+00	-5.2407990143E+03	5.2407990143E+03	9.3827000000E-01	0.000E+00	0.0
	51	2	1	2	0	0	6.3386505460E+01	1.2099323279E+02	-1.0829938043E+03	1.5122171845E+03	1.0465505347E+03	0.000E+00	0.0
	1000022	2	5	5	0	0	-6.3386505460E+01	-1.2099323279E+02	-8.2376470845E+02	1.1905693810E+03	8.4865183940E+02	0.000E+00	0.0
	14	1	6	6	0	0	4.2606072062E+01	1.4586322104E+02	-6.0854401935E+02	7.0642917558E+02	3.2500000000E+02	0.000E+00	0.0
	-14	1	6	6	0	0	-1.0599257752E+02	-2.6685645383E+02	-2.1522068911E+02	4.8414020537E+02	3.2500000000E+02	0.000E+00	0.0
	25	2	5	5	0	0	6.3386505460E+01	1.2099323279E+02	-2.1798329838E+02	2.8608458371E+02	1.2518170477E+02	0.000E+00	0.0
	-5	1	9	9	0	501	6.8537747947E+00	-4.7607482935E+00	-1.1133302545E+02	1.1172356023E+02	4.1800000000E+00	0.000E+00	0.0
	5	1	9	9	501	0	5.6532730665E+01	1.2575398108E+02	-1.0665027292E+02	1.7436102348E+02	4.1800000000E+00	0.000E+00	0.0
</event>
<event>
    11  -1  1.0000000E+00  1.0000000E+00  -1.0000000E+00  -1.0000000E+00
	2212	-1	0	0	0	0	0.0000000000E+00	0.0000000000E+00	6.5000000000E+03	6.5000000000E+03	9.3827000000E-01	0.000E+00	0.0
	2212	-1	0	0	0	0	0.0000000000E+00	0.0000000000E+00	-6.5000000000E+03	6.5000000000E+03	9.3827000000E-01	0.000E+00	0.0
	2212	1	0	0	0	0	0.0000000000E+00	0.0000000000E+00	6.0031706219E+03	6.0031706219E+03	9.3827000000E-01	0.000E+00	0.0
	2212	1	0	0	0	0	0.0000000000E+00	0.0000000000E+00	-5.9440461067E+03	5.9440461067E+03	9.3827000000E-01	0.000E+00	0.0
	51	2	1	2	0	0	7.5525042395E+00	1.5590376180E+02	-5.9512865810E+01	1.0643127890E+03	1.0511217381E+03	0.000E+00	0.0
	1000022	2	5	5	0	0	-7.5525042395E+00	-1.5590376180E+02	-4.8130116081E+01	8.5240027528E+02	8.3660426604E+02	0.000E+00	0.0
	14	1	6	6	0	0	-1.1000350023E+02	-2.9432816014E+02	-1.4010025668E+02	4.7326833598E+02	3.2500000000E+02	0.000E+00	0.0
	-14	1	6	6	0	0	1.0245099599E+02	1.3842439834E+02	9.1970140600E+01	3.7913193930E+02	3.2500000000E+02	0.000E+00	0.0
	25	2	5	5	0	0	7.5525042395E+00	1.5590376180E+02	-1.0994399078E+01	2.0038299617E+02	1.2517765407E+02	0.000E+00	0.0
	-5	1	9	9	0	501	-4.8299922531E+01	2.6372378263E+01	-2.0662581118E+01	5.8930463346E+01	4.1800000000E+00	0.000E+00	0.0
	5	1	9	9	501	0	5.5852426771E+01	1.2953138354E+02	9.6681820402E+00	1.4145253282E+02	4.1800000000E+00	0.000E+00	0.0
</event>
<event>
    11  -1  1.0000000E+00  1.0000000E+00  -1.0000000E+00  -1.0000000E+00
	2212	-1	0	0	0	0	0.0000000000E+00	0.0000000000E+00	6.5000000000E+03	6.5000000000E+03	9.3827000000E-01	0.000E+00	0.0
	2212	-1	0	0	0	0	0.0000000000E+00	0.0000000000E+00	-6.5000000000E+03	6.5000000000E+03	9.3827000000E-01	0.000E+00	0.0
	2212	1	0	0	0	0	0.0000000000E+00	0.0000000000E+00	5.9743726020E+03	5.9743726020E+03	9.3827000000E-01	0.000E+00	0.0
	2212	1	0	0	0	0	0.0000000000E+00	0.0000000000E+00	-5.9796686677E+03	5.9796686677E+03	9.3827000000E-01	0.000E+00	0.0
	51	2	1	2	0	0	-1.6887383065E+01	1.3026084577E+02	4.6280552279E+01	1.0551760888E+03	1.0459453223E+03	0.000E+00	0.0
	1000022	2	5	5	0	0	1.6887383065E+01	-1.3026084577E+02	-3.6584581177E+01	8.5975212172E+02	8.4887113720E+02	0.000E+00	0.0
	14	1	6	6	0	0	-2.2497083205E+01	1.5731202245E+02	1.4225430796E+02	3.8873445859E+02	3.2500000000E+02	0.000E+00	0.0
	-14	1	6	6	0	0	3.9384466270E+01	-2.8757286821E+02	-1.7883888914E+02	4.7101766313E+02	3.2500000000E+02	0.000E+00	0.0
	25	2	5	5	0	0	-1.6887383065E+01	1.3026084577E+02	4.1880646882E+01	1.8620660858E+02	1.2516325678E+02	0.000E+00	0.0
	-5	1	9	9	0	501	3.7130958768E+01	1.4247894044E+01	4.2237600545E+01	5.8165263547E+01	4.1800000000E+00	0.000E+00	0.0
	5	1	9	9	501	0	-5.4018341833E+01	1.1601295172E+02	-3.5695366348E-01	1.2804134503E+02	4.1800000000E+00	0.000E+00	0.0
</event>
<event>
    11  -1  1.0000000E+00  1.0000000E+00  -1.0000000E+00  -1.0000000E+00
	2212	-1	0	0	0	0	0.0000000000E+00	0.0000000000E+00	6.5000000000E+03	6.5000000000E+03	9.3827000000E-01	0.000E+00	0.0
	2212	-1	0	0	0	0	0.0000000000E+00	0.0000000000E+00	-6.5000000000E+03	6.5000000000E+03	9.3827000000E-01	0.000E+00	0.0
	2212	1	0	0	0	0	0.0000000000E+00	0.0000000000E+00	6.2533011016E+03	6.2533011016E+03	9.3827000000E-01	0.000E+00	0.0
	2212	1	0	0	0	0	0.0000000000E+00	0.0000000000E+00	-5.3908579362E+03	5.3908579362E+03	9.3827000000E-01	0.000E+00	0.0
	51	2	1	2	0	0	-3.3462321657E+01	8.1062992331E+01	-9.9635802908E+02	1.4473827272E+03	1.0461818681E+03	0.000E+00	0.0
	1000022	2	5	5	0	0	3.3462321657E+01	-8.1062992331E+01	-5.8560879463E+02	1.0396164241E+03	8.5450202644E+02	0.000E+00	0.0
	14	1	6	6	0	0	-1.3001951490E+01	2.2410276829E+02	-3.7395077643E+02	5.4392580808E+02	3.2500000000E+02	0.000E+00	0.0
	-14	1	6	6	0	0	4.6464273147E+01	-3.0516576062E+02	-2.1165801820E+02	4.9569061601E+02	3.2500000000E+02	0.000E+00	0.0
	25	2	5	5	0	0	-3.3462321657E+01	8.1062992331E+01	-2.7683437076E+02	3.1622453805E+02	1.2517888773E+02	0.000E+00	0.0
	-5	1	9	9	0	501	1.7285586323E+01	3.4766417250E+01	-2.2925846402E+02	2.3256055338E+02	4.1800000000E+00	0.000E+00	0.0
	5	1	9	9	501	0	-5.0747907981E+01	4.6296575081E+01	-4.7575906739E+01	8.3663984669E+01	4.1800000000E+00	0.000E+00	0.0
</event>
<event>
    11  -1  1.0000000E+00  1.0000000E+00  -1.0000000E+00  -1.0000000E+00
	2212	-1	0	0	0	0	0.0000000000E+00	0.0000000000E+00	6.5000000000E+03	6.5000000000E+03	9.3827000000E-01	0.000E+00	0.0
	2212	-1	0	0	0	0	0.0000000000E+00	0.0000000000E+00	-6.5000000000E+03	6.5000000000E+03	9.3827000000E-01	0.000E+00	0.0
	2212	1	0	0	0	0	0.0000000000E+00	0.0000000000E+00	5.9815508084E+03	5.9815508084E+03	9.3827000000E-01	0.000E+00	0.0
	2212	1	0	0	0	0	0.0000000000E+00	0.0000000000E+00	-5.9704388844E+03	5.9704388844E+03	9.3827000000E-01	0.000E+00	0.0
	51	2	1	2	0	0	7.4316727505E+01	4.3131662867E+01	-8.5887731163E+01	1.0549702118E+03	1.0479513963E+03	0.000E+00	0.0
	1000022	2	5	5	0	0	-7.4316727505E+01	-4.3131662867E+01	6.5392783880E+01	8.7799081960E+02	8.7132562615E+02	0.000E+00	0.0
	14	1	6	6	0	0	-7.1493053439E+01	2.4969645246E+02	1.2977964524E+02	4.3580652976E+02	3.2500000000E+02	0.000E+00	0.0
	-14	1	6	6	0	0	-2.8236740656E+00	-2.9282811533E+02	-6.4386861364E+01	4.4218428984E+02	3.2500000000E+02	0.000E+00	0.0
	25	2	5	5	0	0	7.4316727505E+01	4.3131662867E+01	-7.6504707839E+01	1.7001948755E+02	1.2518122661E+02	0.000E+00	0.0
	-5	1	9	9	0	501	5.9772840531E+01	2.3392185209E+01	2.2341024187E+01	6.8092441252E+01	4.1800000000E+00	0.000E+00	0.0
	5	1	9	9	501	0	1.4543886974E+01	1.9739477658E+01	-9.8845732027E+01	1.0192704630E+02	4.1800000000E+00	0.000E+00	0.0
</event>
<event>
    11  -1  1.0000000E+00  1.0000000E+00  -1.0000000E+00  -1.0000000E+00
	2212	-1	0	0	0	0	0.0000000000E+00	0.0000000000E+00	6.5000000000E+03	6.5000000000E+03	9.3827000000E-01	0.000E+00	0.0
	2212	-1	0	0	0	0	0.0000000000E+00	0.0000000000E+00	-6.5000000000E+03	6.5000000000E+03	9.3827000000E-01	0.000E+00	0.0
	2212	1	0	0	0	0	0.0000000000E+00	0.0000000000E+00	6.0610211946E+03	6.0610211946E+03	9.3827000000E-01	0.000E+00	0.0
	2212	1	0	0	0	0	0.0000000000E+00	0.0000000000E+00	-5.7384993579E+03	5.7384993579E+03	9.3827000000E-01	0.000E+00	0.0
	51	2	1	2	0	0	7.9947064992E+01	9.4771788001E+01	-1.0719686933E+02	1.1679019490E+03	1.1563436205E+03	0.000E+00	0.0
	1000022	2	5	5	0	0	-7.9947064992E+01	-9.4771788001E+01	-4.6775007378E+02	9.7214535938E+02	8.4315078322E+02	0.000E+00	0.0
	14	1	6	6	0	0	1.5522200006E+02	7.4830580221E+01	-3.7801155772E+02	5.2745731847E+02	3.2500000000E+02	0.000E+00	0.0
	-14	1	6	6	0	0	-2.3516906505E+02	-1.6960236822E+02	-8.9738516052E+01	4.4468804091E+02	3.2500000000E+02	0.000E+00	0.0
	25	2	5	5	0	0	7.9947064992E+01	9.4771788001E+01	1.4522823705E+02	2.2833408807E+02	1.2518781864E+02	0.000E+00	0.0
	-5	1	9	9	0	501	1.8141970973E+00	9.7777860258E+01	7.9461676316E+01	1.2607708622E+02	4.1800000000E+00	0.000E+00	0.0
	5	1	9	9	501	0	7.8132867894E+01	-3.0060722579E+00	6.5766560729E+01	1.0225700184E+02	4.1800000000E+00	0.000E+00	0.0
</event>
<event>
    11  -1  1.0000000E+00  1.0000000E+00  -1.0000000E+00  -1.0000000E+00
	2212	-1	0	0	0	0	0.0000000000E+00	0.0000000000E+00	6.5000000000E+03	6.5000000000E+03	9.3827000000E-01	0.000E+00	0.0
	2212	-1	0	0	0	0	0.0000000000E+00	0.0000000000E+00	-6.5000000000E+03	6.5000000000E+03	9.3827000000E-01	0.000E+00	0.0
	2212	1	0	0	0	0	0.0000000000E+00	0.0000000000E+00	5.8251721964E+03	5.8251721964E+03	9.3827000000E-01	0.000E+00	0.0
	2212	1	0	0	0	0	0.0000000000E+00	0.0000000000E+00	-6.0914456018E+03	6.0914456018E+03	9.3827000000E-01	0.000E+00	0.0
	51	2	1	2	0	0	1.1354880966E+02	-3.4359447021E+01	3.3570845949E+02	1.1088685866E+03	1.0501502125E+03	0.000E+00	0.0
	1000022	2	5	5	0	0	-1.1354880966E+02	3.4359447021E+01	1.5228535071E+02	8.7662376017E+02	8.5510495560E+02	0.000E+00	0.0
	14	1	6	6	0	0	8.5003422888E+01	-1.3287471212E+02	2.6221820445E+02	4.4639070081E+02	3.2500000000E+02	0.000E+00	0.0
	-14	1	6	6	0	0	-1.9855223255E+02	1.6723415914E+02	-1.0993285374E+02	4.3023305936E+02	3.2500000000E+02	0.000E+00	0.0
	25	2	5	5	0	0	1.1354880966E+02	-3.4359447021E+01	1.1398805469E+02	2.0675844166E+02	1.2522728461E+02	0.000E+00	0.0
	-5	1	9	9	0	501	2.9186897197E+01	-2.8567259744E+01	1.1497937132E+02	1.2208886733E+02	4.1800000000E+00	0.000E+00	0.0
	5	1	9	9	501	0	8.4361912467E+01	-5.7921872763E+00	-9.9131662899E-01	8.4669574330E+01	4.1800000000E+00	0.000E+00	0.0
</event>
<event>
    11  -1  1.0000000E+00  1.0000000E+00  -1.0000000E+00  -1.0000000E+00
	2212	-1	0	0	0	0	0.0000000000E+00	0.0000000000E+00	6.5000000000E+03	6.5000000000E+03	9.3827000000E-01	0.000E+00	0.0
	2212	-1	0	0	0	0	0.0000000000E+00	0.0000000000E+00	-6.5000000000E+03	6.5000000000E+03	9.3827000000E-01	0.000E+00	0.0
	2212	1	0	0	0	0	0.0000000000E+00	0.0000000000E+00	6.0980055431E+03	6.0980055431E+03	9.3827000000E-01	0.000E+00	0.0
	2212	1	0	0	0	0	0.0000000000E+00	0.0000000000E+00	-5.8034084603E+03	5.8034084603E+03	9.3827000000E-01	0.000E+00	0.0
	51	2	1	2	0	0	-9.9488731680E+00	-1.2099904827E+02	-3.9432433572E+02	1.1359292153E+03	1.0583495409E+03	0.000E+00	0.0
	1000022	2	5	5	0	0	9.9488731680E+00	1.2099904827E+02	-1.4290481346E+02	8.6745932709E+02	8.4694990919E+02	0.000E+00	0.0
	14	1	6	6	0	0	3.8489145309E+01	1.6768008261E+02	1.7704431673E+02	4.0812708131E+02	3.2500000000E+02	0.000E+00	0.0
	-14	1	6	6	0	0	-2.8540272141E+01	-4.6681034340E+01	-3.1994913020E+02	4.5933224578E+02	3.2500000000E+02	0.000E+00	0.0
	25	2	5	5	0	0	-9.9488731680E+00	-1.2099904827E+02	-1.5169226931E+02	2.3112666952E+02	1.2517684704E+02	0.000E+00	0.0
	-5	1	9	9	0	501	-5.2900228920E+01	-8.3746801704E+01	-4.2339379044E+01	1.0780564194E+02	4.1800000000E+00	0.000E+00	0.0
	5	1	9	9	501	0	4.2951355752E+01	-3.7252246564E+01	-1.0935289027E+02	1.2332102758E+02	4.1800000000E+00	0.000E+00	0.0
</event>
<event>
    11  -1  1.0000000E+00  1.0000000E+00  -1.0000000E+00  -1.0000000E+00
	2212	-1	0	0	0	0	0.0000000000E+00	0.0000000000E+00	6.5000000000E+03	6.5000000000E+03	9.3827000000E-01	0.000E+00	0.0
	2212	-1	0	0	0	0	0.0000000000E+00	0.0000000000E+00	-6.5000000000E+03	6.5000000000E+03	9.3827000000E-01	0.000E+00	0.0
	2212	1	0	0	0	0	0.0000000000E+00	0.0000000000E+00	6.2159031474E+03	6.2159031474E+03	9.3827000000E-01	0.000E+00	0.0
	2212	1	0	0	0	0	0.0000000000E+00	0.0000000000E+00	-5.5315821285E+03	5.5315821285E+03	9.3827000000E-01	0.000E+00	0.0
	51	2	1	2	0	0	7.2468169346E+01	-1.2054866250E+02	-6.4646240629E+02	1.2402399508E+03	1.0490461749E+03	0.000E+00	0.0
	1000022	2	5	5	0	0	-7.2468169346E+01	1.2054866250E+02	-6.0353402722E+02	1.0476321076E+03	8.4468698062E+02	0.000E+00	0.0
	14	1	6	6	0	0	2.2441756724E+02	-1.5231658369E+01	-2.9500855284E+02	4.9320411003E+02	3.2500000000E+02	0.000E+00	0.0
	-14	1	6	6	0	0	-2.9688573659E+02	1.3578032087E+02	-3.0852547438E+02	5.5442799755E+02	3.2500000000E+02	0.000E+00	0.0
	25	2	5	5	0	0	7.2468169346E+01	-1.2054866250E+02	-8.0786991650E+01	2.0488261650E+02	1.2516682039E+02	0.000E+00	0.0
	-5	1	9	9	0	501	6.4020055998E+01	-8.2486324981E+01	1.0994422925E+01	1.0507573989E+02	4.1800000000E+00	0.000E+00	0.0
	5	1	9	9	501	0	8.4481133485E+00	-3.8062337517E+01	-9.1781414575E+01	9.9806876606E+01	4.1800000000E+00	0.000E+00	0.0
</event>
<event>
    11  -1  1.0000000E+00  1.0000000E+00  -1.0000000E+00  -1.0000000E+00
	2212	-1	0	0	0	0	0.0000000000E+00	0.0000000000E+00	6.5000000000E+03	6.5000000000E+03	9.3827000000E-01	0.000E+00	0.0
	2212	-1	0	0	0	0	0.0000000000E+00	0.0000000000E+00	-6.5000000000E+03	6.5000000000E+03	9.3827000000E-01	0.000E+00	0.0
	2212	1	0	0	0	0	0.0000000000E+00	0.0000000000E+00	5.2602595575E+03	5.2602595575E+03	9.3827000000E-01	0.000E+00	0.0
	2212	1	0	0	0	0	0.0000000000E+00	0.0000000000E+00	-6.2796530628E+03	6.2796530628E+03	9.3827000000E-01	0.000E+00	0.0
	51	2	1	2	0	0	5.8848204961E+00	-1.2396354958E+02	1.1005793009E+03	1.5229472835E+03	1.0453191082E+03	0.000E+00	0.0
	1000022	2	5	5	0	0	-5.8848204961E+00	1.2396354958E+02	7.6737937465E+02	1.1525483656E+03	8.5093774017E+02	0.000E+00	0.0
	14	1	6	6	0	0	-1.9348048959E+02	2.6180504228E+02	3.9924693818E+02	6.0909744513E+02	3.2500000000E+02	0.000E+00	0.0
	-14	1	6	6	0	0	1.8759566909E+02	-1.3784149270E+02	3.6813243647E+02	5.4345092046E+02	3.2500000000E+02	0.000E+00	0.0
	25	2	5	5	0	0	5.8848204961E+00	-1.2396354958E+02	2.5201413065E+02	3.0753901418E+02	1.2517000624E+02	0.000E+00	0.0
	-5	1	9	9	0	501	-3.7805373304E+01	-1.9438290602E+01	1.4674247899E+02	1.5283298379E+02	4.1800000000E+00	0.000E+00	0.0
	5	1	9	9	501	0	4.3690193800E+01	-1.0452525898E+02	1.0527165166E+02	1.5470603040E+02	4.1800000000E+00	0.000E+00	0.0
</event>
<event>
    11  -1  1.0000000E+00  1.0000000E+00  -1.0000000E+00  -1.0000000E+00
	2212	-1	0	0	0	0	0.0000000000E+00	0.0000000000E+00	6.5000000000E+03	6.5000000000E+03	9.3827000000E-01	0.000E+00	0.0
	2212	-1	0	0	0	0	0.0000000000E+00	0.0000000000E+00	-6.5000000000E+03	6.5000000000E+03	9.3827000000E-01	0.000E+00	0.0
	2212	1	0	0	0	0	0.0000000000E+00	0.0000000000E+00	6.2554126885E+03	6.2554126885E+03	9.3827000000E-01	0.000E+00	0.0
	2212	1	0	0	0	0	0.0000000000E+00	0.0000000000E+00	-5.3752878160E+03	5.3752878160E+03	9.3827000000E-01	0.000E+00	0.0
	51	2	1	2	0	0	6.2728405693E+01	1.1951324586E+02	-9.4302937412E+02	1.4169982309E+03	1.0489810851E+03	0.000E+00	0.0
	1000022	2	5	5	0	0	-6.2728405693E+01	-1.1951324586E+02	-6.6674105328E+02	1.0874848292E+03	8.4844643486E+02	0.000E+00	0.0
	14	1	6	6	0	0	-7.4720814296E+01	2.0950870479E+02	-2.6415526209E+02	4.7421524645E+02	3.2500000000E+02	0.000E+00	0.0
	-14	1	6	6	0	0	1.1992408603E+01	-3.2902195066E+02	-4.0258579119E+02	6.1326958277E+02	3.2500000000E+02	0.000E+00	0.0
	25	2	5	5	0	0	6.2728405693E+01	1.1951324586E+02	-2.1338381927E+02	2.8181466625E+02	1.2517421048E+02	0.000E+00	0.0
	-5	1	9	9	0	501	-1.4863824823E+01	-1.1840376375E+00	-9.3548923095E+01	9.4821983979E+01	4.1800000000E+00	0.000E+00	0.0
	5	1	9	9	501	0	7.7592230516E+01	1.2069728350E+02	-1.1983489617E+02	1.8699268227E+02	4.1800000000E+00	0.000E+00	0.0
</event>
<event>
    11  -1  1.0000000E+00  1.0000000E+00  -1.0000000E+00  -1.0000000E+00
	2212	-1	0	0	0	0	0.0000000000E+00	0.0000000000E+00	6.5000000000E+03	6.5000000000E+03	9.3827000000E-01	0.000E+00	0.0
	2212	-1	0	0	0	0	0.0000000000E+00	0.0000000000E+00	-6.5000000000E+03	6.5000000000E+03	9.3827000000E-01	0.000E+00	0.0
	2212	1	0	0	0	0	0.0000000000E+00	0.0000000000E+00	5.5381313541E+03	5.5381313541E+03	9.3827000000E-01	0.000E+00	0.0
	2212	1	0	0	0	0	0.0000000000E+00	0.0000000000E+00	-6.2294130623E+03	6.2294130623E+03	9.3827000000E-01	0.000E+00	0.0
	51	2	1	2	0	0	-2.8008816308E+01	8.0394572778E+01	5.9982925305E+02	1.1866420182E+03	1.0203314979E+03	0.000E+00	0.0
	1000022	2	5	5	0	0	2.8008816308E+01	-8.0394572778E+01	6.7138876244E+02	1.0797563583E+03	8.4134602980E+02	0.000E+00	0.0
	14	1	6	6	0	0	-3.6979649567E+01	-7.5323311628E+01	6.6876501479E+02	7.4827317256E+02	3.2500000000E+02	0.000E+00	0.0
	-14	1	6	6	0	0	6.4988465875E+01	-5.0712611502E+00	2.6237476439E+00	3.3148318575E+02	3.2500000000E+02	0.000E+00	0.0
	25	2	5	5	0	0	-2.8008816308E+01	8.0394572778E+01	1.9892945754E+01	1.5269922531E+02	1.2519402141E+02	0.000E+00	0.0
	-5	1	9	9	0	501	-2.0480205777E+01	5.1876612073E+01	7.2907045230E+01	9.1888690017E+01	4.1800000000E+00	0.000E+00	0.0
	5	1	9	9	501	0	-7.5286105312E+00	2.8517960705E+01	-5.3014099476E+01	6.0810535292E+01	4.1800000000E+00	0.000E+00	0.0
</event>
<event>
    11  -1  1.0000000E+00  1.0000000E+00  -1.0000000E+00  -1.0000000E+00
	2212	-1	0	0	0	0	0.0000000000E+00	0.0000000000E+00	6.5000000000E+03	6.5000000000E+03	9.3827000000E-01	0.000E+00	0.0
	2212	-1	0	0	0	0	0.0000000000E+00	0.0000000000E+00	-6.5000000000E+03	6.5000000000E+03	9.3827000000E-01	0.000E+00	0.0
	2212	1	0	0	0	0	0.0000000000E+00	0.0000000000E+00	6.2924426074E+03	6.2924426074E+03	9.3827000000E-01	0.000E+00	0.0
	2212	1	0	0	0	0	0.0000000000E+00	0.0000000000E+00	-5.1914622117E+03	5.1914622117E+03	9.3827000000E-01	0.000E+00	0.0
	51	2	1	2	0	0	1.1264788955E+02	6.9692699155E+01	-1.0476155257E+03	1.4837222365E+03	1.0422987892E+03	0.000E+00	0.0
	1000022	2	5	5	0	0	-1.1264788955E+02	-6.9692699155E+01	-9.6623989122E+02	1.2894393063E+03	8.4349723058E+02	0.000E+00	0.0
	14	1	6	6	0	0	1.3074560337E+01	-2.7435334174E+02	-3.4254736033E+02	5.4626403352E+02	3.2500000000E+02	0.000E+00	0.0
	-14	1	6	6	0	0	-1.2572244989E+02	2.0466064258E+02	-6.2369253089E+02	7.4317527281E+02	3.2500000000E+02	0.000E+00	0.0
	25	2	5	5	0	0	1.1264788955E+02	6.9692699155E+01	-1.3474050446E+02	2.2665587462E+02	1.2518491372E+02	0.000E+00	0.0
	-5	1	9	9	0	501	-5.4757858984E+00	-1.7784893388E+01	8.9422067904E+00	2.1064712823E+01	4.1800000000E+00	0.000E+00	0.0
	5	1	9	9	501	0	1.1812367545E+02	8.7477592542E+01	-1.4368271125E+02	2.0559116180E+02	4.1800000000E+00	0.000E+00	0.0
</event>
<event>
    11  -1  1.0000000E+00  1.0000000E+00  -1.0000000E+00  -1.0000000E+00
	2212	-1	0	0	0	0	0.0000000000E+00	0.0000000000E+00	6.5000000000E+03	6.5000000000E+03	9.3827000000E-01	0.000E+00	0.0
	2212	-1	0	0	0	0	0.0000000000E+00	0.0000000000E+00	-6.5000000000E+03	6.5000000000E+03	9.3827000000E-01	0.000E+00	0.0
	2212	1	0	0	0	0	0.0000000000E+00	0.0000000000E+00	5.6822362860E+03	5.6822362860E+03	9.3827000000E-01	0.000E+00	0.0
	2212	1	0	0	0	0	0.0000000000E+00	0.0000000000E+00	-6.1652348662E+03	6.1652348662E+03	9.3827000000E-01	0.000E+00	0.0
	51	2	1	2	0	0	-1.3731329996E+01	1.0259343241E+02	5.6350665791E+02	1.1930166939E+03	1.0464392560E+03	0.000E+00	0.0
	1000022	2	5	5	0	0	1.3731329996E+01	-1.0259343241E+02	3.2429125360E+02	9.2544233678E+02	8.6056071242E+02	0.000E+00	0.0
	14	1	6	6	0	0	-1.0685580620E+02	-1.1607460462E+02	-1.0241754713E+02	3.7550743151E+02	3.2500000000E+02	0.000E+00	0.0
	-14	1	6	6	0	0	1.2058713620E+02	1.3481172216E+01	4.2670880073E+02	5.4993490528E+02	3.2500000000E+02	0.000E+00	0.0
	25	2	5	5	0	0	-1.3731329996E+01	1.0259343241E+02	1.5870732661E+02	2.2708651100E+02	1.2516511561E+02	0.000E+00	0.0
	-5	1	9	9	0	501	-1.8217200979E+01	-2.5230242151E+01	1.5447955190E+01	3.4993474392E+01	4.1800000000E+00	0.000E+00	0.0
	5	1	9	9	501	0	4.4858709838E+00	1.2782367456E+02	1.4325937142E+02	1.9209303661E+02	4.1800000000E+00	0.000E+00	0.0
</event>
<event>
    11  -1  1.0000000E+00  1.0000000E+00  -1.0000000E+00  -1.0000000E+00
	2212	-1	0	0	0	0	0.0000000000E+00	0.0000000000E+00	6.5000000000E+03	6.5000000000E+03	9.3827000000E-01	0.000E+00	0.0
	2212	-1	0	0	0	0	0.0000000000E+00	0.0000000000E+00	-6.5000000000E+03	6.5000000000E+03	9.3827000000E-01	0.000E+00	0.0
	2212	1	0	0	0	0	0.0000000000E+00	0.0000000000E+00	4.9330042726E+03	4.9330042726E+03	9.3827000000E-01	0.000E+00	0.0
	2212	1	0	0	0	0	0.0000000000E+00	0.0000000000E+00	-6.3257836853E+03	6.3257836853E+03	9.3827000000E-01	0.000E+00	0.0
	51	2	1	2	0	0	7.2388740743E+01	1.1345585801E+02	1.4278395969E+03	1.7744923667E+03	1.0449808053E+03	0.000E+00	0.0
	1000022	2	5	5	0	0	-7.2388740743E+01	-1.1345585801E+02	1.1236532488E+03	1.4153092832E+03	8.4993610467E+02	0.000E+00	0.0
	14	1	6	6	0	0	-3.0193768471E+02	-1.1245488030E+02	5.2470362123E+02	6.9624087476E+02	3.2500000000E+02	0.000E+00	0.0
	-14	1	6	6	0	0	2.2954894396E+02	-1.0009777115E+00	5.9894962757E+02	7.1906840843E+02	3.2500000000E+02	0.000E+00	0.0
	25	2	5	5	0	0	7.2388740743E+01	1.1345585801E+02	2.6912616387E+02	3.2590275897E+02	1.2518528157E+02	0.000E+00	0.0
	-5	1	9	9	0	501	1.0091888980E+02	7.4857651113E+01	2.3611295889E+02	2.6749783552E+02	4.1800000000E+00	0.000E+00	0.0
	5	1	9	9	501	0	-2.8530149058E+01	3.8598206896E+01	3.3013204982E+01	5.8404923457E+01	4.1800000000E+00	0.000E+00	0.0
</event>
<event>
    11  -1  1.0000000E+00  1.0000000E+00  -1.0000000E+00  -1.0000000E+00
	2212	-1	0	0	0	0	0.0000000000E+00	0.0000000000E+00	6.5000000000E+03	6.5000000000E+03	9.3827000000E-01	0.000E+00	0.0
	2212	-1	0	0	0	0	0.0000000000E+00	0.0000000000E+00	-6.5000000000E+03	6.5000000000E+03	9.3827000000E-01	0.000E+00	0.0
	2212	1	0	0	0	0	0.0000000000E+00	0.0000000000E+00	5.9916897830E+03	5.9916897830E+03	9.3827000000E-01	0.000E+00	0.0
	2212	1	0	0	0	0	0.0000000000E+00	0.0000000000E+00	-5.9635369861E+03	5.9635369861E+03	9.3827000000E-01	0.000E+00	0.0
	51	2	1	2	0	0	-6.8083014183E+01	-6.4302123499E+01	6.9160683126E+01	1.0508624002E+03	1.0443938549E+03	0.000E+00	0.0
	1000022	2	5	5	0	0	6.8083014183E+01	6.4302123499E+01	-1.2073457046E+02	8.6308657916E+02	8.4945367544E+02	0.000E+00	0.0
	14	1	6	6	0	0	1.2057404354E+02	2.8946397032E+02	-2.1714987717E+01	4.5213275792E+02	3.2500000000E+02	0.000E+00	0.0
	-14	1	6	6	0	0	-5.2491029362E+01	-2.2516184682E+02	-9.9019582742E+01	4.1095382124E+02	3.2500000000E+02	0.000E+00	0.0
	25	2	5	5	0	0	-6.8083014183E+01	-6.4302123499E+01	9.2581773554E+01	1.8168665182E+02	1.2517425753E+02	0.000E+00	0.0
	-5	1	9	9	0	501	1.9486651824E+01	-1.1876297726E+01	7.4398657470E+01	7.7932077351E+01	4.1800000000E+00	0.000E+00	0.0
	5	1	9	9	501	0	-8.7569666007E+01	-5.2425825773E+01	1.8183116084E+01	1.0375457447E+02	4.1800000000E+00	0.000E+00	0.0
</event>
<event>
    11  -1  1.0000000E+00  1.0000000E+00  -1.0000000E+00  -1.0000000E+00
	2212	-1	0	0	0	0	0.0000000000E+00	0.0000000000E+00	6.5000000000E+03	6.5000000000E+03	9.3827000000E-01	0.000E+00	0.0
	2212	-1	0	0	0	0	0.0000000000E+00	0.0000000000E+00	-6.5000000000E+03	6.5000000000E+03	9.3827000000E-01	0.000E+00	0.0
	2212	1	0	0	0	0	0.0000000000E+00	0.0000000000E+00	6.0766867259E+03	6.0766867259E+03	9.3827000000E-01	0.000E+00	0.0
	2212	1	0	0	0	0	0.0000000000E+00	0.0000000000E+00	-5.8432746717E+03	5.8432746717E+03	9.3827000000E-01	0.000E+00	0.0
	51	2	1	2	0	0	-6.8667810495E+01	-1.2655062508E+02	-2.5954230765E+02	1.0954883541E+03	1.0545151472E+03	0.000E+00	0.0
	1000022	2	5	5	0	0	6.8667810495E+01	1.2655062508E+02	-1.6695829909E+02	8.7800492126E+02	8.4987483738E+02	0.000E+00	0.0
	14	1	6	6	0	0	-1.4627889954E+02	-1.1012691045E+02	4.4090991271E+01	3.7562543626E+02	3.2500000000E+02	0.000E+00	0.0
	-14	1	6	6	0	0	2.1494671004E+02	2.3667753553E+02	-2.1104929037E+02	5.0237948500E+02	3.2500000000E+02	0.000E+00	0.0
	25	2	5	5	0	0	-6.8667810495E+01	-1.2655062508E+02	-6.6453755040E+01	2.0203368111E+02	1.2518457507E+02	0.000E+00	0.0
	-5	1	9	9	0	501	1.8667056532E+01	-3.4592732485E+01	-6.3875095724E+01	7.5117350820E+01	4.1800000000E+00	0.000E+00	0.0
	5	1	9	9	501	0	-8.7334867027E+01	-9.1957892597E+01	-2.5786593154E+00	1.2691633029E+02	4.1800000000E+00	0.000E+00	0.0
</event>
<event>
    11  -1  1.0000000E+00  1.0000000E+00  -1.0000000E+00  -1.0000000E+00
	2212	-1	0	0	0	0	0.0000000000E+00	0.0000000000E+00	6.5000000000E+03	6.5000000000E+03	9.3827000000E-01	0.000E+00	0.0
	2212	-1	0	0	0	0	0.0000000000E+00	0.0000000000E+00	-6.5000000000E+03	6.5000000000E+03	9.3827000000E-01	0.000E+00	0.0
	2212	1	0	0	0	0	0.0000000000E+00	0.0000000000E+00	6.1282586650E+03	6.1282586650E+03	9.3827000000E-01	0.000E+00	0.0
	2212	1	0	0	0	0	0.0000000000E+00	0.0000000000E+00	-5.7568535327E+03	5.7568535327E+03	9.3827000000E-01	0.000E+00	0.0
	51	2	1	2	0	0	1.1878132024E+02	5.1376750012E+01	-3.1023809500E+02	1.1036436415E+03	1.0512055172E+03	0.000E+00	0.0
	1000022	2	5	5	0	0	-1.1878132024E+02	-5.1376750012E+01	-3.6883871351E+02	9.3481620916E+02	8.4917064001E+02	0.000E+00	0.0
	14	1	6	6	0	0	-4.0468017106E+01	-2.1356505896E+02	2.6982018363E+01	3.9191928268E+02	3.2500000000E+02	0.000E+00	0.0
	-14	1	6	6	0	0	-7.8313303131E+01	1.6218830895E+02	-3.9582073187E+02	5.4289692648E+02	3.2500000000E+02	0.000E+00	0.0
	25	2	5	5	0	0	1.1878132024E+02	5.1376750012E+01	-2.5664188405E+00	1.8007159312E+02	1.2518234566E+02	0.000E+00	0.0
	-5	1	9	9	0	501	4.7384585741E+01	5.8756587370E+01	-5.2932007144E+01	9.2287080924E+01	4.1800000000E+00	0.000E+00	0.0
	5	1	9	9	501	0	7.1396734496E+01	-7.3798373577E+00	5.0365588304E+01	8.7784512195E+01	4.1800000000E+00	0.000E+00	0.0
</event>
<event>
    11  -1  1.0000000E+00  1.0000000E+00  -1.0000000E+00  -1.0000000E+00
	2212	-1	0	0	0	0	0.0000000000E+00	0.0000000000E+00	6.5000000000E+03	6.5000000000E+03	9.3827000000E-01	0.000E+00	0.0
	2212	-1	0	0	0	0	0.0000000000E+00	0.0000000000E+00	-6.5000000000E+03	6.5000000000E+03	9.3827000000E-01	0.000E+00	0.0
	2212	1	0	0	0	0	0.0000000000E+00	0.0000000000E+00	6.3037607026E+03	6.3037607026E+03	9.3827000000E-01	0.000E+00	0.0
	2212	1	0	0	0	0	0.0000000000E+00	0.0000000000E+00	-5.0976639035E+03	5.0976639035E+03	9.3827000000E-01	0.000E+00	0.0
	51	2	1	2	0	0	9.8826509385E+01	-6.1316062018E+01	-1.2825490818E+03	1.6610937020E+03	1.0491776785E+03	0.000E+00	0.0
	1000022	2	5	5	0	0	-9.8826509385E+01	6.1316062018E+01	-9.3510464785E+02	1.2782115735E+03	8.6364216304E+02	0.000E+00	0.0
	14	1	6	6	0	0	-2.8451448168E+02	1.1401166717E+02	-2.9667651945E+02	5.3627335168E+02	3.2500000000E+02	0.000E+00	0.0
	-14	1	6	6	0	0	1.8568797229E+02	-5.2695605152E+01	-6.3842812841E+02	7.4193822182E+02	3.2500000000E+02	0.000E+00	0.0
	25	2	5	5	0	0	9.8826509385E+01	-6.1316062018E+01	-2.7099215126E+02	3.2036382037E+02	1.2517944295E+02	0.000E+00	0.0
	-5	1	9	9	0	501	5.9341564931E+01	-9.9059052145E+01	-1.7166092442E+02	2.0692767459E+02	4.1800000000E+00	0.000E+00	0.0
	5	1	9	9	501	0	3.9484944454E+01	3.7742990128E+01	-9.9331226846E+01	1.1343614578E+02	4.1800000000E+00	0.000E+00	0.0
</event>
<event>
    11  -1  1.0000000E+00  1.0000000E+00  -1.0000000E+00  -1.0000000E+00
	2212	-1	0	0	0	0	0.0000000000E+00	0.0000000000E+00	6.5000000000E+03	6.5000000000E+03	9.3827000000E-01	0.000E+00	0.0
	2212	-1	0	0	0	0	0.0000000000E+00	0.0000000000E+00	-6.5000000000E+03	6.5000000000E+03	9.3827000000E-01	0.000E+00	0.0
	2212	1	0	0	0	0	0.0000000000E+00	0.0000000000E+00	6.1189192135E+03	6.1189192135E+03	9.3827000000E-01	0.000E+00	0.0
	2212	1	0	0	0	0	0.0000000000E+00	0.0000000000E+00	-5.7807662973E+03	5.7807662973E+03	9.3827000000E-01	0.000E+00	0.0
	51	2	1	2	0	0	1.3482812240E+02	-1.2962268341E+01	-3.4660645310E+02	1.1112278149E+03	1.0470647450E+03	0.000E+00	0.0
	1000022	2	5	5	0	0	-1.3482812240E+02	1.2962268341E+01	-2.7293381963E+02	9.0469192462E+02	8.5183799257E+02	0.000E+00	0.0
	14	1	6	6	0	0	-2.8284404586E+02	4.6542841391E+01	3.1123861400E+01	4.3446597693E+02	3.2500000000E+02	0.000E+00	0.0
	-14	1	6	6	0	0	1.4801592346E+02	-3.3580573050E+01	-3.0405768103E+02	4.7022594768E+02	3.2500000000E+02	0.000E+00	0.0
	25	2	5	5	0	0	1.3482812240E+02	-1.2962268341E+01	-6.5219096545E+01	1.9562256453E+02	1.2517193857E+02	0.000E+00	0.0
	-5	1	9	9	0	501	1.2414527495E+01	-3.2090293396E+01	-6.2682215871E+01	7.1627089915E+01	4.1800000000E+00	0.000E+00	0.0
	5	1	9	9	501	0	1.2241359491E+02	1.9128025055E+01	-2.5368806742E+00	1.2399547461E+02	4.1800000000E+00	0.000E+00	0.0
</event>
<event>
    11  -1  1.0000000E+00  1.0000000E+00  -1.0000000E+00  -1.0000000E+00
	2212	-1	0	0	0	0	0.0000000000E+00	0.0000000000E+00	6.5000000000E+03	6.5000000000E+03	9.3827000000E-01	0.000E+00	0.0
	2212	-1	0	0	0	0	0.0000000000E+00	0.0000000000E+00	-6.5000000000E+03	6.5000000000E+03	9.3827000000E-01	0.000E+00	0.0
	2212	1	0	0	0	0	0.0000000000E+00	0.0000000000E+00	5.4757163573E+03	5.4757163573E+03	9.3827000000E-01	0.000E+00	0.0
	2212	1	0	0	0	0	0.0000000000E+00	0.0000000000E+00	-6.2315357066E+03	6.2315357066E+03	9.3827000000E-01	0.000E+00	0.0
	51	2	1	2	0	0	-4.6620723877E+01	-8.7734232819E+01	6.6871388315E+02	1.2477914018E+03	1.0487775443E+03	0.000E+00	0.0
	1000022	2	5	5	0	0	4.6620723877E+01	8.7734232819E+01	7.2099849046E+02	1.1291625678E+03	8.6330672062E+02	0.000E+00	0.0
	14	1	6	6	0	0	-1.7957782648E+02	2.5882301567E+01	9.2129106420E+01	3.8344603473E+02	3.2500000000E+02	0.000E+00	0.0
	-14	1	6	6	0	0	2.2619855036E+02	6.1851931252E+01	6.2886938404E+02	7.4571653312E+02	3.2500000000E+02	0.000E+00	0.0
	25	2	5	5	0	0	-4.6620723877E+01	-8.7734232819E+01	3.4820858859E+01	1.6358536820E+02	1.2520739984E+02	0.000E+00	0.0
	-5	1	9	9	0	501	-1.3979347000E+01	-5.8764006552E+01	8.0197984566E+01	1.0048790841E+02	4.1800000000E+00	0.000E+00	0.0
	5	1	9	9	501	0	-3.2641376877E+01	-2.8970226268E+01	-4.5377125707E+01	6.3097459789E+01	4.1800000000E+00	0.000E+00	0.0
</event>
<event>
    11  -1  1.0000000E+00  1.0000000E+00  -1.0000000E+00  -1.0000000E+00
	2212	-1	0	0	0	0	0.0000000000E+00	0.0000000000E+00	6.5000000000E+03	6.5000000000E+03	9.3827000000E-01	0.000E+00	0.0
	2212	-1	0	0	0	0	0.0000000000E+00	0.0000000000E+00	-6.5000000000E+03	6.5000000000E+03	9.3827000000E-01	0.000E+00	0.0
	2212	1	0	0	0	0	0.0000000000E+00	0.0000000000E+00	5.8222018404E+03	5.8222018404E+03	9.3827000000E-01	0.000E+00	0.0
	2212	1	0	0	0	0	0.0000000000E+00	0.0000000000E+00	-6.0844075543E+03	6.0844075543E+03	9.3827000000E-01	0.000E+00	0.0
	51	2	1	2	0	0	1.1603660867E+02	4.7735181253E+01	2.0057796526E+02	1.0875319957E+03	1.0614853647E+03	0.000E+00	0.0
	1000022	2	5	5	0	0	-1.1603660867E+02	-4.7735181253E+01	2.7972165050E+02	9.1530417378E+02	8.6243514927E+02	0.000E+00	0.0
	14	1	6	6	0	0	6.8138040776E+01	-2.6110959927E+02	2.3338893193E+02	4.8261414088E+02	3.2500000000E+02	0.000E+00	0.0
	-14	1	6	6	0	0	-1.8417464945E+02	2.1337441802E+02	4.6332718576E+01	4.3269003290E+02	3.2500000000E+02	0.000E+00	0.0
	25	2	5	5	0	0	1.1603660867E+02	4.7735181253E+01	-1.7515936609E+01	1.7808643159E+02	1.2515920661E+02	0.000E+00	0.0
	-5	1	9	9	0	501	8.9349525237E+01	-2.8576795381E+01	-2.3863824346E+01	9.6886146619E+01	4.1800000000E+00	0.000E+00	0.0
	5	1	9	9	501	0	2.6687083433E+01	7.6311976634E+01	6.3478877362E+00	8.1200284966E+01	4.1800000000E+00	0.000E+00	0.0
</event>
<event>
    11  -1  1.0000000E+00  1.0000000E+00  -1.0000000E+00  -1.0000000E+00
	2212	-1	0	0	0	0	0.0000000000E+00	0.0000000000E+00	6.5000000000E+03	6.5000000000E+03	9.3827000000E-01	0.000E+00	0.0
	2212	-1	0	0	0	0	0.0000000000E+00	0.0000000000E+00	-6.5000000000E+03	6.5000000000E+03	9.3827000000E-01	0.000E+00	0.0
	2212	1	0	0	0	0	0.0000000000E+00	0.0000000000E+00	5.7984379483E+03	5.7984379483E+03	9.3827000000E-01	0.000E+00	0.0
	2212	1	0	0	0	0	0.0000000000E+00	0.0000000000E+00	-6.1071981773E+03	6.1071981773E+03	9.3827000000E-01	0.000E+00	0.0
	51	2	1	2	0	0	-7.6637743258E+01	-1.1218940562E+02	3.2952758131E+02	1.1087595067E+03	1.0499044769E+03	0.000E+00	0.0
	1000022	2	5	5	0	0	7.6637743258E+01	1.1218940562E+02	2.3606989612E+02	8.9593341851E+02	8.5352673544E+02	0.000E+00	0.0
	14	1	6	6	0	0	1.2643933517E+00	2.7309321513E+02	-5.0662002813E+01	4.2751975553E+02	3.2500000000E+02	0.000E+00	0.0
	-14	1	6	6	0	0	7.5373349906E+01	-1.6090380952E+02	2.8673189893E+02	4.6841366297E+02	3.2500000000E+02	0.000E+00	0.0
	25	2	5	5	0	0	-7.6637743258E+01	-1.1218940562E+02	7.2690332912E+01	1.9843045588E+02	1.2502381731E+02	0.000E+00	0.0
	-5	1	9	9	0	501	-5.4565199253E+01	1.0192098750E+01	2.8397639421E+00	5.5738465226E+01	4.1800000000E+00	0.000E+00	0.0
	5	1	9	9	501	0	-2.2072544005E+01	-1.2238150437E+02	6.9850568970E+01	1.4269199065E+02	4.1800000000E+00	0.000E+00	0.0
</event>
<event>
    11  -1  1.0000000E+00  1.0000000E+00  -1.0000000E+00  -1.0000000E+00
	2212	-1	0	0	0	0	0.0000000000E+00	0.0000000000E+00	6.5000000000E+03	6.5000000000E+03	9.3827000000E-01	0.000E+00	0.0
	2212	-1	0	0	0	0	0.0000000000E+00	0.0000000000E+00	-6.5000000000E+03	6.5000000000E+03	9.3827000000E-01	0.000E+00	0.0
	2212	1	0	0	0	0	0.0000000000E+00	0.0000000000E+00	5.3744228457E+03	5.3744228457E+03	9.3827000000E-01	0.000E+00	0.0
	2212	1	0	0	0	0	0.0000000000E+00	0.0000000000E+00	-6.2548923347E+03	6.2548923347E+03	9.3827000000E-01	0.000E+00	0.0
	51	2	1	2	0	0	-3.9095946679E+00	3.1606593743E+01	6.9115151621E+02	1.2578771935E+03	1.0505000494E+03	0.000E+00	0.0
	1000022	2	5	5	0	0	3.9095946679E+00	-3.1606593743E+01	9.1193638397E+02	1.2377552809E+03	8.3629893303E+02	0.000E+00	0.0
	14	1	6	6	0	0	1.2279989875E+02	1.6800223112E+02	6.6271164625E+02	7.6688740430E+02	3.2500000000E+02	0.000E+00	0.0
	-14	1	6	6	0	0	-1.1889030408E+02	-1.9960882486E+02	2.4922473771E+02	4.7086787664E+02	3.2500000000E+02	0.000E+00	0.0
	25	2	5	5	0	0	-3.9095946679E+00	3.1606593743E+01	-3.1466895056E+01	1.3292953865E+02	1.2516323367E+02	0.000E+00	0.0
	-5	1	9	9	0	501	-4.7115316714E+01	5.8998937265E+01	-3.0652616732E+01	8.1595238709E+01	4.1800000000E+00	0.000E+00	0.0
	5	1	9	9	501	0	4.3205722046E+01	-2.7392343522E+01	-8.1427832422E-01	5.1334299940E+01	4.1800000000E+00	0.000E+00	0.0
</event>
<event>
    11  -1  1.0000000E+00  1.0000000E+00  -1.0000000E+00  -1.0000000E+00
	2212	-1	0	0	0	0	0.0000000000E+00	0.0000000000E+00	6.5000000000E+03	6.5000000000E+03	9.3827000000E-01	0.000E+00	0.0
	2212	-1	0	0	0	0	0.0000000000E+00	0.0000000000E+00	-6.5000000000E+03	6.5000000000E+03	9.3827000000E-01	0.000E+00	0.0
	2212	1	0	0	0	0	0.0000000000E+00	0.0000000000E+00	5.9261172203E+03	5.9261172203E+03	9.3827000000E-01	0.000E+00	0.0
	2212	1	0	0	0	0	0.0000000000E+00	0.0000000000E+00	-5.9696811297E+03	5.9696811297E+03	9.3827000000E-01	0.000E+00	0.0
	51	2	1	2	0	0	-1.6725135621E+02	1.1615014045E+02	6.3945977361E+01	1.1237955459E+03	1.1033419550E+03	0.000E+00	0.0
	1000022	2	5	5	0	0	1.6725135621E+02	-1.1615014045E+02	1.4455187351E+01	8.6341581096E+02	8.3893625437E+02	0.000E+00	0.0
	14	1	6	6	0	0	-6.1575253872E+00	1.9641797948E+02	1.9283488473E+01	3.8028251434E+02	3.2500000000E+02	0.000E+00	0.0
	-14	1	6	6	0	0	1.7340888159E+02	-3.1256811993E+02	-4.8283011219E+00	4.8313329662E+02	3.2500000000E+02	0.000E+00	0.0
	25	2	5	5	0	0	-1.6725135621E+02	1.1615014045E+02	2.9108722012E+01	2.4078583900E+02	1.2516641437E+02	0.000E+00	0.0
	-5	1	9	9	0	501	-4.4502314266E+00	-1.9902508504E+01	-1.2857734590E+01	2.4468513304E+01	4.1800000000E+00	0.000E+00	0.0
	5	1	9	9	501	0	-1.6280112478E+02	1.3605264895E+02	4.1966456602E+01	2.1631732570E+02	4.1800000000E+00	0.000E+00	0.0
</event>
<event>
    11  -1  1.0000000E+00  1.0000000E+00  -1.0000000E+00  -1.0000000E+00
	2212	-1	0	0	0	0	0.0000000000E+00	0.0000000000E+00	6.5000000000E+03	6.5000000000E+03	9.3827000000E-01	0.000E+00	0.0
	2212	-1	0	0	0	0	0.0000000000E+00	0.0000000000E+00	-6.5000000000E+03	6.5000000000E+03	9.3827000000E-01	0.000E+00	0.0
	2212	1	0	0	0	0	0.0000000000E+00	0.0000000000E+00	6.2449340340E+03	6.2449340340E+03	9.3827000000E-01	0.000E+00	0.0
	2212	1	0	0	0	0	0.0000000000E+00	0.0000000000E+00	-5.4191511198E+03	5.4191511198E+03	9.3827000000E-01	0.000E+00	0.0
	51	2	1	2	0	0	-1.0865212546E+02	-9.8354541728E+01	-7.9386481341E+02	1.3245570192E+03	1.0501195432E+03	0.000E+00	0.0
	1000022	2	5	5	0	0	1.0865212546E+02	9.8354541728E+01	-7.1248533894E+02	1.1123492155E+03	8.4155006910E+02	0.000E+00	0.0
	14	1	6	6	0	0	-6.9822624026E+01	-1.6717412786E+02	-1.8657617065E+02	4.1624278409E+02	3.2500000000E+02	0.000E+00	0.0
	-14	1	6	6	0	0	1.7847474949E+02	2.6552866959E+02	-5.2590916830E+02	6.9610643143E+02	3.2500000000E+02	0.000E+00	0.0
	25	2	5	5	0	0	-1.0865212546E+02	-9.8354541728E+01	-1.1329757524E+02	2.2356563069E+02	1.2516529241E+02	0.000E+00	0.0
	-5	1	9	9	0	501	-1.1474827480E+02	-1.1824542027E+02	-7.7922867182E+01	1.8231454033E+02	4.1800000000E+00	0.000E+00	0.0
	5	1	9	9	501	0	6.0961493391E+00	1.9890878542E+01	-3.5374708057E+01	4.1251090362E+01	4.1800000000E+00	0.000E+00	0.0
</event>
<event>
    11  -1  1.0000000E+00  1.0000000E+00  -1.0000000E+00  -1.0000000E+00
	2212	-1	0	0	0	0	0.0000000000E+00	0.0000000000E+00	6.5000000000E+03	6.5000000000E+03	9.3827000000E-01	0.000E+00	0.0
	2212	-1	0	0	0	0	0.0000000000E+00	0.0000000000E+00	-6.5000000000E+03	6.5000000000E+03	9.3827000000E-01	0.000E+00	0.0
	2212	1	0	0	0	0	0.0000000000E+00	0.0000000000E+00	6.1466147576E+03	6.1466147576E+03	9.3827000000E-01	0.000E+00	0.0
	2212	1	0	0	0	0	0.0000000000E+00	0.0000000000E+00	-5.7301674743E+03	5.7301674743E+03	9.3827000000E-01	0.000E+00	0.0
	51	2	1	2	0	0	-5.8698173006E+01	-6.1138647963E+01	-5.7979323342E+02	1.1964670569E+03	1.0431633692E+03	0.000E+00	0.0
	1000022	2	5	5	0	0	5.8698173006E+01	6.1138647963E+01	-1.7447701679E+02	8.3790747526E+02	8.1514618194E+02	0.000E+00	0.0
	14	1	6	6	0	0	2.3451552299E+02	1.0990289455E+02	2.2812983972E+01	4.1619900167E+02	3.2500000000E+02	0.000E+00	0.0
	-14	1	6	6	0	0	-1.7581734998E+02	-4.8764246586E+01	-1.9729000077E+02	4.2170847359E+02	3.2500000000E+02	0.000E+00	0.0
	25	2	5	5	0	0	-5.8698173006E+01	-6.1138647963E+01	-2.4197026644E+02	2.8531029283E+02	1.2517565085E+02	0.000E+00	0.0
	-5	1	9	9	0	501	-2.3081714170E+01	-9.0031024534E+01	-1.0246857185E+02	1.3840387106E+02	4.1800000000E+00	0.000E+00	0.0
	5	1	9	9	501	0	-3.5616458836E+01	2.8892376571E+01	-1.3950169459E+02	1.4690642178E+02	4.1800000000E+00	0.000E+00	0.0
</event>
<event>
    11  -1  1.0000000E+00  1.0000000E+00  -1.0000000E+00  -1.0000000E+00
	2212	-1	0	0	0	0	0.0000000000E+00	0.0000000000E+00	6.5000000000E+03	6.5000000000E+03	9.3827000000E-01	0.000E+00	0.0
	2212	-1	0	0	0	0	0.0000000000E+00	0.0000000000E+00	-6.5000000000E+03	6.5000000000E+03	9.3827000000E-01	0.000E+00	0.0
	2212	1	0	0	0	0	0.0000000000E+00	0.0000000000E+00	5.5140807761E+03	5.5140807761E+03	9.3827000000E-01	0.000E+00	0.0
	2212	1	0	0	0	0	0.0000000000E+00	0.0000000000E+00	-6.2199683976E+03	6.2199683976E+03	9.3827000000E-01	0.000E+00	0.0
	51	2	1	2	0	0	-1.2949013422E+02	-1.6084515882E+01	6.3384284860E+02	1.2341544975E+03	1.0508825627E+03	0.000E+00	0.0
	1000022	2	5	5	0	0	1.2949013422E+02	1.6084515882E+01	6.5554194523E+02	1.0782500489E+03	8.4608600005E+02	0.000E+00	0.0
	14	1	6	6	0	0	-1.9080632746E+02	-4.1644475172E+01	1.9108813229E+02	4.2459509089E+02	3.2500000000E+02	0.000E+00	0.0
	-14	1	6	6	0	0	3.2029646167E+02	5.7728991054E+01	4.6445381294E+02	6.5365495800E+02	3.2500000000E+02	0.000E+00	0.0
	25	2	5	5	0	0	-1.2949013422E+02	-1.6084515882E+01	5.0345676272E+01	1.8770077745E+02	1.2518182066E+02	0.000E+00	0.0
	-5	1	9	9	0	501	2.4829954353E+01	1.6503412337E+00	4.0294362844E+00	2.5553062754E+01	4.1800000000E+00	0.000E+00	0.0
	5	1	9	9	501	0	-1.5432008857E+02	-1.7734857115E+01	4.6316239988E+01	1.6214771469E+02	4.1800000000E+00	0.000E+00	0.0
</event>
<event>
    11  -1  1.0000000E+00  1.0000000E+00  -1.0000000E+00  -1.0000000E+00
	2212	-1	0	0	0	0	0.0000000000E+00	0.0000000000E+00	6.5000000000E+03	6.5000000000E+03	9.3827000000E-01	0.000E+00	0.0
	2212	-1	0	0	0	0	0.0000000000E+00	0.0000000000E+00	-6.5000000000E+03	6.5000000000E+03	9.3827000000E-01	0.000E+00	0.0
	2212	1	0	0	0	0	0.0000000000E+00	0.0000000000E+00	5.5888920037E+03	5.5888920037E+03	9.3827000000E-01	0.000E+00	0.0
	2212	1	0	0	0	0	0.0000000000E+00	0.0000000000E+00	-6.2136820585E+03	6.2136820585E+03	9.3827000000E-01	0.000E+00	0.0
	51	2	1	2	0	0	7.6128683534E+01	1.2840911012E+00	7.0886850768E+02	1.2456958098E+03	1.0215019647E+03	0.000E+00	0.0
	1000022	2	5	5	0	0	-7.6128683534E+01	-1.2840911012E+00	4.4480307495E+02	9.6534494900E+02	8.5337205821E+02	0.000E+00	0.0
	14	1	6	6	0	0	3.0654803704E+01	2.6523966226E+02	2.5575812653E+02	4.9226925022E+02	3.2500000000E+02	0.000E+00	0.0
	-14	1	6	6	0	0	-1.0678348724E+02	-2.6652375336E+02	1.8904494843E+02	4.7307569878E+02	3.2500000000E+02	0.000E+00	0.0
	25	2	5	5	0	0	7.6128683534E+01	1.2840911012E+00	1.7998697979E+02	2.3208098877E+02	1.2517606443E+02	0.000E+00	0.0
	-5	1	9	9	0	501	9.0046877227E+01	-2.6483301652E+01	1.7726280459E+02	2.0062248044E+02	4.1800000000E+00	0.000E+00	0.0
	5	1	9	9	501	0	-1.3918193693E+01	2.7767392753E+01	2.7241752015E+00	3.1458508333E+01	4.1800000000E+00	0.000E+00	0.0
</event>
<event>
    11  -1  1.0000000E+00  1.0000000E+00  -1.0000000E+00  -1.0000000E+00
	2212	-1	0	0	0	0	0.0000000000E+00	0.0000000000E+00	6.5000000000E+03	6.5000000000E+03	9.3827000000E-01	0.000E+00	0.0
	2212	-1	0	0	0	0	0.0000000000E+00	0.0000000000E+00	-6.5000000000E+03	6.5000000000E+03	9.3827000000E-01	0.000E+00	0.0
	2212	1	0	0	0	0	0.0000000000E+00	0.0000000000E+00	6.0985951333E+03	6.0985951333E+03	9.3827000000E-01	0.000E+00	0.0
	2212	1	0	0	0	0	0.0000000000E+00	0.0000000000E+00	-5.8154743400E+03	5.8154743400E+03	9.3827000000E-01	0.000E+00	0.0
	51	2	1	2	0	0	4.8345028186E+01	-1.0956783198E+02	-3.7885426804E+02	1.1211425570E+03	1.0483738480E+03	0.000E+00	0.0
	1000022	2	5	5	0	0	-4.8345028186E+01	1.0956783198E+02	-1.3757894050E+02	8.5967481645E+02	8.4010146626E+02	0.000E+00	0.0
	14	1	6	6	0	0	-1.2770502223E+02	-9.6327059860E+00	-3.0803399980E+02	4.6573737960E+02	3.2500000000E+02	0.000E+00	0.0
	-14	1	6	6	0	0	7.9359994043E+01	1.1920053797E+02	1.7045505930E+02	3.9393743684E+02	3.2500000000E+02	0.000E+00	0.0
	25	2	5	5	0	0	4.8345028186E+01	-1.0956783198E+02	-1.4554185279E+02	2.2625571021E+02	1.2516734371E+02	0.000E+00	0.0
	-5	1	9	9	0	501	-1.7938091029E+01	4.2357194468E+00	1.0820233867E+01	2.1777655749E+01	4.1800000000E+00	0.000E+00	0.0
	5	1	9	9	501	0	6.6283119215E+01	-1.1380355143E+02	-1.5636208666E+02	2.0447805446E+02	4.1800000000E+00	0.000E+00	0.0
</event>
<event>
    11  -1  1.0000000E+00  1.0000000E+00  -1.0000000E+00  -1.0000000E+00
	2212	-1	0	0	0	0	0.0000000000E+00	0.0000000000E+00	6.5000000000E+03	6.5000000000E+03	9.3827000000E-01	0.000E+00	0.0
	2212	-1	0	0	0	0	0.0000000000E+00	0.0000000000E+00	-6.5000000000E+03	6.5000000000E+03	9.3827000000E-01	0.000E+00	0.0
	2212	1	0	0	0	0	0.0000000000E+00	0.0000000000E+00	6.2482358082E+03	6.2482358082E+03	9.3827000000E-01	0.000E+00	0.0
	2212	1	0	0	0	0	0.0000000000E+00	0.0000000000E+00	-5.4094737551E+03	5.4094737551E+03	9.3827000000E-01	0.000E+00	0.0
	51	2	1	2	0	0	5.2976606050E+01	-8.6174450055E+01	-7.1007937218E+02	1.2699083062E+03	1.0479607983E+03	0.000E+00	0.0
	1000022	2	5	5	0	0	-5.2976606050E+01	8.6174450055E+01	-8.2105044980E+02	1.1803943868E+03	8.4200624141E+02	0.000E+00	0.0
	14	1	6	6	0	0	-1.7147264369E+02	1.8104026205E+02	-6.8223827995E+02	7.9577164730E+02	3.2500000000E+02	0.000E+00	0.0
	-14	1	6	6	0	0	1.1849603764E+02	-9.4865811993E+01	-1.3881216986E+02	3.8462273948E+02	3.2500000000E+02	0.000E+00	0.0
	25	2	5	5	0	0	5.2976606050E+01	-8.6174450055E+01	-1.7711603252E+01	1.6189604992E+02	1.2515619625E+02	0.000E+00	0.0
	-5	1	9	9	0	501	-9.8687861352E+00	2.8214126302E+01	-5.0931163165E-01	3.0185454462E+01	4.1800000000E+00	0.000E+00	0.0
	5	1	9	9	501	0	6.2845392185E+01	-1.1438857636E+02	-1.7202291621E+01	1.3171059546E+02	4.1800000000E+00	0.000E+00	0.0
</event>
<event>
    11  -1  1.0000000E+00  1.0000000E+00  -1.0000000E+00  -1.0000000E+00
	2212	-1	0	0	0	0	0.0000000000E+00	0.0000000000E+00	6.5000000000E+03	6.5000000000E+03	9.3827000000E-01	0.000E+00	0.0
	2212	-1	0	0	0	0	0.0000000000E+00	0.0000000000E+00	-6.5000000000E+03	6.5000000000E+03	9.3827000000E-01	0.000E+00	0.0
	2212	1	0	0	0	0	0.0000000000E+00	0.0000000000E+00	6.2828703928E+03	6.2828703928E+03	9.3827000000E-01	0.000E+00	0.0
	2212	1	0	0	0	0	0.0000000000E+00	0.0000000000E+00	-5.2345741555E+03	5.2345741555E+03	9.3827000000E-01	0.000E+00	0.0
	51	2	1	2	0	0	3.0570439766E+01	-1.1224310309E+02	-9.4592701625E+02	1.4168121443E+03	1.0483537886E+03	0.000E+00	0.0
	1000022	2	5	5	0	0	-3.0570439766E+01	1.1224310309E+02	-9.7177359977E+02	1.2953005217E+03	8.4848479435E+02	0.000E+00	0.0
	14	1	6	6	0	0	6.1964180463E+01	3.1325265312E+02	-4.3503701212E+02	6.2995951161E+02	3.2500000000E+02	0.000E+00	0.0
	-14	1	6	6	0	0	-9.2534620229E+01	-2.0100955004E+02	-5.3673658765E+02	6.6534101006E+02	3.2500000000E+02	0.000E+00	0.0
	25	2	5	5	0	0	3.0570439766E+01	-1.1224310309E+02	-7.6522637593E+01	1.8725493003E+02	1.2520235132E+02	0.000E+00	0.0
	-5	1	9	9	0	501	-2.4502184275E+01	-9.1212726713E+01	-5.2745504323E+00	9.4685858664E+01	4.1800000000E+00	0.000E+00	0.0
	5	1	9	9	501	0	5.5072624041E+01	-2.1030376376E+01	-7.1248087161E+01	9.2569071365E+01	4.1800000000E+00	0.000E+00	0.0
</event>
<event>
    11  -1  1.0000000E+00  1.0000000E+00  -1.0000000E+00  -1.0000000E+00
	2212	-1	0	0	0	0	0.0000000000E+00	0.0000000000E+00	6.5000000000E+03	6.5000000000E+03	9.3827000000E-01	0.000E+00	0.0
	2212	-1	0	0	0	0	0.0000000000E+00	0.0000000000E+00	-6.5000000000E+03	6.5000000000E+03	9.3827000000E-01	0.000E+00	0.0
	2212	1	0	0	0	0	0.0000000000E+00	0.0000000000E+00	6.0082020702E+03	6.0082020702E+03	9.3827000000E-01	0.000E+00	0.0
	2212	1	0	0	0	0	0.0000000000E+00	0.0000000000E+00	-5.9367217546E+03	5.9367217546E+03	9.3827000000E-01	0.000E+00	0.0
	51	2	1	2	0	0	1.2705428005E+02	2.6606093477E+01	-8.0108597053E+01	1.0636467278E+03	1.0526520318E+03	0.000E+00	0.0
	1000022	2	5	5	0	0	-1.2705428005E+02	-2.6606093477E+01	-5.1137520258E+01	8.7359501794E+02	8.6238189632E+02	0.000E+00	0.0
	14	1	6	6	0	0	-5.9937288018E+01	2.2153507636E+02	-1.8412911512E+02	4.3840483527E+02	3.2500000000E+02	0.000E+00	0.0
	-14	1	6	6	0	0	-6.7116992028E+01	-2.4814116984E+02	1.3299159486E+02	4.3519018267E+02	3.2500000000E+02	0.000E+00	0.0
	25	2	5	5	0	0	1.2705428005E+02	2.6606093477E+01	-2.0342795386E+01	1.8148115729E+02	1.2518349268E+02	0.000E+00	0.0
	-5	1	9	9	0	501	1.5488588090E+01	4.5437176597E+01	3.0859446834E+01	5.7220723843E+01	4.1800000000E+00	0.000E+00	0.0
	5	1	9	9	501	0	1.1156569196E+02	-1.8831083120E+01	-5.1202242220E+01	1.2426043345E+02	4.1800000000E+00	0.000E+00	0.0
</event>
<event>
    11  -1  1.0000000E+00  1.0000000E+00  -1.0000000E+00  -1.0000000E+00
	2212	-1	0	0	0	0	0.0000000000E+00	0.0000000000E+00	6.5000000000E+03	6.5000000000E+03	9.3827000000E-01	0.000E+00	0.0
	2212	-1	0	0	0	0	0.0000000000E+00	0.0000000000E+00	-6.5000000000E+03	6.5000000000E+03	9.3827000000E-01	0.000E+00	0.0
	2212	1	0	0	0	0	0.0000000000E+00	0.0000000000E+00	5.7141237345E+03	5.7141237345E+03	9.3827000000E-01	0.000E+00	0.0
	2212	1	0	0	0	0	0.0000000000E+00	0.0000000000E+00	-6.1495067805E+03	6.1495067805E+03	9.3827000000E-01	0.000E+00	0.0
	51	2	1	2	0	0	-3.4316609526E+01	-1.1823977320E+02	3.7449625544E+02	1.1212416905E+03	1.0496557577E+03	0.000E+00	0.0
	1000022	2	5	5	0	0	3.4316609526E+01	1.1823977320E+02	4.2303583380E+02	9.6035321246E+02	8.5332332814E+02	0.000E+00	0.0
	14	1	6	6	0	0	-1.7975178656E+02	2.5194129195E+02	2.5230459695E+02	5.1484728707E+02	3.2500000000E+02	0.000E+00	0.0
	-14	1	6	6	0	0	2.1406839609E+02	-1.3370151874E+02	1.7073123685E+02	4.4550592539E+02	3.2500000000E+02	0.000E+00	0.0
	25	2	5	5	0	0	-3.4316609526E+01	-1.1823977320E+02	1.2347212246E+01	1.7601627251E+02	1.2518386830E+02	0.000E+00	0.0
	-5	1	9	9	0	501	4.1985872868E+01	-7.8313308744E+01	2.7811188108E-01	8.8956942355E+01	4.1800000000E+00	0.000E+00	0.0
	5	1	9	9	501	0	-7.6302482393E+01	-3.9926464458E+01	1.2069100365E+01	8.7059330156E+01	4.1800000000E+00	0.000E+00	0.0
</event>
<event>
    11  -1  1.0000000E+00  1.0000000E+00  -1.0000000E+00  -1.0000000E+00
	2212	-1	0	0	0	0	0.0000000000E+00	0.0000000000E+00	6.5000000000E+03	6.5000000000E+03	9.3827000000E-01	0.000E+00	0.0
	2212	-1	0	0	0	0	0.0000000000E+00	0.0000000000E+00	-6.5000000000E+03	6.5000000000E+03	9.3827000000E-01	0.000E+00	0.0
	2212	1	0	0	0	0	0.0000000000E+00	0.0000000000E+00	6.3262930394E+03	6.3262930394E+03	9.3827000000E-01	0.000E+00	0.0
	2212	1	0	0	0	0	0.0000000000E+00	0.0000000000E+00	-4.9347318966E+03	4.9347318966E+03	9.3827000000E-01	0.000E+00	0.0
	51	2	1	2	0	0	9.7179261235E+01	3.8212095943E+01	-1.3485166154E+03	1.7079206345E+03	1.0428767227E+03	0.000E+00	0.0
	1000022	2	5	5	0	0	-9.7179261235E+01	-3.8212095943E+01	-1.2209075685E+03	1.5029800201E+03	8.7030435877E+02	0.000E+00	0.0
	14	1	6	6	0	0	4.6330088395E+01	-2.8787065105E+02	-5.2655976464E+02	6.8403667633E+02	3.2500000000E+02	0.000E+00	0.0
	-14	1	6	6	0	0	-1.4350934963E+02	2.4965855511E+02	-6.9434780389E+02	8.1894334379E+02	3.2500000000E+02	0.000E+00	0.0
	25	2	5	5	0	0	9.7179261235E+01	3.8212095943E+01	-1.7065357434E+02	2.3599504387E+02	1.2516806783E+02	0.000E+00	0.0
	-5	1	9	9	0	501	-6.2064990035E-01	6.8061011458E+00	-1.2199407955E+02	1.2225684465E+02	4.1800000000E+00	0.000E+00	0.0
	5	1	9	9	501	0	9.7799911135E+01	3.1405994797E+01	-4.8659494793E+01	1.1373819922E+02	4.1800000000E+00	0.000E+00	0.0
</event>
<event>
    11  -1  1.0000000E+00  1.0000000E+00  -1.0000000E+00  -1.0000000E+00
	2212	-1	0	0	0	0	0.0000000000E+00	0.0000000000E+00	6.5000000000E+03	6.5000000000E+03	9.3827000000E-01	0.000E+00	0.0
	2212	-1	0	0	0	0	0.0000000000E+00	0.0000000000E+00	-6.5000000000E+03	6.5000000000E+03	9.3827000000E-01	0.000E+00	0.0
	2212	1	0	0	0	0	0.0000000000E+00	0.0000000000E+00	6.2885305499E+03	6.2885305499E+03	9.3827000000E-01	0.000E+00	0.0
	2212	1	0	0	0	0	0.0000000000E+00	0.0000000000E+00	-5.2030492752E+03	5.2030492752E+03	9.3827000000E-01	0.000E+00	0.0
	51	2	1	2	0	0	-6.4809250489E+01	2.6863849197E+01	-1.2639937953E+03	1.6430654419E+03	1.0474071922E+03	0.000E+00	0.0
	1000022	2	5	5	0	0	6.4809250489E+01	-2.6863849197E+01	-7.2396478369E+02	1.1194666233E+03	8.5097509210E+02	0.000E+00	0.0
	14	1	6	6	0	0	6.5398710197E+01	-1.8809341752E+02	-6.4341101866E+02	7.4783612105E+02	3.2500000000E+02	0.000E+00	0.0
	-14	1	6	6	0	0	-5.8945970858E-01	1.6122956833E+02	-8.0553765034E+01	3.7163050228E+02	3.2500000000E+02	0.000E+00	0.0
	25	2	5	5	0	0	-6.4809250489E+01	2.6863849197E+01	-3.6151649095E+02	3.8895355153E+02	1.2517502419E+02	0.000E+00	0.0
	-5	1	9	9	0	501	-3.5366454162E+00	-3.3277693833E+01	-2.5952334898E+01	4.2554774754E+01	4.1800000000E+00	0.000E+00	0.0
	5	1	9	9	501	0	-6.1272605073E+01	6.0141543030E+01	-3.3556415605E+02	3.4639877678E+02	4.1800000000E+00	0.000E+00	0.0
</event>
<event>
    11  -1  1.0000000E+00  1.0000000E+00  -1.0000000E+00  -1.0000000E+00
	2212	-1	0	0	0	0	0.0000000000E+00	0.0000000000E+00	6.5000000000E+03	6.5000000000E+03	9.3827000000E-01	0.000E+00	0.0
	2212	-1	0	0	0	0	0.0000000000E+00	0.0000000000E+00	-6.5000000000E+03	6.5000000000E+03	9.3827000000E-01	0.000E+00	0.0
	2212	1	0	0	0	0	0.0000000000E+00	0.0000000000E+00	5.8168094699E+03	5.8168094699E+03	9.3827000000E-01	0.000E+00	0.0
	2212	1	0	0	0	0	0.0000000000E+00	0.0000000000E+00	-6.0921325493E+03	6.0921325493E+03	9.3827000000E-01	0.000E+00	0.0
	51	2	1	2	0	0	-5.6270620658E-01	1.2606992144E+02	3.6244515753E+02	1.1233277141E+03	1.0557484167E+03	0.000E+00	0.0
	1000022	2	5	5	0	0	5.6270620658E-01	-1.2606992144E+02	1.3999336826E+02	8.6774969409E+02	8.4705221014E+02	0.000E+00	0.0
	14	1	6	6	0	0	6.7675484878E+01	2.0106331322E+01	3.2120720288E+02	4.6236706522E+02	3.2500000000E+02	0.000E+00	0.0
	-14	1	6	6	0	0	-6.7112778672E+01	-1.4617625277E+02	-1.8121383462E+02	4.0538262887E+02	3.2500000000E+02	0.000E+00	0.0
	25	2	5	5	0	0	-5.6270620658E-01	1.2606992144E+02	1.3532971117E+02	2.2330828670E+02	1.2513400197E+02	0.000E+00	0.0
	-5	1	9	9	0	501	-5.7143768584E+01	7.8933842210E+01	4.7118472648E+01	1.0832167188E+02	4.1800000000E+00	0.000E+00	0.0
	5	1	9	9	501	0	5.6581062377E+01	4.7136079234E+01	8.8211238522E+01	1.1498661482E+02	4.1800000000E+00	0.000E+00	0.0
</event>
<event>
    11  -1  1.0000000E+00  1.0000000E+00  -1.0000000E+00  -1.0000000E+00
	2212	-1	0	0	0	0	0.0000000000E+00	0.0000000000E+00	6.5000000000E+03	6.5000000000E+03	9.3827000000E-01	0.000E+00	0.0
	2212	-1	0	0	0	0	0.0000000000E+00	0.0000000000E+00	-6.5000000000E+03	6.5000000000E+03	9.3827000000E-01	0.000E+00	0.0
	2212	1	0	0	0	0	0.0000000000E+00	0.0000000000E+00	6.1763688359E+03	6.1763688359E+03	9.3827000000E-01	0.000E+00	0.0
	2212	1	0	0	0	0	0.0000000000E+00	0.0000000000E+00	-5.6476875095E+03	5.6476875095E+03	9.3827000000E-01	0.000E+00	0.0
	51	2	1	2	0	0	-6.5065218925E+01	-9.0846596399E+01	-4.6325689416E+02	1.1534440041E+03	1.0503997019E+03	0.000E+00	0.0
	1000022	2	5	5	0	0	6.5065218925E+01	9.0846596399E+01	-5.0803154750E+02	1.0069887985E+03	8.6223187151E+02	0.000E+00	0.0
	14	1	6	6	0	0	-3.9322847242E+01	-2.0260216730E+02	-9.6094821542E+01	3.9680365326E+02	3.2500000000E+02	0.000E+00	0.0
	-14	1	6	6	0	0	1.0438806617E+02	2.9344876370E+02	-4.1193672595E+02	6.1018514524E+02	3.2500000000E+02	0.000E+00	0.0
	25	2	5	5	0	0	-6.5065218925E+01	-9.0846596399E+01	-2.0649778929E+01	1.6895485608E+02	1.2503096910E+02	0.000E+00	0.0
	-5	1	9	9	0	501	-9.9967916546E+01	-8.6284871055E+01	-1.8880274985E+01	1.3346385464E+02	4.1800000000E+00	0.000E+00	0.0
	5	1	9	9	501	0	3.4902697621E+01	-4.5617253440E+00	-1.7695039440E+00	3.5491001445E+01	4.1800000000E+00	0.000E+00	0.0
</event>
<event>
    11  -1  1.0000000E+00  1.0000000E+00  -1.0000000E+00  -1.0000000E+00
	2212	-1	0	0	0	0	0.0000000000E+00	0.0000000000E+00	6.5000000000E+03	6.5000000000E+03	9.3827000000E-01	0.000E+00	0.0
	2212	-1	0	0	0	0	0.0000000000E+00	0.0000000000E+00	-6.5000000000E+03	6.5000000000E+03	9.3827000000E-01	0.000E+00	0.0
	2212	1	0	0	0	0	0.0000000000E+00	0.0000000000E+00	5.9641551558E+03	5.9641551558E+03	9.3827000000E-01	0.000E+00	0.0
	2212	1	0	0	0	0	0.0000000000E+00	0.0000000000E+00	-5.9773288394E+03	5.9773288394E+03	9.3827000000E-01	0.000E+00	0.0
	51	2	1	2	0	0	4.8376976046E+01	9.3077548227E+00	1.5576492896E+02	1.0709679107E+03	1.0584340256E+03	0.000E+00	0.0
	1000022	2	5	5	0	0	-4.8376976046E+01	-9.3077548227E+00	-1.3172332625E+02	8.6079408735E+02	8.4922815546E+02	0.000E+00	0.0
	14	1	6	6	0	0	1.3213917518E+02	-1.0442209191E+02	1.3859016439E+02	3.9140384332E+02	3.2500000000E+02	0.000E+00	0.0
	-14	1	6	6	0	0	-1.8051615123E+02	9.5114337083E+01	-2.7031349064E+02	4.6939024404E+02	3.2500000000E+02	0.000E+00	0.0
	25	2	5	5	0	0	4.8376976046E+01	9.3077548227E+00	1.4489700980E+02	1.9772191746E+02	1.2518724809E+02	0.000E+00	0.0
	-5	1	9	9	0	501	-1.5526543224E+01	3.3714720008E+01	-9.0579288190E-02	3.7352864606E+01	4.1800000000E+00	0.000E+00	0.0
	5	1	9	9	501	0	6.3903519270E+01	-2.4406965185E+01	1.4498758908E+02	1.6036905285E+02	4.1800000000E+00	0.000E+00	0.0
</event>
<event>
    11  -1  1.0000000E+00  1.0000000E+00  -1.0000000E+00  -1.0000000E+00
	2212	-1	0	0	0	0	0.0000000000E+00	0.0000000000E+00	6.5000000000E+03	6.5000000000E+03	9.3827000000E-01	0.000E+00	0.0
	2212	-1	0	0	0	0	0.0000000000E+00	0.0000000000E+00	-6.5000000000E+03	6.5000000000E+03	9.3827000000E-01	0.000E+00	0.0
	2212	1	0	0	0	0	0.0000000000E+00	0.0000000000E+00	4.8529563490E+03	4.8529563490E+03	9.3827000000E-01	0.000E+00	0.0
	2212	1	0	0	0	0	0.0000000000E+00	0.0000000000E+00	-6.3322923774E+03	6.3322923774E+03	9.3827000000E-01	0.000E+00	0.0
	51	2	1	2	0	0	-1.0086888758E+02	3.9803112529E+01	1.3328498260E+03	1.7009216850E+03	1.0511360996E+03	0.000E+00	0.0
	1000022	2	5	5	0	0	1.0086888758E+02	-3.9803112529E+01	1.3722699724E+03	1.6175397766E+03	8.4944171754E+02	0.000E+00	0.0
	14	1	6	6	0	0	2.1485427406E+01	-2.7484286989E+02	5.2045302981E+02	6.7267866248E+02	3.2500000000E+02	0.000E+00	0.0
	-14	1	6	6	0	0	7.9383460174E+01	2.3503975736E+02	8.5181694261E+02	9.4486111414E+02	3.2500000000E+02	0.000E+00	0.0
	25	2	5	5	0	0	-1.0086888758E+02	3.9803112529E+01	1.0706605603E+02	1.9721149694E+02	1.2518152389E+02	0.000E+00	0.0
	-5	1	9	9	0	501	-4.0263337415E+01	-1.3317499202E+01	1.0842765246E+02	1.1650116026E+02	4.1800000000E+00	0.000E+00	0.0
	5	1	9	9	501	0	-6.0605550165E+01	5.3120611731E+01	-1.3615964314E+00	8.0710336676E+01	4.1800000000E+00	0.000E+00	0.0
</event>
<event>
    11  -1  1.0000000E+00  1.0000000E+00  -1.0000000E+00  -1.0000000E+00
	2212	-1	0	0	0	0	0.0000000000E+00	0.0000000000E+00	6.5000000000E+03	6.5000000000E+03	9.3827000000E-01	0.000E+00	0.0
	2212	-1	0	0	0	0	0.0000000000E+00	0.0000000000E+00	-6.5000000000E+03	6.5000000000E+03	9.3827000000E-01	0.000E+00	0.0
	2212	1	0	0	0	0	0.0000000000E+00	0.0000000000E+00	5.7756579068E+03	5.7756579068E+03	9.3827000000E-01	0.000E+00	0.0
	2212	1	0	0	0	0	0.0000000000E+00	0.0000000000E+00	-6.1062376764E+03	6.1062376764E+03	9.3827000000E-01	0.000E+00	0.0
	51	2	1	2	0	0	1.2584828822E+02	2.3303780896E+00	4.2948191523E+02	1.1580899967E+03	1.0681172701E+03	0.000E+00	0.0
	1000022	2	5	5	0	0	-1.2584828822E+02	-2.3303780896E+00	1.7339686358E+02	8.8099856043E+02	8.5454594310E+02	0.000E+00	0.0
	14	1	6	6	0	0	-2.7388844941E+02	-1.1608833517E+02	-5.1987571202E+01	4.4364297790E+02	3.2500000000E+02	0.000E+00	0.0
	-14	1	6	6	0	0	1.4804016119E+02	1.1375795708E+02	2.2538443478E+02	4.3735558253E+02	3.2500000000E+02	0.000E+00	0.0
	25	2	5	5	0	0	1.2584828822E+02	2.3303780896E+00	1.5718290599E+02	2.3710585631E+02	1.2517786886E+02	0.000E+00	0.0
	-5	1	9	9	0	501	7.1382120833E+01	3.4819604052E+01	1.4412041813E+01	8.0826922187E+01	4.1800000000E+00	0.000E+00	0.0
	5	1	9	9	501	0	5.4466167389E+01	-3.2489225962E+01	1.4277086417E+02	1.5627893412E+02	4.1800000000E+00	0.000E+00	0.0
</event>
<event>
    11  -1  1.0000000E+00  1.0000000E+00  -1.0000000E+00  -1.0000000E+00
	2212	-1	0	0	0	0	0.0000000000E+00	0.0000000000E+00	6.5000000000E+03	6.5000000000E+03	9.3827000000E-01	0.000E+00	0.0
	2212	-1	0	0	0	0	0.0000000000E+00	0.0000000000E+00	-6.5000000000E+03	6.5000000000E+03	9.3827000000E-01	0.000E+00	0.0
	2212	1	0	0	0	0	0.0000000000E+00	0.0000000000E+00	5.5747472283E+03	5.5747472283E+03	9.3827000000E-01	0.000E+00	0.0
	2212	1	0	0	0	0	0.0000000000E+00	0.0000000000E+00	-6.1946926723E+03	6.1946926723E+03	9.3827000000E-01	0.000E+00	0.0
	51	2	1	2	0	0	-1.7103739793E+01	1.4844808306E+02	6.8769202916E+02	1.2748315587E+03	1.0629890897E+03	0.000E+00	0.0
	1000022	2	5	5	0	0	1.7103739793E+01	-1.4844808306E+02	4.4129166493E+02	9.6614351486E+02	8.4638382929E+02	0.000E+00	0.0
	14	1	6	6	0	0	1.3089280965E+01	-2.8433213882E+02	4.3604085296E+02	6.1381814888E+02	3.2500000000E+02	0.000E+00	0.0
	-14	1	6	6	0	0	4.0144588277E+00	1.3588405575E+02	5.2508119706E+00	3.5232536598E+02	3.2500000000E+02	0.000E+00	0.0
	25	2	5	5	0	0	-1.7103739793E+01	1.4844808306E+02	1.7865377900E+02	2.6441658453E+02	1.2517821753E+02	0.000E+00	0.0
	-5	1	9	9	0	501	-5.4453741175E+01	1.0628638432E+02	1.6921091083E+02	2.0715165981E+02	4.1800000000E+00	0.000E+00	0.0
	5	1	9	9	501	0	3.7350001382E+01	4.2161698740E+01	9.4428681753E+00	5.7264924721E+01	4.1800000000E+00	0.000E+00	0.0
</event>
<event>
    11  -1  1.0000000E+00  1.0000000E+00  -1.0000000E+00  -1.0000000E+00
	2212	-1	0	0	0	0	0.0000000000E+00	0.0000000000E+00	6.5000000000E+03	6.5000000000E+03	9.3827000000E-01	0.000E+00	0.0
	2212	-1	0	0	0	0	0.0000000000E+00	0.0000000000E+00	-6.5000000000E+03	6.5000000000E+03	9.3827000000E-01	0.000E+00	0.0
	2212	1	0	0	0	0	0.0000000000E+00	0.0000000000E+00	6.1281541155E+03	6.1281541155E+03	9.3827000000E-01	0.000E+00	0.0
	2212	1	0	0	0	0	0.0000000000E+00	0.0000000000E+00	-5.8035769733E+03	5.8035769733E+03	9.3827000000E-01	0.000E+00	0.0
	51	2	1	2	0	0	-2.4737444640E+01	1.9544918779E+01	-3.9794596014E+02	1.0932534370E+03	1.0177662528E+03	0.000E+00	0.0
	1000022	2	5	5	0	0	2.4737444640E+01	-1.9544918779E+01	-2.0541978519E+02	8.9258223624E+02	8.6805058337E+02	0.000E+00	0.0
	14	1	6	6	0	0	-2.1181452041E+02	-1.6711825095E+02	-1.9247173053E+02	4.6418128777E+02	3.2500000000E+02	0.000E+00	0.0
	-14	1	6	6	0	0	2.3655196505E+02	1.4757333217E+02	-1.2948054657E+01	4.2840094848E+02	3.2500000000E+02	0.000E+00	0.0
	25	2	5	5	0	0	-2.4737444640E+01	1.9544918779E+01	-1.1915735706E+02	1.7568667494E+02	1.2519339835E+02	0.000E+00	0.0
	-5	1	9	9	0	501	-4.5728837162E+01	-4.1597959282E+01	-7.5021351364E+01	9.7299498072E+01	4.1800000000E+00	0.000E+00	0.0
	5	1	9	9	501	0	2.0991392522E+01	6.1142878062E+01	-4.4136005699E+01	7.8387176864E+01	4.1800000000E+00	0.000E+00	0.0
</event>
<event>
    11  -1  1.0000000E+00  1.0000000E+00  -1.0000000E+00  -1.0000000E+00
	2212	-1	0	0	0	0	0.0000000000E+00	0.0000000000E+00	6.5000000000E+03	6.5000000000E+03	9.3827000000E-01	0.000E+00	0.0
	2212	-1	0	0	0	0	0.0000000000E+00	0.0000000000E+00	-6.5000000000E+03	6.5000000000E+03	9.3827000000E-01	0.000E+00	0.0
	2212	1	0	0	0	0	0.0000000000E+00	0.0000000000E+00	6.0226180200E+03	6.0226180200E+03	9.3827000000E-01	0.000E+00	0.0
	2212	1	0	0	0	0	0.0000000000E+00	0.0000000000E+00	-5.9147501577E+03	5.9147501577E+03	9.3827000000E-01	0.000E+00	0.0
	51	2	1	2	0	0	-1.1048705099E+02	5.1465859275E+01	-7.2043481693E+01	1.0665820646E+03	1.0571428069E+03	0.000E+00	0.0
	1000022	2	5	5	0	0	1.1048705099E+02	-5.1465859275E+01	-1.2625957562E+02	8.8694825128E+02	8.6941336365E+02	0.000E+00	0.0
	14	1	6	6	0	0	-1.6048313353E+01	1.0220276346E+02	1.9113594546E+02	3.9097429950E+02	3.2500000000E+02	0.000E+00	0.0
	-14	1	6	6	0	0	1.2653536434E+02	-1.5366862274E+02	-3.1739552108E+02	4.9597395178E+02	3.2500000000E+02	0.000E+00	0.0
	25	2	5	5	0	0	-1.1048705099E+02	5.1465859275E+01	1.8391713292E+01	1.7568357106E+02	1.2518122429E+02	0.000E+00	0.0
	-5	1	9	9	0	501	-1.6919865125E+00	6.3620350266E+01	-3.8531633445E+00	6.3896252269E+01	4.1800000000E+00	0.000E+00	0.0
	5	1	9	9	501	0	-1.0879506447E+02	-1.2154490991E+01	2.2244876636E+01	1.1178731879E+02	4.1800000000E+00	0.000E+00	0.0
</event>
<event>
    11  -1  1.0000000E+00  1.0000000E+00  -1.0000000E+00  -1.0000000E+00
	2212	-1	0	0	0	0	0.0000000000E+00	0.0000000000E+00	6.5000000000E+03	6.5000000000E+03	9.3827000000E-01	0.000E+00	0.0
	2212	-1	0	0	0	0	0.0000000000E+00	0.0000000000E+00	-6.5000000000E+03	6.5000000000E+03	9.3827000000E-01	0.000E+00	0.0
	2212	1	0	0	0	0	0.0000000000E+00	0.0000000000E+00	5.4717980285E+03	5.4717980285E+03	9.3827000000E-01	0.000E+00	0.0
	2212	1	0	0	0	0	0.0000000000E+00	0.0000000000E+00	-6.2323793067E+03	6.2323793067E+03	9.3827000000E-01	0.000E+00	0.0
	51	2	1	2	0	0	9.0968287719E+00	-1.2187191162E+02	8.7727069827E+02	1.3730301858E+03	1.0491294000E+03	0.000E+00	0.0
	1000022	2	5	5	0	0	-9.0968287719E+00	1.2187191162E+02	5.0967652454E+02	9.8994889043E+02	8.3981731993E+02	0.000E+00	0.0
	14	1	6	6	0	0	-2.1028512838E+01	1.8286037622E+02	-1.0269194507E+01	3.7364498110E+02	3.2500000000E+02	0.000E+00	0.0
	-14	1	6	6	0	0	1.1931684066E+01	-6.0988464603E+01	5.1994571905E+02	6.1630390933E+02	3.2500000000E+02	0.000E+00	0.0
	25	2	5	5	0	0	9.0968287719E+00	-1.2187191162E+02	2.5090475370E+02	3.0587377440E+02	1.2518009147E+02	0.000E+00	0.0
	-5	1	9	9	0	501	5.6192992544E+01	-5.4816156043E+01	6.2675562816E+01	1.0053935522E+02	4.1800000000E+00	0.000E+00	0.0
	5	1	9	9	501	0	-4.7096163772E+01	-6.7055755577E+01	1.8822919088E+02	2.0533441918E+02	4.1800000000E+00	0.000E+00	0.0
</event>
<event>
    11  -1  1.0000000E+00  1.0000000E+00  -1.0000000E+00  -1.0000000E+00
	2212	-1	0	0	0	0	0.0000000000E+00	0.0000000000E+00	6.5000000000E+03	6.5000000000E+03	9.3827000000E-01	0.000E+00	0.0
	2212	-1	0	0	0	0	0.0000000000E+00	0.0000000000E+00	-6.5000000000E+03	6.5000000000E+03	9.3827000000E-01	0.000E+00	0.0
	2212	1	0	0	0	0	0.0000000000E+00	0.0000000000E+00	6.2816886503E+03	6.2816886503E+03	9.3827000000E-01	0.000E+00	0.0
	2212	1	0	0	0	0	0.0000000000E+00	0.0000000000E+00	-5.2333676563E+03	5.2333676563E+03	9.3827000000E-01	0.000E+00	0.0
	51	2	1	2	0	0	4.1942372325E+01	-1.7200964822E+01	-1.1320246349E+03	1.5458381790E+03	1.0517037919E+03	0.000E+00	0.0
	1000022	2	5	5	0	0	-4.1942372325E+01	1.7200964822E+01	-8.2260687798E+02	1.2228917753E+03	9.0372959591E+02	0.000E+00	0.0
	14	1	6	6	0	0	-3.1397932970E+02	-1.0213851609E+02	-3.8942544167E+02	6.0522100969E+02	3.2500000000E+02	0.000E+00	0.0
	-14	1	6	6	0	0	2.7203695738E+02	1.1933948091E+02	-4.3318143631E+02	6.1767076557E+02	3.2500000000E+02	0.000E+00	0.0
	25	2	5	5	0	0	4.1942372325E+01	-1.7200964822E+01	-2.2571411604E+02	2.6205191808E+02	1.2517711374E+02	0.000E+00	0.0
	-5	1	9	9	0	501	1.5514159497E+01	5.0288190094E+00	-2.2662909295E+02	2.2725359477E+02	4.1800000000E+00	0.000E+00	0.0
	5	1	9	9	501	0	2.6428212828E+01	-2.2229783831E+01	9.1497690993E-01	3.4798323311E+01	4.1800000000E+00	0.000E+00	0.0
</event>
<event>
    11  -1  1.0000000E+00  1.0000000E+00  -1.0000000E+00  -1.0000000E+00
	2212	-1	0	0	0	0	0.0000000000E+00	0.0000000000E+00	6.5000000000E+03	6.5000000000E+03	9.3827000000E-01	0.000E+00	0.0
	2212	-1	0	0	0	0	0.0000000000E+00	0.0000000000E+00	-6.5000000000E+03	6.5000000000E+03	9.3827000000E-01	0.000E+00	0.0
	2212	1	0	0	0	0	0.0000000000E+00	0.0000000000E+00	6.3086187654E+03	6.3086187654E+03	9.3827000000E-01	0.000E+00	0.0
	2212	1	0	0	0	0	0.0000000000E+00	0.0000000000E+00	-5.0394682308E+03	5.0394682308E+03	9.3827000000E-01	0.000E+00	0.0
	51	2	1	2	0	0	1.5145344284E+02	5.0998358879E+01	-1.2938453240E+03	1.6785851760E+03	1.0573899435E+03	0.000E+00	0.0
	1000022	2	5	5	0	0	-1.5145344284E+02	-5.0998358879E+01	-1.0151103034E+03	1.3267272137E+03	8.3917649725E+02	0.000E+00	0.0
	14	1	6	6	0	0	-1.9001414803E+02	-1.2330277367E+02	-1.9659991474E+02	4.4225046854E+02	3.2500000000E+02	0.000E+00	0.0
	-14	1	6	6	0	0	3.8560705195E+01	7.2304414794E+01	-8.1851038863E+02	8.8447674513E+02	3.2500000000E+02	0.000E+00	0.0
	25	2	5	5	0	0	1.5145344284E+02	5.0998358879E+01	-2.5404023128E+02	3.2518579017E+02	1.2518139264E+02	0.000E+00	0.0
	-5	1	9	9	0	501	-1.4132461623E+01	-1.0452372387E+01	-6.0479553030E+01	6.3120735854E+01	4.1800000000E+00	0.000E+00	0.0
	5	1	9	9	501	0	1.6558590446E+02	6.1450731266E+01	-1.9356067825E+02	2.6206505432E+02	4.1800000000E+00	0.000E+00	0.0
</event>
<event>
    11  -1  1.0000000E+00  1.0000000E+00  -1.0000000E+00  -1.0000000E+00
	2212	-1	0	0	0	0	0.0000000000E+00	0.0000000000E+00	6.5000000000E+03	6.5000000000E+03	9.3827000000E-01	0.000E+00	0.0
	2212	-1	0	0	0	0	0.0000000000E+00	0.0000000000E+00	-6.5000000000E+03	6.5000000000E+03	9.3827000000E-01	0.000E+00	0.0
	2212	1	0	0	0	0	0.0000000000E+00	0.0000000000E+00	6.3100743585E+03	6.3100743585E+03	9.3827000000E-01	0.000E+00	0.0
	2212	1	0	0	0	0	0.0000000000E+00	0.0000000000E+00	-5.0468858890E+03	5.0468858890E+03	9.3827000000E-01	0.000E+00	0.0
	51	2	1	2	0	0	-7.3963821699E+01	9.0773533326E+01	-1.3833050282E+03	1.7410278002E+03	1.0506828821E+03	0.000E+00	0.0
	1000022	2	5	5	0	0	7.3963821699E+01	-9.0773533326E+01	-9.3107369631E+02	1.2693038633E+03	8.5470672641E+02	0.000E+00	0.0
	14	1	6	6	0	0	-1.5295101332E+02	-8.7326118659E+01	-7.4445464081E+02	8.3117842591E+02	3.2500000000E+02	0.000E+00	0.0
	-14	1	6	6	0	0	2.2691483502E+02	-3.4474146662E+00	-1.8661905550E+02	4.3812543740E+02	3.2500000000E+02	0.000E+00	0.0
	25	2	5	5	0	0	-7.3963821699E+01	9.0773533326E+01	-3.3211477315E+02	3.7373588917E+02	1.2517112699E+02	0.000E+00	0.0
	-5	1	9	9	0	501	-4.3991922279E+01	-9.2708791801E+00	-3.0406759204E+01	5.4436034314E+01	4.1800000000E+00	0.000E+00	0.0
	5	1	9	9	501	0	-2.9971899420E+01	1.0004441251E+02	-3.0170801395E+02	3.1929985485E+02	4.1800000000E+00	0.000E+00	0.0
</event>
<event>
    11  -1  1.0000000E+00  1.0000000E+00  -1.0000000E+00  -1.0000000E+00
	2212	-1	0	0	0	0	0.0000000000E+00	0.0000000000E+00	6.5000000000E+03	6.5000000000E+03	9.3827000000E-01	0.000E+00	0.0
	2212	-1	0	0	0	0	0.0000000000E+00	0.0000000000E+00	-6.5000000000E+03	6.5000000000E+03	9.3827000000E-01	0.000E+00	0.0
	2212	1	0	0	0	0	0.0000000000E+00	0.0000000000E+00	5.9804152453E+03	5.9804152453E+03	9.3827000000E-01	0.000E+00	0.0
	2212	1	0	0	0	0	0.0000000000E+00	0.0000000000E+00	-5.9649724946E+03	5.9649724946E+03	9.3827000000E-01	0.000E+00	0.0
	51	2	1	2	0	0	1.2363402485E+02	3.1756882187E+00	-9.5304951662E+01	1.0659957934E+03	1.0544991895E+03	0.000E+00	0.0
	1000022	2	5	5	0	0	-1.2363402485E+02	-3.1756882187E+00	6.7098830219E+01	8.6024922340E+02	8.4866425413E+02	0.000E+00	0.0
	14	1	6	6	0	0	-2.4148031099E+02	-1.7951361011E+02	1.4178854759E+02	4.6504501829E+02	3.2500000000E+02	0.000E+00	0.0
	-14	1	6	6	0	0	1.1784628614E+02	1.7633792189E+02	-7.4689717371E+01	3.9520420511E+02	3.2500000000E+02	0.000E+00	0.0
	25	2	5	5	0	0	1.2363402485E+02	3.1756882187E+00	-8.2541580869E+01	1.9436303675E+02	1.2517356105E+02	0.000E+00	0.0
	-5	1	9	9	0	501	-1.5407495556E+01	2.9233346240E+01	-7.3706013843E+00	3.4114184974E+01	4.1800000000E+00	0.000E+00	0.0
	5	1	9	9	501	0	1.3904152041E+02	-2.6057658021E+01	-7.5170979485E+01	1.6024885177E+02	4.1800000000E+00	0.000E+00	0.0
</event>
<event>
    11  -1  1.0000000E+00  1.0000000E+00  -1.0000000E+00  -1.0000000E+00
	2212	-1	0	0	0	0	0.0000000000E+00	0.0000000000E+00	6.5000000000E+03	6.5000000000E+03	9.3827000000E-01	0.000E+00	0.0
	2212	-1	0	0	0	0	0.0000000000E+00	0.0000000000E+00	-6.5000000000E+03	6.5000000000E+03	9.3827000000E-01	0.000E+00	0.0
	2212	1	0	0	0	0	0.0000000000E+00	0.0000000000E+00	5.8910954373E+03	5.8910954373E+03	9.3827000000E-01	0.000E+00	0.0
	2212	1	0	0	0	0	0.0000000000E+00	0.0000000000E+00	-6.0476844201E+03	6.0476844201E+03	9.3827000000E-01	0.000E+00	0.0
	51	2	1	2	0	0	-1.3461252225E+02	-3.4141214613E+01	2.1125771713E+02	1.0796221831E+03	1.0496037736E+03	0.000E+00	0.0
	1000022	2	5	5	0	0	1.3461252225E+02	3.4141214613E+01	7.4506017838E+01	8.5702895396E+02	8.4241398822E+02	0.000E+00	0.0
	14	1	6	6	0	0	-1.9260513274E+02	4.0286375413E+01	-3.9330101652E+01	3.8195757107E+02	3.2500000000E+02	0.000E+00	0.0
	-14	1	6	6	0	0	3.2721765499E+02	-6.1451608001E+00	1.1383611949E+02	4.7507138289E+02	3.2500000000E+02	0.000E+00	0.0
	25	2	5	5	0	0	-1.3461252225E+02	-3.4141214613E+01	8.2082964952E+01	2.0419118861E+02	1.2518096776E+02	0.000E+00	0.0
	-5	1	9	9	0	501	-4.5011029782E+01	-7.2959872405E+01	1.9134827672E+01	8.7936055253E+01	4.1800000000E+00	0.000E+00	0.0
	5	1	9	9	501	0	-8.9601492465E+01	3.8818657792E+01	6.2948137280E+01	1.1625513336E+02	4.1800000000E+00	0.000E+00	0.0
</event>
<event>
    11  -1  1.0000000E+00  1.0000000E+00  -1.0000000E+00  -1.0000000E+00
	2212	-1	0	0	0	0	0.0000000000E+00	0.0000000000E+00	6.5000000000E+03	6.5000000000E+03	9.3827000000E-01	0.000E+00	0.0
	2212	-1	0	0	0	0	0.0000000000E+00	0.0000000000E+00	-6.5000000000E+03	6.5000000000E+03	9.3827000000E-01	0.000E+00	0.0
	2212	1	0	0	0	0	0.0000000000E+00	0.0000000000E+00	5.3834177549E+03	5.3834177549E+03	9.3827000000E-01	0.000E+00	0.0
	2212	1	0	0	0	0	0.0000000000E+00	0.0000000000E+00	-6.2569739506E+03	6.2569739506E+03	9.3827000000E-01	0.000E+00	0.0
	51	2	1	2	0	0	1.3114156621E+02	-5.5180674848E+01	8.6960922010E+02	1.3645136497E+03	1.0418417766E+03	0.000E+00	0.0
	1000022	2	5	5	0	0	-1.3114156621E+02	5.5180674848E+01	7.2656129404E+02	1.1197760629E+03	8.4009767270E+02	0.000E+00	0.0
	14	1	6	6	0	0	-1.4469934492E+02	1.6348455703E+01	3.9126211680E+01	3.5827507988E+02	3.2500000000E+02	0.000E+00	0.0
	-14	1	6	6	0	0	1.3557778709E+01	3.8832219145E+01	6.8743508236E+02	7.6150098297E+02	3.2500000000E+02	0.000E+00	0.0
	25	2	5	5	0	0	1.3114156621E+02	-5.5180674848E+01	1.4699490172E+02	2.3983223167E+02	1.2517580019E+02	0.000E+00	0.0
	-5	1	9	9	0	501	9.9030501961E+01	-1.5375442742E+01	1.5819195593E+02	1.8731153696E+02	4.1800000000E+00	0.000E+00	0.0
	5	1	9	9	501	0	3.2111064247E+01	-3.9805232106E+01	-1.1197054208E+01	5.2520694712E+01	4.1800000000E+00	0.000E+00	0.0
</event>
<event>
    11  -1  1.0000000E+00  1.0000000E+00  -1.0000000E+00  -1.0000000E+00
	2212	-1	0	0	0	0	0.0000000000E+00	0.0000000000E+00	6.5000000000E+03	6.5000000000E+03	9.3827000000E-01	0.000E+00	0.0
	2212	-1	0	0	0	0	0.0000000000E+00	0.0000000000E+00	-6.5000000000E+03	6.5000000000E+03	9.3827000000E-01	0.000E+00	0.0
	2212	1	0	0	0	0	0.0000000000E+00	0.0000000000E+00	6.2116758210E+03	6.2116758210E+03	9.3827000000E-01	0.000E+00	0.0
	2212	1	0	0	0	0	0.0000000000E+00	0.0000000000E+00	-5.5614712813E+03	5.5614712813E+03	9.3827000000E-01	0.000E+00	0.0
	51	2	1	2	0	0	-1.2745910038E+02	-8.2007179102E+00	-5.6586957545E+02	1.1911857703E+03	1.0403855483E+03	0.000E+00	0.0
	1000022	2	5	5	0	0	1.2745910038E+02	8.2007179102E+00	-6.1946720747E+02	1.0453933027E+03	8.3234275524E+02	0.000E+00	0.0
	14	1	6	6	0	0	-1.2408960456E+02	-4.5827253894E+01	-7.1155615032E+01	3.5803140743E+02	3.2500000000E+02	0.000E+00	0.0
	-14	1	6	6	0	0	2.5154870494E+02	5.4027971804E+01	-5.4831159244E+02	6.8736189529E+02	3.2500000000E+02	0.000E+00	0.0
	25	2	5	5	0	0	-1.2745910038E+02	-8.2007179102E+00	-3.0737332290E+01	1.8145959495E+02	1.2517877999E+02	0.000E+00	0.0
	-5	1	9	9	0	501	-1.4715426582E+02	-2.1801530740E+01	-4.2067268372E+01	1.5465061319E+02	4.1800000000E+00	0.000E+00	0.0
	5	1	9	9	501	0	1.9695165440E+01	1.3600812830E+01	1.1329936083E+01	2.6808981759E+01	4.1800000000E+00	0.000E+00	0.0
</event>
<event>
    11  -1  1.0000000E+00  1.0000000E+00  -1.0000000E+00  -1.0000000E+00
	2212	-1	0	0	0	0	0.0000000000E+00	0.0000000000E+00	6.5000000000E+03	6.5000000000E+03	9.3827000000E-01	0.000E+00	0.0
	2212	-1	0	0	0	0	0.0000000000E+00	0.0000000000E+00	-6.5000000000E+03	6.5000000000E+03	9.3827000000E-01	0.000E+00	0.0
	2212	1	0	0	0	0	0.0000000000E+00	0.0000000000E+00	6.2388858123E+03	6.2388858123E+03	9.3827000000E-01	0.000E+00	0.0
	2212	1	0	0	0	0	0.0000000000E+00	0.0000000000E+00	-5.4599350967E+03	5.4599350967E+03	9.3827000000E-01	0.000E+00	0.0
	51	2	1	2	0	0	1.2395863458E+02	-3.4438404194E+00	-7.0467546317E+02	1.2642183043E+03	1.0422585137E+03	0.000E+00	0.0
	1000022	2	5	5	0	0	-1.2395863458E+02	3.4438404194E+00	-7.1983722212E+02	1.1153239231E+03	8.4285480592E+02	0.000E+00	0.0
	14	1	6	6	0	0	6.5102804110E+01	4.0066558125E+01	-3.8257390902E+01	3.3605406134E+02	3.2500000000E+02	0.000E+00	0.0
	-14	1	6	6	0	0	-1.8906143869E+02	-3.6622717705E+01	-6.8157983122E+02	7.7926986172E+02	3.2500000000E+02	0.000E+00	0.0
	25	2	5	5	0	0	1.2395863458E+02	-3.4438404194E+00	-5.9113493547E+01	1.8585516795E+02	1.2518041064E+02	0.000E+00	0.0
	-5	1	9	9	0	501	-1.4332132485E+01	9.5547273729E+00	-4.2318645635E+01	4.5880747652E+01	4.1800000000E+00	0.000E+00	0.0
	5	1	9	9	501	0	1.3829076707E+02	-1.2998567792E+01	-1.6794847912E+01	1.3997442029E+02	4.1800000000E+00	0.000E+00	0.0
</event>
<event>
    11  -1  1.0000000E+00  1.0000000E+00  -1.0000000E+00  -1.0000000E+00
	2212	-1	0	0	0	0	0.0000000000E+00	0.0000000000E+00	6.5000000000E+03	6.5000000000E+03	9.3827000000E-01	0.000E+00	0.0
	2212	-1	0	0	0	0	0.0000000000E+00	0.0000000000E+00	-6.5000000000E+03	6.5000000000E+03	9.3827000000E-01	0.000E+00	0.0
	2212	1	0	0	0	0	0.0000000000E+00	0.0000000000E+00	6.2477151103E+03	6.2477151103E+03	9.3827000000E-01	0.000E+00	0.0
	2212	1	0	0	0	0	0.0000000000E+00	0.0000000000E+00	-5.4118364313E+03	5.4118364313E+03	9.3827000000E-01	0.000E+00	0.0
	51	2	1	2	0	0	4.9872093670E+01	-7.5608286190E+01	-8.2616770101E+02	1.3374848831E+03	1.0479069155E+03	0.000E+00	0.0
	1000022	2	5	5	0	0	-4.9872093670E+01	7.5608286190E+01	-7.2523204073E+02	1.1504017497E+03	8.8840240547E+02	0.000E+00	0.0
	14	1	6	6	0	0	-9.2032242115E+01	-2.1670187530E+02	-1.5393339173E+02	4.2982569192E+02	3.2500000000E+02	0.000E+00	0.0
	-14	1	6	6	0	0	4.2160148446E+01	2.9231016149E+02	-5.7129864900E+02	7.2057605773E+02	3.2500000000E+02	0.000E+00	0.0
	25	2	5	5	0	0	4.9872093670E+01	-7.5608286190E+01	-1.1064663833E+02	1.9004670878E+02	1.2518480049E+02	0.000E+00	0.0
	-5	1	9	9	0	501	4.2845243992E+00	-8.8862449166E+01	-2.5790406617E+01	9.2722756077E+01	4.1800000000E+00	0.000E+00	0.0
	5	1	9	9	501	0	4.5587569271E+01	1.3254162975E+01	-8.4856231715E+01	9.7323952699E+01	4.1800000000E+00	0.000E+00	0.0
</event>
<event>
    11  -1  1.0000000E+00  1.0000000E+00  -1.0000000E+00  -1.0000000E+00
	2212	-1	0	0	0	0	0.0000000000E+00	0.0000000000E+00	6.5000000000E+03	6.5000000000E+03	9.3827000000E-01	0.000E+00	0.0
	2212	-1	0	0	0	0	0.0000000000E+00	0.0000000000E+00	-6.5000000000E+03	6.5000000000E+03	9.3827000000E-01	0.000E+00	0.0
	2212	1	0	0	0	0	0.0000000000E+00	0.0000000000E+00	6.3007766074E+03	6.3007766074E+03	9.3827000000E-01	0.000E+00	0.0
	2212	1	0	0	0	0	0.0000000000E+00	0.0000000000E+00	-5.1127414637E+03	5.1127414637E+03	9.3827000000E-01	0.000E+00	0.0
	51	2	1	2	0	0	1.0931651065E+02	-8.5369569341E+01	-1.1662219391E+03	1.5763277204E+03	1.0514263683E+03	0.000E+00	0.0
	1000022	2	5	5	0	0	-1.0931651065E+02	8.5369569341E+01	-1.0078815477E+03	1.3269331061E+03	8.5187334213E+02	0.000E+00	0.0
	14	1	6	6	0	0	2.1087567263E+02	-3.7406742395E+01	-4.1773091234E+02	5.7095702886E+02	3.2500000000E+02	0.000E+00	0.0
	-14	1	6	6	0	0	-3.2019218329E+02	1.2277631174E+02	-5.9015063536E+02	7.5597607725E+02	3.2500000000E+02	0.000E+00	0.0
	25	2	5	5	0	0	1.0931651065E+02	-8.5369569341E+01	-1.8015359608E+02	2.5954882282E+02	1.2518869907E+02	0.000E+00	0.0
	-5	1	9	9	0	501	4.2940847435E+01	-9.6192399286E-01	7.0188810007E+00	4.3721605262E+01	4.1800000000E+00	0.000E+00	0.0
	5	1	9	9	501	0	6.6375663219E+01	-8.4407645348E+01	-1.8717247708E+02	2.1582721755E+02	4.1800000000E+00	0.000E+00	0.0
</event>
<event>
    11  -1  1.0000000E+00  1.0000000E+00  -1.0000000E+00  -1.0000000E+00
	2212	-1	0	0	0	0	0.0000000000E+00	0.0000000000E+00	6.5000000000E+03	6.5000000000E+03	9.3827000000E-01	0.000E+00	0.0
	2212	-1	0	0	0	0	0.0000000000E+00	0.0000000000E+00	-6.5000000000E+03	6.5000000000E+03	9.3827000000E-01	0.000E+00	0.0
	2212	1	0	0	0	0	0.0000000000E+00	0.0000000000E+00	6.2962593973E+03	6.2962593973E+03	9.3827000000E-01	0.000E+00	0.0
	2212	1	0	0	0	0	0.0000000000E+00	0.0000000000E+00	-5.0736220739E+03	5.0736220739E+03	9.3827000000E-01	0.000E+00	0.0
	51	2	1	2	0	0	-6.5547445960E+01	-1.0652213304E+02	-1.3379618663E+03	1.7228551249E+03	1.0781671453E+03	0.000E+00	0.0
	1000022	2	5	5	0	0	6.5547445960E+01	1.0652213304E+02	-9.0254916913E+02	1.2643745979E+03	8.7658695443E+02	0.000E+00	0.0
	14	1	6	6	0	0	3.7607105899E+01	3.4825453986E+02	-5.2603596104E+02	7.1065768923E+02	3.2500000000E+02	0.000E+00	0.0
	-14	1	6	6	0	0	2.7940340060E+01	-2.4173240683E+02	-3.7651320810E+02	5.5371690870E+02	3.2500000000E+02	0.000E+00	0.0
	25	2	5	5	0	0	-6.5547445960E+01	-1.0652213304E+02	-3.2008815430E+02	3.6574393082E+02	1.2517493325E+02	0.000E+00	0.0
	-5	1	9	9	0	501	-1.7197986893E+01	-7.7295236777E+01	-2.9187800558E+02	3.0245754565E+02	4.1800000000E+00	0.000E+00	0.0
	5	1	9	9	501	0	-4.8349459067E+01	-2.9226896261E+01	-2.8210148717E+01	6.3286385169E+01	4.1800000000E+00	0.000E+00	0.0
</event>
<event>
    11  -1  1.0000000E+00  1.0000000E+00  -1.0000000E+00  -1.0000000E+00
	2212	-1	0	0	0	0	0.0000000000E+00	0.0000000000E+00	6.5000000000E+03	6.5000000000E+03	9.3827000000E-01	0.000E+00	0.0
	2212	-1	0	0	0	0	0.0000000000E+00	0.0000000000E+00	-6.5000000000E+03	6.5000000000E+03	9.3827000000E-01	0.000E+00	0.0
	2212	1	0	0	0	0	0.0000000000E+00	0.0000000000E+00	4.9475529490E+03	4.9475529490E+03	9.3827000000E-01	0.000E+00	0.0
	2212	1	0	0	0	0	0.0000000000E+00	0.0000000000E+00	-6.3182771653E+03	6.3182771653E+03	9.3827000000E-01	0.000E+00	0.0
	51	2	1	2	0	0	-1.4677840135E+02	8.3400168211E+00	1.3744304385E+03	1.7433108732E+03	1.0622901276E+03	0.000E+00	0.0
	1000022	2	5	5	0	0	1.4677840135E+02	-8.3400168211E+00	1.1307290531E+03	1.4260882645E+03	8.5648472931E+02	0.000E+00	0.0
	14	1	6	6	0	0	-6.9643064911E+01	9.9186360356E+01	8.8938653215E+02	9.5463160127E+02	3.2500000000E+02	0.000E+00	0.0
	-14	1	6	6	0	0	2.1642146627E+02	-1.0752637718E+02	2.4134252093E+02	4.7145666318E+02	3.2500000000E+02	0.000E+00	0.0
	25	2	5	5	0	0	-1.4677840135E+02	8.3400168211E+00	2.3999516325E+02	3.0808162122E+02	1.2531221794E+02	0.000E+00	0.0
	-5	1	9	9	0	501	-1.6933927962E+02	2.5767058457E+00	2.0712229983E+02	2.6758092331E+02	4.1800000000E+00	0.000E+00	0.0
	5	1	9	9	501	0	2.2560878262E+01	5.7633109754E+00	3.2872863424E+01	4.0500697908E+01	4.1800000000E+00	0.000E+00	0.0
</event>
<event>
    11  -1  1.0000000E+00  1.0000000E+00  -1.0000000E+00  -1.0000000E+00
	2212	-1	0	0	0	0	0.0000000000E+00	0.0000000000E+00	6.5000000000E+03	6.5000000000E+03	9.3827000000E-01	0.000E+00	0.0
	2212	-1	0	0	0	0	0.0000000000E+00	0.0000000000E+00	-6.5000000000E+03	6.5000000000E+03	9.3827000000E-01	0.000E+00	0.0
	2212	1	0	0	0	0	0.0000000000E+00	0.0000000000E+00	6.0976309651E+03	6.0976309651E+03	9.3827000000E-01	0.000E+00	0.0
	2212	1	0	0	0	0	0.0000000000E+00	0.0000000000E+00	-5.8129919807E+03	5.8129919807E+03	9.3827000000E-01	0.000E+00	0.0
	51	2	1	2	0	0	-8.0668395228E+01	1.0746571939E+02	-3.3008497120E+02	1.1102861675E+03	1.0515336489E+03	0.000E+00	0.0
	1000022	2	5	5	0	0	8.0668395228E+01	-1.0746571939E+02	-1.9077921789E+02	8.8317757816E+02	8.5179202494E+02	0.000E+00	0.0
	14	1	6	6	0	0	2.2511097404E+02	1.0353006906E+02	-2.2799643766E+02	4.6797521453E+02	3.2500000000E+02	0.000E+00	0.0
	-14	1	6	6	0	0	-1.4444257881E+02	-2.1099578845E+02	3.7217219765E+01	4.1520236363E+02	3.2500000000E+02	0.000E+00	0.0
	25	2	5	5	0	0	-8.0668395228E+01	1.0746571939E+02	-9.3859766468E+01	2.0619947600E+02	1.2510914159E+02	0.000E+00	0.0
	-5	1	9	9	0	501	-9.8100761128E+01	5.5904355353E+01	-2.0621914056E+01	1.1485552673E+02	4.1800000000E+00	0.000E+00	0.0
	5	1	9	9	501	0	1.7432365900E+01	5.1561364039E+01	-7.3237852412E+01	9.1343949270E+01	4.1800000000E+00	0.000E+00	0.0
</event>
<event>
    11  -1  1.0000000E+00  1.0000000E+00  -1.0000000E+00  -1.0000000E+00
	2212	-1	0	0	0	0	0.0000000000E+00	0.0000000000E+00	6.5000000000E+03	6.5000000000E+03	9.3827000000E-01	0.000E+00	0.0
	2212	-1	0	0	0	0	0.0000000000E+00	0.0000000000E+00	-6.5000000000E+03	6.5000000000E+03	9.3827000000E-01	0.000E+00	0.0
	2212	1	0	0	0	0	0.0000000000E+00	0.0000000000E+00	5.9375607206E+03	5.9375607206E+03	9.3827000000E-01	0.000E+00	0.0
	2212	1	0	0	0	0	0.0000000000E+00	0.0000000000E+00	-6.0485537364E+03	6.0485537364E+03	9.3827000000E-01	0.000E+00	0.0
	51	2	1	2	0	0	-6.9767330512E+01	-5.1175954794E+01	9.2366362788E+01	1.0157078559E+03	1.0077918658E+03	0.000E+00	0.0
	1000022	2	5	5	0	0	6.9767330512E+01	5.1175954794E+01	1.1315707136E+02	8.6168269080E+02	8.4982708716E+02	0.000E+00	0.0
	14	1	6	6	0	0	1.3860419752E+02	1.7733138798E+02	-1.4646862841E+02	4.2158700625E+02	3.2500000000E+02	0.000E+00	0.0
	-14	1	6	6	0	0	-6.8836867007E+01	-1.2615543318E+02	2.5962569977E+02	4.4009568455E+02	3.2500000000E+02	0.000E+00	0.0
	25	2	5	5	0	0	-6.9767330512E+01	-5.1175954794E+01	-2.1640555503E+00	1.5220285220E+02	1.2519810832E+02	0.000E+00	0.0
	-5	1	9	9	0	501	-2.1021923958E+01	-8.6989108836E+01	1.0682678365E+01	9.0225375366E+01	4.1800000000E+00	0.000E+00	0.0
	5	1	9	9	501	0	-4.8745406554E+01	3.5813154042E+01	-1.2846733915E+01	6.1977476835E+01	4.1800000000E+00	0.000E+00	0.0
</event>
<event>
    11  -1  1.0000000E+00  1.0000000E+00  -1.0000000E+00  -1.0000000E+00
	2212	-1	0	0	0	0	0.0000000000E+00	0.0000000000E+00	6.5000000000E+03	6.5000000000E+03	9.3827000000E-01	0.000E+00	0.0
	2212	-1	0	0	0	0	0.0000000000E+00	0.0000000000E+00	-6.5000000000E+03	6.5000000000E+03	9.3827000000E-01	0.000E+00	0.0
	2212	1	0	0	0	0	0.0000000000E+00	0.0000000000E+00	6.3284423420E+03	6.3284423420E+03	9.3827000000E-01	0.000E+00	0.0
	2212	1	0	0	0	0	0.0000000000E+00	0.0000000000E+00	-4.9016139944E+03	4.9016139944E+03	9.3827000000E-01	0.000E+00	0.0
	51	2	1	2	0	0	8.6744687976E+01	-9.4896203233E+01	-1.4922234612E+03	1.8276001278E+03	1.0473115290E+03	0.000E+00	0.0
	1000022	2	5	5	0	0	-8.6744687976E+01	9.4896203233E+01	-1.1244791803E+03	1.4183518240E+03	8.5483246281E+02	0.000E+00	0.0
	14	1	6	6	0	0	-2.8196000664E+02	5.0578916113E+01	-3.5767690747E+02	5.6179839999E+02	3.2500000000E+02	0.000E+00	0.0
	-14	1	6	6	0	0	1.9521531867E+02	4.4317287120E+01	-7.6680227283E+02	8.5655342402E+02	3.2500000000E+02	0.000E+00	0.0
	25	2	5	5	0	0	8.6744687976E+01	-9.4896203233E+01	-3.0234916731E+02	3.5159183958E+02	1.2518734922E+02	0.000E+00	0.0
	-5	1	9	9	0	501	6.8911552061E+01	7.3157290366E+00	-7.8278563645E+01	1.0462947876E+02	4.1800000000E+00	0.000E+00	0.0
	5	1	9	9	501	0	1.7833135915E+01	-1.0221193227E+02	-2.2407060367E+02	2.4696236082E+02	4.1800000000E+00	0.000E+00	0.0
</event>
<event>
    11  -1  1.0000000E+00  1.0000000E+00  -1.0000000E+00  -1.0000000E+00
	2212	-1	0	0	0	0	0.0000000000E+00	0.0000000000E+00	6.5000000000E+03	6.5000000000E+03	9.3827000000E-01	0.000E+00	0.0
	2212	-1	0	0	0	0	0.0000000000E+00	0.0000000000E+00	-6.5000000000E+03	6.5000000000E+03	9.3827000000E-01	0.000E+00	0.0
	2212	1	0	0	0	0	0.0000000000E+00	0.0000000000E+00	5.3889303453E+03	5.3889303453E+03	9.3827000000E-01	0.000E+00	0.0
	2212	1	0	0	0	0	0.0000000000E+00	0.0000000000E+00	-6.2573631056E+03	6.2573631056E+03	9.3827000000E-01	0.000E+00	0.0
	51	2	1	2	0	0	4.9082705455E+01	-1.3931743197E+01	1.0604064051E+03	1.4850625951E+03	1.0384343802E+03	0.000E+00	0.0
	1000022	2	5	5	0	0	-4.9082705455E+01	1.3931743197E+01	5.2240245272E+02	9.8220811929E+02	8.3019591757E+02	0.000E+00	0.0
	14	1	6	6	0	0	1.9440644618E+02	-1.1534539272E+02	1.7704742348E+02	4.3366947794E+02	3.2500000000E+02	0.000E+00	0.0
	-14	1	6	6	0	0	-2.4348915163E+02	1.2927713592E+02	3.4535502924E+02	5.4853864135E+02	3.2500000000E+02	0.000E+00	0.0
	25	2	5	5	0	0	4.9082705455E+01	-1.3931743197E+01	3.4603030752E+02	3.7149842980E+02	1.2518348203E+02	0.000E+00	0.0
	-5	1	9	9	0	501	4.5787336438E+01	5.1769469322E+01	1.8093329980E+02	1.9372890726E+02	4.1800000000E+00	0.000E+00	0.0
	5	1	9	9	501	0	3.2953690177E+00	-6.5701212518E+01	1.6509700772E+02	1.7776952254E+02	4.1800000000E+00	0.000E+00	0.0
</event>
<event>
    11  -1  1.0000000E+00  1.0000000E+00  -1.0000000E+00  -1.0000000E+00
	2212	-1	0	0	0	0	0.0000000000E+00	0.0000000000E+00	6.5000000000E+03	6.5000000000E+03	9.3827000000E-01	0.000E+00	0.0
	2212	-1	0	0	0	0	0.0000000000E+00	0.0000000000E+00	-6.5000000000E+03	6.5000000000E+03	9.3827000000E-01	0.000E+00	0.0
	2212	1	0	0	0	0	0.0000000000E+00	0.0000000000E+00	4.8330158981E+03	4.8330158981E+03	9.3827000000E-01	0.000E+00	0.0
	2212	1	0	0	0	0	0.0000000000E+00	0.0000000000E+00	-6.3319068557E+03	6.3319068557E+03	9.3827000000E-01	0.000E+00	0.0
	51	2	1	2	0	0	1.4359020854E+02	-2.2792435132E+01	1.5954493714E+03	1.9202684022E+03	1.0586946665E+03	0.000E+00	0.0
	1000022	2	5	5	0	0	-1.4359020854E+02	2.2792435132E+01	1.1381378758E+03	1.4264351939E+03	8.4747973125E+02	0.000E+00	0.0
	14	1	6	6	0	0	-1.8872319304E+02	2.5822820729E+02	5.9786312357E+02	7.5190661997E+02	3.2500000000E+02	0.000E+00	0.0
	-14	1	6	6	0	0	4.5132984506E+01	-2.3543577216E+02	5.4027475224E+02	6.7452857390E+02	3.2500000000E+02	0.000E+00	0.0
	25	2	5	5	0	0	1.4359020854E+02	-2.2792435132E+01	3.6075308176E+02	4.0864205234E+02	1.2533115277E+02	0.000E+00	0.0
	-5	1	9	9	0	501	1.0833095036E+02	-2.7318220550E+01	1.1533858278E+02	1.6063107128E+02	4.1800000000E+00	0.000E+00	0.0
	5	1	9	9	501	0	3.5259258172E+01	4.5257854182E+00	2.4541449897E+02	2.4801098106E+02	4.1800000000E+00	0.000E+00	0.0
</event>
<event>
    11  -1  1.0000000E+00  1.0000000E+00  -1.0000000E+00  -1.0000000E+00
	2212	-1	0	0	0	0	0.0000000000E+00	0.0000000000E+00	6.5000000000E+03	6.5000000000E+03	9.3827000000E-01	0.000E+00	0.0
	2212	-1	0	0	0	0	0.0000000000E+00	0.0000000000E+00	-6.5000000000E+03	6.5000000000E+03	9.3827000000E-01	0.000E+00	0.0
	2212	1	0	0	0	0	0.0000000000E+00	0.0000000000E+00	6.0043614518E+03	6.0043614518E+03	9.3827000000E-01	0.000E+00	0.0
	2212	1	0	0	0	0	0.0000000000E+00	0.0000000000E+00	-5.9449502113E+03	5.9449502113E+03	9.3827000000E-01	0.000E+00	0.0
	51	2	1	2	0	0	1.3083603350E+02	-4.1709184857E+01	-8.5058060600E+01	1.0613712277E+03	1.0490072858E+03	0.000E+00	0.0
	1000022	2	5	5	0	0	-1.3083603350E+02	4.1709184857E+01	-2.3667688113E+01	8.6144464190E+02	8.5009939880E+02	0.000E+00	0.0
	14	1	6	6	0	0	-1.4101371447E+00	-2.4637269057E+02	-1.8190742219E+01	4.0823693396E+02	3.2500000000E+02	0.000E+00	0.0
	-14	1	6	6	0	0	-1.2942589636E+02	2.8808187543E+02	-5.4769458940E+00	4.5320770794E+02	3.2500000000E+02	0.000E+00	0.0
	25	2	5	5	0	0	1.3083603350E+02	-4.1709184857E+01	-3.5743552395E+01	1.8924369492E+02	1.2521122459E+02	0.000E+00	0.0
	-5	1	9	9	0	501	4.4891695844E+00	-3.0548881155E+01	-5.2686021452E+01	6.1210097532E+01	4.1800000000E+00	0.000E+00	0.0
	5	1	9	9	501	0	1.2634686392E+02	-1.1160303702E+01	1.6942469057E+01	1.2803359738E+02	4.1800000000E+00	0.000E+00	0.0
</event>
<event>
    11  -1  1.0000000E+00  1.0000000E+00  -1.0000000E+00  -1.0000000E+00
	2212	-1	0	0	0	0	0.0000000000E+00	0.0000000000E+00	6.5000000000E+03	6.5000000000E+03	9.3827000000E-01	0.000E+00	0.0
	2212	-1	0	0	0	0	0.0000000000E+00	0.0000000000E+00	-6.5000000000E+03	6.5000000000E+03	9.3827000000E-01	0.000E+00	0.0
	2212	1	0	0	0	0	0.0000000000E+00	0.0000000000E+00	6.3057625669E+03	6.3057625669E+03	9.3827000000E-01	0.000E+00	0.0
	2212	1	0	0	0	0	0.0000000000E+00	0.0000000000E+00	-4.8715572987E+03	4.8715572987E+03	9.3827000000E-01	0.000E+00	0.0
	51	2	1	2	0	0	-1.2585047602E+00	-1.2466488398E+02	-1.1779955728E+03	1.6335343913E+03	1.1248191503E+03	0.000E+00	0.0
	1000022	2	5	5	0	0	1.2585047602E+00	1.2466488398E+02	-1.3999911739E+03	1.6427366795E+03	8.5033263730E+02	0.000E+00	0.0
	14	1	6	6	0	0	-6.2426591442E+01	2.5740152638E+02	-3.9395956707E+02	5.7531014730E+02	3.2500000000E+02	0.000E+00	0.0
	-14	1	6	6	0	0	6.3685096202E+01	-1.3273664240E+02	-1.0060316068E+03	1.0674265322E+03	3.2500000000E+02	0.000E+00	0.0
	25	2	5	5	0	0	-1.2585047602E+00	-1.2466488398E+02	-3.4214094385E+01	1.7994345492E+02	1.2516439423E+02	0.000E+00	0.0
	-5	1	9	9	0	501	-5.6850255679E+01	-9.3670121569E+01	-4.9451468728E+00	1.0976324577E+02	4.1800000000E+00	0.000E+00	0.0
	5	1	9	9	501	0	5.5591750919E+01	-3.0994762407E+01	-2.9268947513E+01	7.0180209143E+01	4.1800000000E+00	0.000E+00	0.0
</event>
<event>
    11  -1  1.0000000E+00  1.0000000E+00  -1.0000000E+00  -1.0000000E+00
	2212	-1	0	0	0	0	0.0000000000E+00	0.0000000000E+00	6.5000000000E+03	6.5000000000E+03	9.3827000000E-01	0.000E+00	0.0
	2212	-1	0	0	0	0	0.0000000000E+00	0.0000000000E+00	-6.5000000000E+03	6.5000000000E+03	9.3827000000E-01	0.000E+00	0.0
	2212	1	0	0	0	0	0.0000000000E+00	0.0000000000E+00	4.8698552711E+03	4.8698552711E+03	9.3827000000E-01	0.000E+00	0.0
	2212	1	0	0	0	0	0.0000000000E+00	0.0000000000E+00	-4.0765774570E+03	4.0765774570E+03	9.3827000000E-01	0.000E+00	0.0
	51	2	1	2	0	0	1.2550356822E+03	1.0649043255E+03	7.7197122567E+01	4.3031631527E+03	3.9751877864E+03	0.000E+00	0.0
	1000022	2	5	5	0	0	-1.2550356822E+03	-1.0649043255E+03	-1.3703854915E+03	2.3048951537E+03	8.5173322597E+02	0.000E+00	0.0
	14	1	6	6	0	0	-7.9645638272E+02	-3.3933920221E+02	-8.1158554222E+02	1.2303617176E+03	3.2500000000E+02	0.000E+00	0.0
	-14	1	6	6	0	0	-4.5857929952E+02	-7.2556512333E+02	-5.5879994924E+02	1.0745334362E+03	3.2500000000E+02	0.000E+00	0.0
	25	2	5	5	0	0	1.2550356822E+03	1.0649043255E+03	5.7710767741E+02	1.7486721181E+03	1.2516037372E+02	0.000E+00	0.0
	-5	1	9	9	0	501	8.2980150364E+02	6.2507662895E+02	3.6563631362E+02	1.1013622082E+03	4.1800000000E+00	0.000E+00	0.0
	5	1	9	9	501	0	4.2523417860E+02	4.3982769659E+02	2.1147136379E+02	6.4730990989E+02	4.1800000000E+00	0.000E+00	0.0
</event>
<event>
    11  -1  1.0000000E+00  1.0000000E+00  -1.0000000E+00  -1.0000000E+00
	2212	-1	0	0	0	0	0.0000000000E+00	0.0000000000E+00	6.5000000000E+03	6.5000000000E+03	9.3827000000E-01	0.000E+00	0.0
	2212	-1	0	0	0	0	0.0000000000E+00	0.0000000000E+00	-6.5000000000E+03	6.5000000000E+03	9.3827000000E-01	0.000E+00	0.0
	2212	1	0	0	0	0	0.0000000000E+00	0.0000000000E+00	5.6667227861E+03	5.6667227861E+03	9.3827000000E-01	0.000E+00	0.0
	2212	1	0	0	0	0	0.0000000000E+00	0.0000000000E+00	-6.1690883969E+03	6.1690883969E+03	9.3827000000E-01	0.000E+00	0.0
	51	2	1	2	0	0	-1.5638089862E+02	1.6629242431E+01	4.5906302150E+02	1.1569074162E+03	1.0502211171E+03	0.000E+00	0.0
	1000022	2	5	5	0	0	1.5638089862E+02	-1.6629242431E+01	4.5324708951E+02	9.5729229431E+02	8.2839851246E+02	0.000E+00	0.0
	14	1	6	6	0	0	-1.2607846536E+01	1.7386717266E+02	3.9485856190E+02	5.4030272573E+02	3.2500000000E+02	0.000E+00	0.0
	-14	1	6	6	0	0	1.6898874516E+02	-1.9049641509E+02	5.8388527605E+01	4.1698956858E+02	3.2500000000E+02	0.000E+00	0.0
	25	2	5	5	0	0	-1.5638089862E+02	1.6629242431E+01	4.9118521288E+01	2.0689652276E+02	1.2514801172E+02	0.000E+00	0.0
	-5	1	9	9	0	501	-1.3245718171E+02	-3.5760559783E+01	1.0997325878E+01	1.3770307259E+02	4.1800000000E+00	0.000E+00	0.0
	5	1	9	9	501	0	-2.3923716908E+01	5.2389802213E+01	3.8121195409E+01	6.9193450168E+01	4.1800000000E+00	0.000E+00	0.0
</event>
<event>
    11  -1  1.0000000E+00  1.0000000E+00  -1.0000000E+00  -1.0000000E+00
	2212	-1	0	0	0	0	0.0000000000E+00	0.0000000000E+00	6.5000000000E+03	6.5000000000E+03	9.3827000000E-01	0.000E+00	0.0
	2212	-1	0	0	0	0	0.0000000000E+00	0.0000000000E+00	-6.5000000000E+03	6.5000000000E+03	9.3827000000E-01	0.000E+00	0.0
	2212	1	0	0	0	0	0.0000000000E+00	0.0000000000E+00	6.2130459181E+03	6.2130459181E+03	9.3827000000E-01	0.000E+00	0.0
	2212	1	0	0	0	0	0.0000000000E+00	0.0000000000E+00	-5.5568516179E+03	5.5568516179E+03	9.3827000000E-01	0.000E+00	0.0
	51	2	1	2	0	0	4.6744528973E+01	1.1059657578E+02	-6.4512158355E+02	1.2301055335E+03	1.0404619706E+03	0.000E+00	0.0
	1000022	2	5	5	0	0	-4.6744528973E+01	-1.1059657578E+02	-5.6196866190E+02	1.0327069975E+03	8.5805495876E+02	0.000E+00	0.0
	14	1	6	6	0	0	8.6669389575E+01	-1.7571969538E+02	-1.5515785909E+01	3.7980881249E+02	3.2500000000E+02	0.000E+00	0.0
	-14	1	6	6	0	0	-1.3341391855E+02	6.5123119594E+01	-5.4645287599E+02	6.5289818505E+02	3.2500000000E+02	0.000E+00	0.0
	25	2	5	5	0	0	4.6744528973E+01	1.1059657578E+02	-9.4225638261E+01	1.9739546644E+02	1.2517925427E+02	0.000E+00	0.0
	-5	1	9	9	0	501	-4.0434811895E+01	2.7485028375E+01	-4.7014837545E+01	6.7957840954E+01	4.1800000000E+00	0.000E+00	0.0
	5	1	9	9	501	0	8.7179340868E+01	8.3111547408E+01	-4.7210800715E+01	1.2943762548E+02	4.1800000000E+00	0.000E+00	0.0
</event>
<event>
    11  -1  1.0000000E+00  1.0000000E+00  -1.0000000E+00  -1.0000000E+00
	2212	-1	0	0	0	0	0.0000000000E+00	0.0000000000E+00	6.5000000000E+03	6.5000000000E+03	9.3827000000E-01	0.000E+00	0.0
	2212	-1	0	0	0	0	0.0000000000E+00	0.0000000000E+00	-6.5000000000E+03	6.5000000000E+03	9.3827000000E-01	0.000E+00	0.0
	2212	1	0	0	0	0	0.0000000000E+00	0.0000000000E+00	5.6285372819E+03	5.6285372819E+03	9.3827000000E-01	0.000E+00	0.0
	2212	1	0	0	0	0	0.0000000000E+00	0.0000000000E+00	-6.1843292315E+03	6.1843292315E+03	9.3827000000E-01	0.000E+00	0.0
	51	2	1	2	0	0	9.1055339275E+01	8.2573696627E+01	4.8157999729E+02	1.1607799135E+03	1.0489905737E+03	0.000E+00	0.0
	1000022	2	5	5	0	0	-9.1055339275E+01	-8.2573696627E+01	5.3495239165E+02	1.0104635525E+03	8.4838260203E+02	0.000E+00	0.0
	14	1	6	6	0	0	-2.4600695000E+02	-2.1640991398E+02	2.0869852530E+02	5.0649061668E+02	3.2500000000E+02	0.000E+00	0.0
	-14	1	6	6	0	0	1.5495161073E+02	1.3383621736E+02	3.2625386635E+02	5.0397293583E+02	3.2500000000E+02	0.000E+00	0.0
	25	2	5	5	0	0	9.1055339275E+01	8.2573696627E+01	2.0839557975E+01	1.7666993407E+02	1.2517383210E+02	0.000E+00	0.0
	-5	1	9	9	0	501	2.2237197543E+01	-2.2155693782E+01	3.8714148808E+01	5.0016251753E+01	4.1800000000E+00	0.000E+00	0.0
	5	1	9	9	501	0	6.8818141732E+01	1.0472939041E+02	-1.7874590832E+01	1.2665368232E+02	4.1800000000E+00	0.000E+00	0.0
</event>
<event>
    11  -1  1.0000000E+00  1.0000000E+00  -1.0000000E+00  -1.0000000E+00
	2212	-1	0	0	0	0	0.0000000000E+00	0.0000000000E+00	6.5000000000E+03	6.5000000000E+03	9.3827000000E-01	0.000E+00	0.0
	2212	-1	0	0	0	0	0.0000000000E+00	0.0000000000E+00	-6.5000000000E+03	6.5000000000E+03	9.3827000000E-01	0.000E+00	0.0
	2212	1	0	0	0	0	0.0000000000E+00	0.0000000000E+00	5.9352699956E+03	5.9352699956E+03	9.3827000000E-01	0.000E+00	0.0
	2212	1	0	0	0	0	0.0000000000E+00	0.0000000000E+00	-6.0245785368E+03	6.0245785368E+03	9.3827000000E-01	0.000E+00	0.0
	51	2	1	2	0	0	-2.6413976782E+01	1.0852300877E+02	1.3548678637E+02	1.0510807157E+03	1.0363103107E+03	0.000E+00	0.0
	1000022	2	5	5	0	0	2.6413976782E+01	-1.0852300877E+02	2.8754852697E+01	8.6179547163E+02	8.5404312056E+02	0.000E+00	0.0
	14	1	6	6	0	0	-1.2449205712E+01	2.1449287673E+02	-5.7782283994E+01	3.9386034230E+02	3.2500000000E+02	0.000E+00	0.0
	-14	1	6	6	0	0	3.8863182494E+01	-3.2301588550E+02	8.6537136691E+01	4.6793512933E+02	3.2500000000E+02	0.000E+00	0.0
	25	2	5	5	0	0	-2.6413976782E+01	1.0852300877E+02	6.0553688571E+01	1.7835599599E+02	1.2517655733E+02	0.000E+00	0.0
	-5	1	9	9	0	501	-6.3017695665E+01	1.1380191469E+02	5.2082706762E+01	1.4018625645E+02	4.1800000000E+00	0.000E+00	0.0
	5	1	9	9	501	0	3.6603718883E+01	-5.2789059208E+00	8.4709818084E+00	3.8169739541E+01	4.1800000000E+00	0.000E+00	0.0
</event>
<event>
    11  -1  1.0000000E+00  1.0000000E+00  -1.0000000E+00  -1.0000000E+00
	2212	-1	0	0	0	0	0.0000000000E+00	0.0000000000E+00	6.5000000000E+03	6.5000000000E+03	9.3827000000E-01	0.000E+00	0.0
	2212	-1	0	0	0	0	0.0000000000E+00	0.0000000000E+00	-6.5000000000E+03	6.5000000000E+03	9.3827000000E-01	0.000E+00	0.0
	2212	1	0	0	0	0	0.0000000000E+00	0.0000000000E+00	6.1683474815E+03	6.1683474815E+03	9.3827000000E-01	0.000E+00	0.0
	2212	1	0	0	0	0	0.0000000000E+00	0.0000000000E+00	-5.6709423404E+03	5.6709423404E+03	9.3827000000E-01	0.000E+00	0.0
	51	2	1	2	0	0	1.2820413112E+02	-1.8117855704E+01	-5.6368974282E+02	1.1976422359E+03	1.0487307772E+03	0.000E+00	0.0
	1000022	2	5	5	0	0	-1.2820413112E+02	1.8117855704E+01	-3.4616645971E+02	9.2553516525E+02	8.4853966811E+02	0.000E+00	0.0
	14	1	6	6	0	0	2.0522133727E+02	6.5471020918E+01	-1.4262666007E+02	4.1517419960E+02	3.2500000000E+02	0.000E+00	0.0
	-14	1	6	6	0	0	-3.3342546839E+02	-4.7353165214E+01	-2.0353979964E+02	5.1036096566E+02	3.2500000000E+02	0.000E+00	0.0
	25	2	5	5	0	0	1.2820413112E+02	-1.8117855704E+01	-1.5123868142E+02	2.3517501279E+02	1.2517824073E+02	0.000E+00	0.0
	-5	1	9	9	0	501	6.9910759436E+01	5.0974460922E+01	-9.5309799922E+01	1.2879184878E+02	4.1800000000E+00	0.000E+00	0.0
	5	1	9	9	501	0	5.8293371688E+01	-6.9092316626E+01	-5.5928881498E+01	1.0638316401E+02	4.1800000000E+00	0.000E+00	0.0
</event>
<event>
    11  -1  1.0000000E+00  1.0000000E+00  -1.0000000E+00  -1.0000000E+00
	2212	-1	0	0	0	0	0.0000000000E+00	0.0000000000E+00	6.5000000000E+03	6.5000000000E+03	9.3827000000E-01	0.000E+00	0.0
	2212	-1	0	0	0	0	0.0000000000E+00	0.0000000000E+00	-6.5000000000E+03	6.5000000000E+03	9.3827000000E-01	0.000E+00	0.0
	2212	1	0	0	0	0	0.0000000000E+00	0.0000000000E+00	6.1483845557E+03	6.1483845557E+03	9.3827000000E-01	0.000E+00	0.0
	2212	1	0	0	0	0	0.0000000000E+00	0.0000000000E+00	-5.6066337223E+03	5.6066337223E+03	9.3827000000E-01	0.000E+00	0.0
	51	2	1	2	0	0	1.4779530859E+01	-8.0163069536E+01	-3.4299407007E+02	1.1750638311E+03	1.1209306503E+03	0.000E+00	0.0
	1000022	2	5	5	0	0	-1.4779530859E+01	8.0163069536E+01	-6.3374286285E+02	1.0695467053E+03	8.5770367050E+02	0.000E+00	0.0
	14	1	6	6	0	0	-1.5177277303E+02	4.3352235487E+01	-2.1397753995E+01	3.6193542909E+02	3.2500000000E+02	0.000E+00	0.0
	-14	1	6	6	0	0	1.3699324217E+02	3.6810834049E+01	-6.1234510886E+02	7.0761127623E+02	3.2500000000E+02	0.000E+00	0.0
	25	2	5	5	0	0	1.4779530859E+01	-8.0163069536E+01	9.1992029461E+01	1.7543501673E+02	1.2518130595E+02	0.000E+00	0.0
	-5	1	9	9	0	501	-1.4989948024E+01	-8.1386088393E+01	1.1198813525E+02	1.3930975832E+02	4.1800000000E+00	0.000E+00	0.0
	5	1	9	9	501	0	2.9769478883E+01	1.2230188577E+00	-1.9996105793E+01	3.6125258407E+01	4.1800000000E+00	0.000E+00	0.0
</event>
<event>
    11  -1  1.0000000E+00  1.0000000E+00  -1.0000000E+00  -1.0000000E+00
	2212	-1	0	0	0	0	0.0000000000E+00	0.0000000000E+00	6.5000000000E+03	6.5000000000E+03	9.3827000000E-01	0.000E+00	0.0
	2212	-1	0	0	0	0	0.0000000000E+00	0.0000000000E+00	-6.5000000000E+03	6.5000000000E+03	9.3827000000E-01	0.000E+00	0.0
	2212	1	0	0	0	0	0.0000000000E+00	0.0000000000E+00	5.4923482127E+03	5.4923482127E+03	9.3827000000E-01	0.000E+00	0.0
	2212	1	0	0	0	0	0.0000000000E+00	0.0000000000E+00	-6.2258939996E+03	6.2258939996E+03	9.3827000000E-01	0.000E+00	0.0
	51	2	1	2	0	0	8.5266285250E+01	1.2302402462E+01	8.8429607875E+02	1.3763047803E+03	1.0511011392E+03	0.000E+00	0.0
	1000022	2	5	5	0	0	-8.5266285250E+01	-1.2302402462E+01	4.5563304480E+02	9.6501408447E+02	8.4630315089E+02	0.000E+00	0.0
	14	1	6	6	0	0	2.2811409271E+02	-5.6972950933E+00	2.4663782222E+02	4.6746520064E+02	3.2500000000E+02	0.000E+00	0.0
	-14	1	6	6	0	0	-3.1338037796E+02	-6.6051073686E+00	2.0899522259E+02	4.9754888383E+02	3.2500000000E+02	0.000E+00	0.0
	25	2	5	5	0	0	8.5266285250E+01	1.2302402462E+01	2.7791274213E+02	3.1674370327E+02	1.2517744531E+02	0.000E+00	0.0
	-5	1	9	9	0	501	4.8079935785E+01	4.3536872550E+01	2.5450098506E+02	2.6266968476E+02	4.1800000000E+00	0.000E+00	0.0
	5	1	9	9	501	0	3.7186349465E+01	-3.1234470088E+01	2.3411757072E+01	5.4074018506E+01	4.1800000000E+00	0.000E+00	0.0
</event>
<event>
    11  -1  1.0000000E+00  1.0000000E+00  -1.0000000E+00  -1.0000000E+00
	2212	-1	0	0	0	0	0.0000000000E+00	0.0000000000E+00	6.5000000000E+03	6.5000000000E+03	9.3827000000E-01	0.000E+00	0.0
	2212	-1	0	0	0	0	0.0000000000E+00	0.0000000000E+00	-6.5000000000E+03	6.5000000000E+03	9.3827000000E-01	0.000E+00	0.0
	2212	1	0	0	0	0	0.0000000000E+00	0.0000000000E+00	5.5084623286E+03	5.5084623286E+03	9.3827000000E-01	0.000E+00	0.0
	2212	1	0	0	0	0	0.0000000000E+00	0.0000000000E+00	-6.2213026452E+03	6.2213026452E+03	9.3827000000E-01	0.000E+00	0.0
	51	2	1	2	0	0	2.0708292415E+01	1.4909451204E+02	6.2882833694E+02	1.2342766258E+03	1.0513589799E+03	0.000E+00	0.0
	1000022	2	5	5	0	0	-2.0708292415E+01	-1.4909451204E+02	6.6335199855E+02	1.0683045892E+03	8.2376016800E+02	0.000E+00	0.0
	14	1	6	6	0	0	2.4236225310E+01	-3.1141524985E+02	2.4731279041E+02	5.1415510185E+02	3.2500000000E+02	0.000E+00	0.0
	-14	1	6	6	0	0	-4.4944517725E+01	1.6232073781E+02	4.1603920814E+02	5.5414948733E+02	3.2500000000E+02	0.000E+00	0.0
	25	2	5	5	0	0	2.0708292415E+01	1.4909451204E+02	4.9488318032E+01	2.0193043695E+02	1.2517508080E+02	0.000E+00	0.0
	-5	1	9	9	0	501	-1.0247941361E+01	-1.4770557743E+01	-1.4285673964E+01	2.3339720624E+01	4.1800000000E+00	0.000E+00	0.0
	5	1	9	9	501	0	3.0956233776E+01	1.6386506978E+02	6.3773991996E+01	1.7859071633E+02	4.1800000000E+00	0.000E+00	0.0
</event>
<event>
    11  -1  1.0000000E+00  1.0000000E+00  -1.0000000E+00  -1.0000000E+00
	2212	-1	0	0	0	0	0.0000000000E+00	0.0000000000E+00	6.5000000000E+03	6.5000000000E+03	9.3827000000E-01	0.000E+00	0.0
	2212	-1	0	0	0	0	0.0000000000E+00	0.0000000000E+00	-6.5000000000E+03	6.5000000000E+03	9.3827000000E-01	0.000E+00	0.0
	2212	1	0	0	0	0	0.0000000000E+00	0.0000000000E+00	5.7962932059E+03	5.7962932059E+03	9.3827000000E-01	0.000E+00	0.0
	2212	1	0	0	0	0	0.0000000000E+00	0.0000000000E+00	-6.1098065363E+03	6.1098065363E+03	9.3827000000E-01	0.000E+00	0.0
	51	2	1	2	0	0	-6.4303178411E+01	-5.2273575196E+01	1.9437912021E+02	1.0691014140E+03	1.0480110522E+03	0.000E+00	0.0
	1000022	2	5	5	0	0	6.4303178411E+01	5.2273575196E+01	3.7864103136E+02	9.3026139036E+02	8.4566529925E+02	0.000E+00	0.0
	14	1	6	6	0	0	2.9725218888E+02	-4.0620615130E+00	1.4488769522E+02	4.6367316977E+02	3.2500000000E+02	0.000E+00	0.0
	-14	1	6	6	0	0	-2.3294901047E+02	5.6335636709E+01	2.3375333614E+02	4.6658822060E+02	3.2500000000E+02	0.000E+00	0.0
	25	2	5	5	0	0	-6.4303178411E+01	-5.2273575196E+01	-6.5127700947E+01	1.6363886738E+02	1.2517442259E+02	0.000E+00	0.0
	-5	1	9	9	0	501	3.1149301697E+01	-4.3312616937E+01	-3.0651363735E+01	6.1670416579E+01	4.1800000000E+00	0.000E+00	0.0
	5	1	9	9	501	0	-9.5452480109E+01	-8.9609582585E+00	-3.4476337211E+01	1.0196845080E+02	4.1800000000E+00	0.000E+00	0.0
</event>
<event>
    11  -1  1.0000000E+00  1.0000000E+00  -1.0000000E+00  -1.0000000E+00
	2212	-1	0	0	0	0	0.0000000000E+00	0.0000000000E+00	6.5000000000E+03	6.5000000000E+03	9.3827000000E-01	0.000E+00	0.0
	2212	-1	0	0	0	0	0.0000000000E+00	0.0000000000E+00	-6.5000000000E+03	6.5000000000E+03	9.3827000000E-01	0.000E+00	0.0
	2212	1	0	0	0	0	0.0000000000E+00	0.0000000000E+00	4.9056277689E+03	4.9056277689E+03	9.3827000000E-01	0.000E+00	0.0
	2212	1	0	0	0	0	0.0000000000E+00	0.0000000000E+00	-6.3236629923E+03	6.3236629923E+03	9.3827000000E-01	0.000E+00	0.0
	51	2	1	2	0	0	-1.4212972933E+02	-8.6143370870E+01	1.6075160087E+03	1.9329553984E+03	1.0604656118E+03	0.000E+00	0.0
	1000022	2	5	5	0	0	1.4212972933E+02	8.6143370870E+01	9.4365303708E+02	1.2527049609E+03	8.0694926996E+02	0.000E+00	0.0
	14	1	6	6	0	0	1.8064867903E+02	-9.2831880039E+01	2.2870625980E+02	4.4629951429E+02	3.2500000000E+02	0.000E+00	0.0
	-14	1	6	6	0	0	-3.8518949693E+01	1.7897525091E+02	7.1494677728E+02	8.0640544658E+02	3.2500000000E+02	0.000E+00	0.0
	25	2	5	5	0	0	-1.4212972933E+02	-8.6143370870E+01	4.7438218630E+02	5.1800427798E+02	1.2517361152E+02	0.000E+00	0.0
	-5	1	9	9	0	501	-1.2766218523E+02	-7.4757689250E+00	2.8849666112E+02	3.1559676256E+02	4.1800000000E+00	0.000E+00	0.0
	5	1	9	9	501	0	-1.4467544100E+01	-7.8667601945E+01	1.8588552517E+02	2.0240751542E+02	4.1800000000E+00	0.000E+00	0.0
</event>
<event>
    11  -1  1.0000000E+00  1.0000000E+00  -1.0000000E+00  -1.0000000E+00
	2212	-1	0	0	0	0	0.0000000000E+00	0.0000000000E+00	6.5000000000E+03	6.5000000000E+03	9.3827000000E-01	0.000E+00	0.0
	2212	-1	0	0	0	0	0.0000000000E+00	0.0000000000E+00	-6.5000000000E+03	6.5000000000E+03	9.3827000000E-01	0.000E+00	0.0
	2212	1	0	0	0	0	0.0000000000E+00	0.0000000000E+00	5.7969097827E+03	5.7969097827E+03	9.3827000000E-01	0.000E+00	0.0
	2212	1	0	0	0	0	0.0000000000E+00	0.0000000000E+00	-6.1063842930E+03	6.1063842930E+03	9.3827000000E-01	0.000E+00	0.0
	51	2	1	2	0	0	-4.3278038233E+01	-1.3730627865E+02	3.2053056828E+02	1.1092588786E+03	1.0521356433E+03	0.000E+00	0.0
	1000022	2	5	5	0	0	4.3278038233E+01	1.3730627865E+02	2.4514654172E+02	8.9536966748E+02	8.4903710859E+02	0.000E+00	0.0
	14	1	6	6	0	0	-2.2960925587E+01	-2.0329425229E+02	1.3760641049E+02	4.0794151705E+02	3.2500000000E+02	0.000E+00	0.0
	-14	1	6	6	0	0	6.6238963820E+01	3.4060053095E+02	1.0754013122E+02	4.8742815043E+02	3.2500000000E+02	0.000E+00	0.0
	25	2	5	5	0	0	-4.3278038233E+01	-1.3730627865E+02	6.4327968654E+01	2.0133625682E+02	1.2518864968E+02	0.000E+00	0.0
	-5	1	9	9	0	501	1.0413317955E+01	-8.8113839325E+01	8.7619645703E+01	1.2476842784E+02	4.1800000000E+00	0.000E+00	0.0
	5	1	9	9	501	0	-5.3691356187E+01	-4.9192439329E+01	-2.3291677048E+01	7.6567828989E+01	4.1800000000E+00	0.000E+00	0.0
</event>
<event>
    11  -1  1.0000000E+00  1.0000000E+00  -1.0000000E+00  -1.0000000E+00
	2212	-1	0	0	0	0	0.0000000000E+00	0.0000000000E+00	6.5000000000E+03	6.5000000000E+03	9.3827000000E-01	0.000E+00	0.0
	2212	-1	0	0	0	0	0.0000000000E+00	0.0000000000E+00	-6.5000000000E+03	6.5000000000E+03	9.3827000000E-01	0.000E+00	0.0
	2212	1	0	0	0	0	0.0000000000E+00	0.0000000000E+00	6.2538587896E+03	6.2538587896E+03	9.3827000000E-01	0.000E+00	0.0
	2212	1	0	0	0	0	0.0000000000E+00	0.0000000000E+00	-5.3200118221E+03	5.3200118221E+03	9.3827000000E-01	0.000E+00	0.0
	51	2	1	2	0	0	9.4248680990E+01	-1.5400730423E+02	-8.8103457955E+02	1.4037798500E+03	1.0778566107E+03	0.000E+00	0.0
	1000022	2	5	5	0	0	-9.4248680990E+01	1.5400730423E+02	-8.0536638503E+02	1.1716163976E+03	8.3154609331E+02	0.000E+00	0.0
	14	1	6	6	0	0	5.9960127084E+01	2.4945142570E+01	-6.4013708684E+01	3.3755033977E+02	3.2500000000E+02	0.000E+00	0.0
	-14	1	6	6	0	0	-1.5420880807E+02	1.2906216166E+02	-7.4135267635E+02	8.3406605781E+02	3.2500000000E+02	0.000E+00	0.0
	25	2	5	5	0	0	9.4248680990E+01	-1.5400730423E+02	-1.2848058249E+02	2.5451299069E+02	1.2517403377E+02	0.000E+00	0.0
	-5	1	9	9	0	501	-1.8586264946E+00	-1.1616947225E+02	-7.1255873873E+01	1.3635861812E+02	4.1800000000E+00	0.000E+00	0.0
	5	1	9	9	501	0	9.6107307485E+01	-3.7837831982E+01	-5.7224708620E+01	1.1815437257E+02	4.1800000000E+00	0.000E+00	0.0
</event>
<event>
    11  -1  1.0000000E+00  1.0000000E+00  -1.0000000E+00  -1.0000000E+00
	2212	-1	0	0	0	0	0.0000000000E+00	0.0000000000E+00	6.5000000000E+03	6.5000000000E+03	9.3827000000E-01	0.000E+00	0.0
	2212	-1	0	0	0	0	0.0000000000E+00	0.0000000000E+00	-6.5000000000E+03	6.5000000000E+03	9.3827000000E-01	0.000E+00	0.0
	2212	1	0	0	0	0	0.0000000000E+00	0.0000000000E+00	6.2804560957E+03	6.2804560957E+03	9.3827000000E-01	0.000E+00	0.0
	2212	1	0	0	0	0	0.0000000000E+00	0.0000000000E+00	-5.2322837198E+03	5.2322837198E+03	9.3827000000E-01	0.000E+00	0.0
	51	2	1	2	0	0	1.0592683463E+02	-5.5593794649E+01	-1.1751387364E+03	1.5838370310E+03	1.0551196742E+03	0.000E+00	0.0
	1000022	2	5	5	0	0	-1.0592683463E+02	5.5593794649E+01	-7.4036754166E+02	1.1340901783E+03	8.5070868780E+02	0.000E+00	0.0
	14	1	6	6	0	0	-2.4120684207E+02	-5.4046317687E+01	-1.4404258529E+02	4.3298384669E+02	3.2500000000E+02	0.000E+00	0.0
	-14	1	6	6	0	0	1.3528000745E+02	1.0964011234E+02	-5.9632495637E+02	7.0110633162E+02	3.2500000000E+02	0.000E+00	0.0
	25	2	5	5	0	0	1.0592683463E+02	-5.5593794649E+01	-3.0780483422E+02	3.5317000620E+02	1.2519613815E+02	0.000E+00	0.0
	-5	1	9	9	0	501	5.0221813809E+01	-1.3821990547E+01	-2.6761162636E+02	2.7266597325E+02	4.1800000000E+00	0.000E+00	0.0
	5	1	9	9	501	0	5.5705020818E+01	-4.1771804101E+01	-4.0193207860E+01	8.0504032945E+01	4.1800000000E+00	0.000E+00	0.0
</event>
<event>
    11  -1  1.0000000E+00  1.0000000E+00  -1.0000000E+00  -1.0000000E+00
	2212	-1	0	0	0	0	0.0000000000E+00	0.0000000000E+00	6.5000000000E+03	6.5000000000E+03	9.3827000000E-01	0.000E+00	0.0
	2212	-1	0	0	0	0	0.0000000000E+00	0.0000000000E+00	-6.5000000000E+03	6.5000000000E+03	9.3827000000E-01	0.000E+00	0.0
	2212	1	0	0	0	0	0.0000000000E+00	0.0000000000E+00	5.7816845526E+03	5.7816845526E+03	9.3827000000E-01	0.000E+00	0.0
	2212	1	0	0	0	0	0.0000000000E+00	0.0000000000E+00	-6.1116956610E+03	6.1116956610E+03	9.3827000000E-01	0.000E+00	0.0
	51	2	1	2	0	0	6.1281893052E+01	8.4137369239E+01	4.1833094169E+02	1.1408485281E+03	1.0562670212E+03	0.000E+00	0.0
	1000022	2	5	5	0	0	-6.1281893052E+01	-8.4137369239E+01	1.8734529888E+02	8.9015374688E+02	8.6396809244E+02	0.000E+00	0.0
	14	1	6	6	0	0	7.2036713082E+01	5.5354118076E+01	3.4320145513E+02	4.8131653329E+02	3.2500000000E+02	0.000E+00	0.0
	-14	1	6	6	0	0	-1.3331860613E+02	-1.3949148731E+02	-1.5585615624E+02	4.0883721359E+02	3.2500000000E+02	0.000E+00	0.0
	25	2	5	5	0	0	6.1281893052E+01	8.4137369239E+01	1.4266580954E+02	2.1646603955E+02	1.2517765675E+02	0.000E+00	0.0
	-5	1	9	9	0	501	7.5808894592E+01	5.5694912236E+01	1.5550490323E+02	1.8179152642E+02	4.1800000000E+00	0.000E+00	0.0
	5	1	9	9	501	0	-1.4527001540E+01	2.8442457003E+01	-1.2839093693E+01	3.4674513132E+01	4.1800000000E+00	0.000E+00	0.0
</event>
<event>
    11  -1  1.0000000E+00  1.0000000E+00  -1.0000000E+00  -1.0000000E+00
	2212	-1	0	0	0	0	0.0000000000E+00	0.0000000000E+00	6.5000000000E+03	6.5000000000E+03	9.3827000000E-01	0.000E+00	0.0
	2212	-1	0	0	0	0	0.0000000000E+00	0.0000000000E+00	-6.5000000000E+03	6.5000000000E+03	9.3827000000E-01	0.000E+00	0.0
	2212	1	0	0	0	0	0.0000000000E+00	0.0000000000E+00	6.3099165629E+03	6.3099165629E+03	9.3827000000E-01	0.000E+00	0.0
	2212	1	0	0	0	0	0.0000000000E+00	0.0000000000E+00	-5.0729763976E+03	5.0729763976E+03	9.3827000000E-01	0.000E+00	0.0
	51	2	1	2	0	0	4.8118719035E+01	4.6682655455E+01	-1.4406152299E+03	1.7790112779E+03	1.0416401513E+03	0.000E+00	0.0
	1000022	2	5	5	0	0	-4.8118719035E+01	-4.6682655455E+01	-8.2071095164E+02	1.1773212833E+03	8.4144177252E+02	0.000E+00	0.0
	14	1	6	6	0	0	6.2864143731E+01	1.4175215749E+02	-1.2921743356E+02	3.8258034432E+02	3.2500000000E+02	0.000E+00	0.0
	-14	1	6	6	0	0	-1.1098286277E+02	-1.8843481295E+02	-6.9149351807E+02	7.9474093898E+02	3.2500000000E+02	0.000E+00	0.0
	25	2	5	5	0	0	4.8118719035E+01	4.6682655455E+01	-4.1622921365E+02	4.3978575625E+02	1.2518015685E+02	0.000E+00	0.0
	-5	1	9	9	0	501	1.0873836706E+01	-1.0206859154E+01	-3.2776181770E+02	3.2812756946E+02	4.1800000000E+00	0.000E+00	0.0
	5	1	9	9	501	0	3.7244882329E+01	5.6889514609E+01	-8.8467395948E+01	1.1165818679E+02	4.1800000000E+00	0.000E+00	0.0
</event>
<event>
    11  -1  1.0000000E+00  1.0000000E+00  -1.0000000E+00  -1.0000000E+00
	2212	-1	0	0	0	0	0.0000000000E+00	0.0000000000E+00	6.5000000000E+03	6.5000000000E+03	9.3827000000E-01	0.000E+00	0.0
	2212	-1	0	0	0	0	0.0000000000E+00	0.0000000000E+00	-6.5000000000E+03	6.5000000000E+03	9.3827000000E-01	0.000E+00	0.0
	2212	1	0	0	0	0	0.0000000000E+00	0.0000000000E+00	5.1817898598E+03	5.1817898598E+03	9.3827000000E-01	0.000E+00	0.0
	2212	1	0	0	0	0	0.0000000000E+00	0.0000000000E+00	-6.2949554871E+03	6.2949554871E+03	9.3827000000E-01	0.000E+00	0.0
	51	2	1	2	0	0	9.2383142774E+01	-1.9670328013E+01	9.6745042896E+02	1.4233934537E+03	1.0397918179E+03	0.000E+00	0.0
	1000022	2	5	5	0	0	-9.2383142774E+01	1.9670328013E+01	1.0669920132E+03	1.3605354072E+03	8.3884627374E+02	0.000E+00	0.0
	14	1	6	6	0	0	-1.1758249272E+01	-2.4199458921E+02	3.9878450941E+02	5.6864199860E+02	3.2500000000E+02	0.000E+00	0.0
	-14	1	6	6	0	0	-8.0624893502E+01	2.6166491722E+02	6.6820750381E+02	7.9189340855E+02	3.2500000000E+02	0.000E+00	0.0
	25	2	5	5	0	0	9.2383142774E+01	-1.9670328013E+01	4.6173614016E+01	1.6271924595E+02	1.2419333113E+02	0.000E+00	0.0
	-5	1	9	9	0	501	7.9208630770E+01	4.2459969936E+01	1.2872007926E+01	9.0884636895E+01	4.1800000000E+00	0.000E+00	0.0
	5	1	9	9	501	0	1.3174512004E+01	-6.2130297949E+01	3.3301606090E+01	7.1834609054E+01	4.1800000000E+00	0.000E+00	0.0
</event>
<event>
    11  -1  1.0000000E+00  1.0000000E+00  -1.0000000E+00  -1.0000000E+00
	2212	-1	0	0	0	0	0.0000000000E+00	0.0000000000E+00	6.5000000000E+03	6.5000000000E+03	9.3827000000E-01	0.000E+00	0.0
	2212	-1	0	0	0	0	0.0000000000E+00	0.0000000000E+00	-6.5000000000E+03	6.5000000000E+03	9.3827000000E-01	0.000E+00	0.0
	2212	1	0	0	0	0	0.0000000000E+00	0.0000000000E+00	4.8837234556E+03	4.8837234556E+03	9.3827000000E-01	0.000E+00	0.0
	2212	1	0	0	0	0	0.0000000000E+00	0.0000000000E+00	-6.3307436661E+03	6.3307436661E+03	9.3827000000E-01	0.000E+00	0.0
	51	2	1	2	0	0	-5.4498273498E+01	-6.2259274900E+01	1.3062017308E+03	1.6754907969E+03	1.0460689125E+03	0.000E+00	0.0
	1000022	2	5	5	0	0	5.4498273498E+01	6.2259274900E+01	1.3567279035E+03	1.6103986330E+03	8.6361268741E+02	0.000E+00	0.0
	14	1	6	6	0	0	1.4516737903E+02	6.3261837900E+00	2.0905259078E+02	4.1284570271E+02	3.2500000000E+02	0.000E+00	0.0
	-14	1	6	6	0	0	-9.0669105535E+01	5.5933091110E+01	1.1476753127E+03	1.1975529303E+03	3.2500000000E+02	0.000E+00	0.0
	25	2	5	5	0	0	-5.4498273498E+01	-6.2259274900E+01	9.0292307066E+01	1.7513424532E+02	1.2519194879E+02	0.000E+00	0.0
	-5	1	9	9	0	501	2.1794460389E+01	-4.2085186197E+01	-8.8046193974E+00	4.8385484638E+01	4.1800000000E+00	0.000E+00	0.0
	5	1	9	9	501	0	-7.6292733888E+01	-2.0174088703E+01	9.9096926463E+01	1.2674876068E+02	4.1800000000E+00	0.000E+00	0.0
</event>
<event>
    11  -1  1.0000000E+00  1.0000000E+00  -1.0000000E+00  -1.0000000E+00
	2212	-1	0	0	0	0	0.0000000000E+00	0.0000000000E+00	6.5000000000E+03	6.5000000000E+03	9.3827000000E-01	0.000E+00	0.0
	2212	-1	0	0	0	0	0.0000000000E+00	0.0000000000E+00	-6.5000000000E+03	6.5000000000E+03	9.3827000000E-01	0.000E+00	0.0
	2212	1	0	0	0	0	0.0000000000E+00	0.0000000000E+00	6.0632238674E+03	6.0632238674E+03	9.3827000000E-01	0.000E+00	0.0
	2212	1	0	0	0	0	0.0000000000E+00	0.0000000000E+00	-5.8502367385E+03	5.8502367385E+03	9.3827000000E-01	0.000E+00	0.0
	51	2	1	2	0	0	-8.0243077452E+01	1.2156436657E+02	-1.5746794097E+02	1.0868382295E+03	1.0654596839E+03	0.000E+00	0.0
	1000022	2	5	5	0	0	8.0243077452E+01	-1.2156436657E+02	-2.3075741770E+02	8.9366711007E+02	8.5098476550E+02	0.000E+00	0.0
	14	1	6	6	0	0	-1.9349236684E+02	-1.8173426638E+02	-1.9586647626E+02	4.6309320457E+02	3.2500000000E+02	0.000E+00	0.0
	-14	1	6	6	0	0	2.7373544429E+02	6.0169899814E+01	-3.4890941444E+01	4.3057390550E+02	3.2500000000E+02	0.000E+00	0.0
	25	2	5	5	0	0	-8.0243077452E+01	1.2156436657E+02	1.7770288821E+01	1.9287228406E+02	1.2516823917E+02	0.000E+00	0.0
	-5	1	9	9	0	501	-3.9145615369E+01	1.0277857976E+02	6.4635503009E+01	1.2763634400E+02	4.1800000000E+00	0.000E+00	0.0
	5	1	9	9	501	0	-4.1097462082E+01	1.8785786807E+01	-4.6865214187E+01	6.5235940066E+01	4.1800000000E+00	0.000E+00	0.0
</event>
<event>
    11  -1  1.0000000E+00  1.0000000E+00  -1.0000000E+00  -1.0000000E+00
	2212	-1	0	0	0	0	0.0000000000E+00	0.0000000000E+00	6.5000000000E+03	6.5000000000E+03	9.3827000000E-01	0.000E+00	0.0
	2212	-1	0	0	0	0	0.0000000000E+00	0.0000000000E+00	-6.5000000000E+03	6.5000000000E+03	9.3827000000E-01	0.000E+00	0.0
	2212	1	0	0	0	0	0.0000000000E+00	0.0000000000E+00	6.2952605281E+03	6.2952605281E+03	9.3827000000E-01	0.000E+00	0.0
	2212	1	0	0	0	0	0.0000000000E+00	0.0000000000E+00	-5.1773630839E+03	5.1773630839E+03	9.3827000000E-01	0.000E+00	0.0
	51	2	1	2	0	0	1.0675652371E+02	5.8876952462E+01	-1.2086389898E+03	1.5996423330E+03	1.0407612286E+03	0.000E+00	0.0
	1000022	2	5	5	0	0	-1.0675652371E+02	-5.8876952462E+01	-8.3943308746E+02	1.1986259233E+03	8.4687233081E+02	0.000E+00	0.0
	14	1	6	6	0	0	-1.5580897730E+02	-2.8084835523E+02	-4.9076502289E+02	6.7054272327E+02	3.2500000000E+02	0.000E+00	0.0
	-14	1	6	6	0	0	4.9052453599E+01	2.2197140277E+02	-3.4866806457E+02	5.2808319998E+02	3.2500000000E+02	0.000E+00	0.0
	25	2	5	5	0	0	1.0675652371E+02	5.8876952462E+01	-2.7846435672E+02	3.2875046479E+02	1.2518394167E+02	0.000E+00	0.0
	-5	1	9	9	0	501	-1.1590724604E+01	5.1391232208E+01	-5.8597216852E+01	7.8908237007E+01	4.1800000000E+00	0.000E+00	0.0
	5	1	9	9	501	0	1.1834724831E+02	7.4857202536E+00	-2.1986713986E+02	2.4984222778E+02	4.1800000000E+00	0.000E+00	0.0
</event>
<event>
    11  -1  1.0000000E+00  1.0000000E+00  -1.0000000E+00  -1.0000000E+00
	2212	-1	0	0	0	0	0.0000000000E+00	0.0000000000E+00	6.5000000000E+03	6.5000000000E+03	9.3827000000E-01	0.000E+00	0.0
	2212	-1	0	0	0	0	0.0000000000E+00	0.0000000000E+00	-6.5000000000E+03	6.5000000000E+03	9.3827000000E-01	0.000E+00	0.0
	2212	1	0	0	0	0	0.0000000000E+00	0.0000000000E+00	6.2953650594E+03	6.2953650594E+03	9.3827000000E-01	0.000E+00	0.0
	2212	1	0	0	0	0	0.0000000000E+00	0.0000000000E+00	-5.1446452426E+03	5.1446452426E+03	9.3827000000E-01	0.000E+00	0.0
	51	2	1	2	0	0	7.3186310652E+01	4.9810026079E+01	-1.0060173883E+03	1.4592189765E+03	1.0532861724E+03	0.000E+00	0.0
	1000022	2	5	5	0	0	-7.3186310652E+01	-4.9810026079E+01	-1.1025391477E+03	1.3992757029E+03	8.5705463407E+02	0.000E+00	0.0
	14	1	6	6	0	0	-1.0753034551E+02	9.8626845428E+01	-9.4001013724E+02	1.0052532457E+03	3.2500000000E+02	0.000E+00	0.0
	-14	1	6	6	0	0	3.4344034859E+01	-1.4843687151E+02	-1.6252901045E+02	3.9402245722E+02	3.2500000000E+02	0.000E+00	0.0
	25	2	5	5	0	0	7.3186310652E+01	4.9810026079E+01	-4.8180669111E+01	1.6071399509E+02	1.2518121495E+02	0.000E+00	0.0
	-5	1	9	9	0	501	-2.7648791610E+01	4.2894184713E+01	-7.8037525762E+00	5.1795151452E+01	4.1800000000E+00	0.000E+00	0.0
	5	1	9	9	501	0	1.0083510226E+02	6.9158413662E+00	-4.0376916535E+01	1.0891884363E+02	4.1800000000E+00	0.000E+00	0.0
</event>
<event>
    11  -1  1.0000000E+00  1.0000000E+00  -1.0000000E+00  -1.0000000E+00
	2212	-1	0	0	0	0	0.0000000000E+00	0.0000000000E+00	6.5000000000E+03	6.5000000000E+03	9.3827000000E-01	0.000E+00	0.0
	2212	-1	0	0	0	0	0.0000000000E+00	0.0000000000E+00	-6.5000000000E+03	6.5000000000E+03	9.3827000000E-01	0.000E+00	0.0
	2212	1	0	0	0	0	0.0000000000E+00	0.0000000000E+00	6.3334018386E+03	6.3334018386E+03	9.3827000000E-01	0.000E+00	0.0
	2212	1	0	0	0	0	0.0000000000E+00	0.0000000000E+00	-4.8417100551E+03	4.8417100551E+03	9.3827000000E-01	0.000E+00	0.0
	51	2	1	2	0	0	2.1514575199E+01	-1.2686806241E+02	-1.5960599971E+03	1.9154733410E+03	1.0512241547E+03	0.000E+00	0.0
	1000022	2	5	5	0	0	-2.1514575199E+01	1.2686806241E+02	-1.1349378012E+03	1.4255421794E+03	8.5295270121E+02	0.000E+00	0.0
	14	1	6	6	0	0	1.9849104262E+02	-1.0677322462E+02	-6.3749726250E+02	7.5021795179E+02	3.2500000000E+02	0.000E+00	0.0
	-14	1	6	6	0	0	-2.2000561782E+02	2.3364128703E+02	-4.9744053873E+02	6.7532422765E+02	3.2500000000E+02	0.000E+00	0.0
	25	2	5	5	0	0	2.1514575199E+01	-1.2686806241E+02	-3.5675398231E+02	3.9934592684E+02	1.2508150616E+02	0.000E+00	0.0
	-5	1	9	9	0	501	4.4270945111E+01	-1.4388601697E+02	-2.9382239992E+02	3.3016992225E+02	4.1800000000E+00	0.000E+00	0.0
	5	1	9	9	501	0	-2.2756369911E+01	1.7017954566E+01	-6.2931582388E+01	6.9176004590E+01	4.1800000000E+00	0.000E+00	0.0
</event>
<event>
    11  -1  1.0000000E+00  1.0000000E+00  -1.0000000E+00  -1.0000000E+00
	2212	-1	0	0	0	0	0.0000000000E+00	0.0000000000E+00	6.5000000000E+03	6.5000000000E+03	9.3827000000E-01	0.000E+00	0.0
	2212	-1	0	0	0	0	0.0000000000E+00	0.0000000000E+00	-6.5000000000E+03	6.5000000000E+03	9.3827000000E-01	0.000E+00	0.0
	2212	1	0	0	0	0	0.0000000000E+00	0.0000000000E+00	6.1999451523E+03	6.1999451523E+03	9.3827000000E-01	0.000E+00	0.0
	2212	1	0	0	0	0	0.0000000000E+00	0.0000000000E+00	-5.5624139418E+03	5.5624139418E+03	9.3827000000E-01	0.000E+00	0.0
	51	2	1	2	0	0	-1.5594044588E+02	-3.5631126109E+01	-6.7526507959E+02	1.2676272698E+03	1.0608058106E+03	0.000E+00	0.0
	1000022	2	5	5	0	0	1.5594044588E+02	3.5631126109E+01	-4.8411500158E+02	9.8308013158E+02	8.4053090993E+02	0.000E+00	0.0
	14	1	6	6	0	0	2.3471668462E+02	-1.9738729415E+02	-2.2744031596E+02	5.0140578702E+02	3.2500000000E+02	0.000E+00	0.0
	-14	1	6	6	0	0	-7.8776238739E+01	2.3301842026E+02	-2.5667468563E+02	4.8167434457E+02	3.2500000000E+02	0.000E+00	0.0
	25	2	5	5	0	0	-1.5594044588E+02	-3.5631126109E+01	-1.5341620885E+02	2.5456077434E+02	1.2521044239E+02	0.000E+00	0.0
	-5	1	9	9	0	501	1.4460107263E+01	-2.7449882723E+01	-1.4415662650E+01	3.4465555171E+01	4.1800000000E+00	0.000E+00	0.0
	5	1	9	9	501	0	-1.7040055315E+02	-8.1812433862E+00	-1.3900054620E+02	2.2009521917E+02	4.1800000000E+00	0.000E+00	0.0
</event>
<event>
    11  -1  1.0000000E+00  1.0000000E+00  -1.0000000E+00  -1.0000000E+00
	2212	-1	0	0	0	0	0.0000000000E+00	0.0000000000E+00	6.5000000000E+03	6.5000000000E+03	9.3827000000E-01	0.000E+00	0.0
	2212	-1	0	0	0	0	0.0000000000E+00	0.0000000000E+00	-6.5000000000E+03	6.5000000000E+03	9.3827000000E-01	0.000E+00	0.0
	2212	1	0	0	0	0	0.0000000000E+00	0.0000000000E+00	6.2179613183E+03	6.2179613183E+03	9.3827000000E-01	0.000E+00	0.0
	2212	1	0	0	0	0	0.0000000000E+00	0.0000000000E+00	-5.6351361021E+03	5.6351361021E+03	9.3827000000E-01	0.000E+00	0.0
	51	2	1	2	0	0	-3.9163610556E+01	1.9168676212E+01	-5.4507721184E+02	1.1290308622E+03	9.8777542713E+02	0.000E+00	0.0
	1000022	2	5	5	0	0	3.9163610556E+01	-1.9168676212E+01	-5.4083292233E+02	1.0078587222E+03	8.4933958315E+02	0.000E+00	0.0
	14	1	6	6	0	0	1.8996169423E+02	1.5036190128E+02	-1.0499391796E+02	4.1873962010E+02	3.2500000000E+02	0.000E+00	0.0
	-14	1	6	6	0	0	-1.5079808367E+02	-1.6953057749E+02	-4.3583900437E+02	5.8911910211E+02	3.2500000000E+02	0.000E+00	0.0
	25	2	5	5	0	0	-3.9163610556E+01	1.9168676212E+01	-4.1992293901E+01	1.3904385740E+02	1.2517433841E+02	0.000E+00	0.0
	-5	1	9	9	0	501	1.1983636667E+01	-1.8665311092E+01	3.3397186582E+01	4.0309376794E+01	4.1800000000E+00	0.000E+00	0.0
	5	1	9	9	501	0	-5.1147247223E+01	3.7833987305E+01	-7.5389480483E+01	9.8734480611E+01	4.1800000000E+00	0.000E+00	0.0
</event>
<event>
    11  -1  1.0000000E+00  1.0000000E+00  -1.0000000E+00  -1.0000000E+00
	2212	-1	0	0	0	0	0.0000000000E+00	0.0000000000E+00	6.5000000000E+03	6.5000000000E+03	9.3827000000E-01	0.000E+00	0.0
	2212	-1	0	0	0	0	0.0000000000E+00	0.0000000000E+00	-6.5000000000E+03	6.5000000000E+03	9.3827000000E-01	0.000E+00	0.0
	2212	1	0	0	0	0	0.0000000000E+00	0.0000000000E+00	4.7584644403E+03	4.7584644403E+03	9.3827000000E-01	0.000E+00	0.0
	2212	1	0	0	0	0	0.0000000000E+00	0.0000000000E+00	-6.2493263638E+03	6.2493263638E+03	9.3827000000E-01	0.000E+00	0.0
	51	2	1	2	0	0	1.9997984755E+02	2.9987313516E+02	1.4014492064E+03	1.9596438249E+03	1.3214492822E+03	0.000E+00	0.0
	1000022	2	5	5	0	0	-1.9997984755E+02	-2.9987313516E+02	1.1942301933E+03	1.5089110349E+03	8.4894694771E+02	0.000E+00	0.0
	14	1	6	6	0	0	-1.0886699656E+02	1.3277387844E+01	8.9836844647E+02	9.6162319938E+02	3.2500000000E+02	0.000E+00	0.0
	-14	1	6	6	0	0	-9.1112850991E+01	-3.1315052300E+02	2.9586174683E+02	5.4728783552E+02	3.2500000000E+02	0.000E+00	0.0
	25	2	5	5	0	0	1.9997984755E+02	2.9987313516E+02	2.9663173013E+02	4.8329816100E+02	1.2518343536E+02	0.000E+00	0.0
	-5	1	9	9	0	501	1.4694765561E+02	2.1195721298E+02	2.7732482914E+02	3.7874266578E+02	4.1800000000E+00	0.000E+00	0.0
	5	1	9	9	501	0	5.3032191946E+01	8.7915922175E+01	1.9306900989E+01	1.0455549522E+02	4.1800000000E+00	0.000E+00	0.0
</event>
<event>
    11  -1  1.0000000E+00  1.0000000E+00  -1.0000000E+00  -1.0000000E+00
	2212	-1	0	0	0	0	0.0000000000E+00	0.0000000000E+00	6.5000000000E+03	6.5000000000E+03	9.3827000000E-01	0.000E+00	0.0
	2212	-1	0	0	0	0	0.0000000000E+00	0.0000000000E+00	-6.5000000000E+03	6.5000000000E+03	9.3827000000E-01	0.000E+00	0.0
	2212	1	0	0	0	0	0.0000000000E+00	0.0000000000E+00	5.1607684090E+03	5.1607684090E+03	9.3827000000E-01	0.000E+00	0.0
	2212	1	0	0	0	0	0.0000000000E+00	0.0000000000E+00	-6.2919406323E+03	6.2919406323E+03	9.3827000000E-01	0.000E+00	0.0
	51	2	1	2	0	0	1.1582142908E+02	-5.8200321467E+01	1.2468734959E+03	1.6389185788E+03	1.0557266275E+03	0.000E+00	0.0
	1000022	2	5	5	0	0	-1.1582142908E+02	5.8200321467E+01	8.1884405176E+02	1.1867042742E+03	8.4909338269E+02	0.000E+00	0.0
	14	1	6	6	0	0	-2.4640824021E+02	-5.2102852994E+01	1.7785952122E+02	4.4798519777E+02	3.2500000000E+02	0.000E+00	0.0
	-14	1	6	6	0	0	1.3058681113E+02	1.1030317446E+02	6.4098453054E+02	7.3871907646E+02	3.2500000000E+02	0.000E+00	0.0
	25	2	5	5	0	0	1.1582142908E+02	-5.8200321467E+01	3.1232817149E+02	3.6058668443E+02	1.2518781660E+02	0.000E+00	0.0
	-5	1	9	9	0	501	5.5765304105E+01	-9.4390855191E+01	1.9958804932E+02	2.2775483424E+02	4.1800000000E+00	0.000E+00	0.0
	5	1	9	9	501	0	6.0056124973E+01	3.6190533724E+01	1.1274012217E+02	1.3283185019E+02	4.1800000000E+00	0.000E+00	0.0
</event>
<event>
    11  -1  1.0000000E+00  1.0000000E+00  -1.0000000E+00  -1.0000000E+00
	2212	-1	0	0	0	0	0.0000000000E+00	0.0000000000E+00	6.5000000000E+03	6.5000000000E+03	9.3827000000E-01	0.000E+00	0.0
	2212	-1	0	0	0	0	0.0000000000E+00	0.0000000000E+00	-6.5000000000E+03	6.5000000000E+03	9.3827000000E-01	0.000E+00	0.0
	2212	1	0	0	0	0	0.0000000000E+00	0.0000000000E+00	6.1908611564E+03	6.1908611564E+03	9.3827000000E-01	0.000E+00	0.0
	2212	1	0	0	0	0	0.0000000000E+00	0.0000000000E+00	-5.6035019089E+03	5.6035019089E+03	9.3827000000E-01	0.000E+00	0.0
	51	2	1	2	0	0	9.1534032933E+01	8.4262105119E+01	-5.0228022245E+02	1.1731724239E+03	1.0528862868E+03	0.000E+00	0.0
	1000022	2	5	5	0	0	-9.1534032933E+01	-8.4262105119E+01	-5.7023389878E+02	1.0283126861E+03	8.4662961182E+02	0.000E+00	0.0
	14	1	6	6	0	0	-7.2873909355E+01	-3.1252625461E+02	-2.7550883602E+02	5.3339796139E+02	3.2500000000E+02	0.000E+00	0.0
	-14	1	6	6	0	0	-1.8660123578E+01	2.2826414949E+02	-2.9472506277E+02	4.9491472475E+02	3.2500000000E+02	0.000E+00	0.0
	25	2	5	5	0	0	9.1534032933E+01	8.4262105119E+01	-1.7125348712E+01	1.7732424863E+02	1.2518797881E+02	0.000E+00	0.0
	-5	1	9	9	0	501	-5.7003335111E+00	3.2016607140E+01	-5.2013156247E+01	6.1484939275E+01	4.1800000000E+00	0.000E+00	0.0
	5	1	9	9	501	0	9.7234366444E+01	5.2245497979E+01	3.4887807535E+01	1.1583930935E+02	4.1800000000E+00	0.000E+00	0.0
</event>
<event>
    11  -1  1.0000000E+00  1.0000000E+00  -1.0000000E+00  -1.0000000E+00
	2212	-1	0	0	0	0	0.0000000000E+00	0.0000000000E+00	6.5000000000E+03	6.5000000000E+03	9.3827000000E-01	0.000E+00	0.0
	2212	-1	0	0	0	0	0.0000000000E+00	0.0000000000E+00	-6.5000000000E+03	6.5000000000E+03	9.3827000000E-01	0.000E+00	0.0
	2212	1	0	0	0	0	0.0000000000E+00	0.0000000000E+00	4.9877972030E+03	4.9877972030E+03	9.3827000000E-01	0.000E+00	0.0
	2212	1	0	0	0	0	0.0000000000E+00	0.0000000000E+00	-6.3227276390E+03	6.3227276390E+03	9.3827000000E-01	0.000E+00	0.0
	51	2	1	2	0	0	-2.8640480973E+01	1.0546780094E+02	1.5088253370E+03	1.8332443023E+03	1.0355129358E+03	0.000E+00	0.0
	1000022	2	5	5	0	0	2.8640480973E+01	-1.0546780094E+02	9.2544564329E+02	1.2475457058E+03	8.2944373848E+02	0.000E+00	0.0
	14	1	6	6	0	0	-1.7206367652E+02	8.8030540668E+01	6.0207110225E+02	7.1096406170E+02	3.2500000000E+02	0.000E+00	0.0
	-14	1	6	6	0	0	2.0070415749E+02	-1.9349834161E+02	3.2337454104E+02	5.3658164414E+02	3.2500000000E+02	0.000E+00	0.0
	25	2	5	5	0	0	-2.8640480973E+01	1.0546780094E+02	4.0948479270E+02	4.4192945207E+02	1.2522024982E+02	0.000E+00	0.0
	-5	1	9	9	0	501	-4.7703201786E+00	3.8719552576E+01	3.4108324003E+02	3.4333250463E+02	4.1800000000E+00	0.000E+00	0.0
	5	1	9	9	501	0	-2.3870160794E+01	6.6748248366E+01	6.8401552671E+01	9.8596947438E+01	4.1800000000E+00	0.000E+00	0.0
</event>
<event>
    11  -1  1.0000000E+00  1.0000000E+00  -1.0000000E+00  -1.0000000E+00
	2212	-1	0	0	0	0	0.0000000000E+00	0.0000000000E+00	6.5000000000E+03	6.5000000000E+03	9.3827000000E-01	0.000E+00	0.0
	2212	-1	0	0	0	0	0.0000000000E+00	0.0000000000E+00	-6.5000000000E+03	6.5000000000E+03	9.3827000000E-01	0.000E+00	0.0
	2212	1	0	0	0	0	0.0000000000E+00	0.0000000000E+00	5.4436316466E+03	5.4436316466E+03	9.3827000000E-01	0.000E+00	0.0
	2212	1	0	0	0	0	0.0000000000E+00	0.0000000000E+00	-6.2377979571E+03	6.2377979571E+03	9.3827000000E-01	0.000E+00	0.0
	51	2	1	2	0	0	1.2991281252E+02	3.4624351784E+01	7.8548355874E+02	1.3202228475E+03	1.0525814749E+03	0.000E+00	0.0
	1000022	2	5	5	0	0	-1.2991281252E+02	-3.4624351784E+01	6.7045857103E+02	1.0971073336E+03	8.5793567435E+02	0.000E+00	0.0
	14	1	6	6	0	0	-1.2793693787E+02	-2.2834703631E+01	-2.1195955695E+00	3.5002682247E+02	3.2500000000E+02	0.000E+00	0.0
	-14	1	6	6	0	0	-1.9758746509E+00	-1.1789648153E+01	6.7257816660E+02	7.4708051111E+02	3.2500000000E+02	0.000E+00	0.0
	25	2	5	5	0	0	1.2991281252E+02	3.4624351784E+01	1.2370773942E+02	2.2146306271E+02	1.2516428707E+02	0.000E+00	0.0
	-5	1	9	9	0	501	1.0003081129E+02	8.0658355512E+01	8.9646733552E+01	1.5673526329E+02	4.1800000000E+00	0.000E+00	0.0
	5	1	9	9	501	0	2.9882001232E+01	-4.6034003728E+01	3.4061005872E+01	6.4727799421E+01	4.1800000000E+00	0.000E+00	0.0
</event>
<event>
    11  -1  1.0000000E+00  1.0000000E+00  -1.0000000E+00  -1.0000000E+00
	2212	-1	0	0	0	0	0.0000000000E+00	0.0000000000E+00	6.5000000000E+03	6.5000000000E+03	9.3827000000E-01	0.000E+00	0.0
	2212	-1	0	0	0	0	0.0000000000E+00	0.0000000000E+00	-6.5000000000E+03	6.5000000000E+03	9.3827000000E-01	0.000E+00	0.0
	2212	1	0	0	0	0	0.0000000000E+00	0.0000000000E+00	6.1695433488E+03	6.1695433488E+03	9.3827000000E-01	0.000E+00	0.0
	2212	1	0	0	0	0	0.0000000000E+00	0.0000000000E+00	-5.6574972566E+03	5.6574972566E+03	9.3827000000E-01	0.000E+00	0.0
	51	2	1	2	0	0	-9.1983160005E+01	-5.0419860633E+00	-6.4242543794E+02	1.2388863174E+03	1.0552926328E+03	0.000E+00	0.0
	1000022	2	5	5	0	0	9.1983160005E+01	5.0419860633E+00	-2.9331131610E+02	9.0463402821E+02	8.5079073425E+02	0.000E+00	0.0
	14	1	6	6	0	0	2.5393040524E+02	1.3877928873E+02	-2.9211993423E+01	4.3614066795E+02	3.2500000000E+02	0.000E+00	0.0
	-14	1	6	6	0	0	-1.6194724523E+02	-1.3373730267E+02	-2.6409932268E+02	4.6849336025E+02	3.2500000000E+02	0.000E+00	0.0
	25	2	5	5	0	0	-9.1983160005E+01	-5.0419860633E+00	-2.1873477609E+02	2.6832536636E+02	1.2516899221E+02	0.000E+00	0.0
	-5	1	9	9	0	501	-7.3994684794E+01	-5.7807798768E+01	-1.0086515057E+02	1.3787025051E+02	4.1800000000E+00	0.000E+00	0.0
	5	1	9	9	501	0	-1.7988475211E+01	5.2765812705E+01	-1.1786962551E+02	1.3045511584E+02	4.1800000000E+00	0.000E+00	0.0
</event>
<event>
    11  -1  1.0000000E+00  1.0000000E+00  -1.0000000E+00  -1.0000000E+00
	2212	-1	0	0	0	0	0.0000000000E+00	0.0000000000E+00	6.5000000000E+03	6.5000000000E+03	9.3827000000E-01	0.000E+00	0.0
	2212	-1	0	0	0	0	0.0000000000E+00	0.0000000000E+00	-6.5000000000E+03	6.5000000000E+03	9.3827000000E-01	0.000E+00	0.0
	2212	1	0	0	0	0	0.0000000000E+00	0.0000000000E+00	5.3010825058E+03	5.3010825058E+03	9.3827000000E-01	0.000E+00	0.0
	2212	1	0	0	0	0	0.0000000000E+00	0.0000000000E+00	-6.2674294626E+03	6.2674294626E+03	9.3827000000E-01	0.000E+00	0.0
	51	2	1	2	0	0	1.1121793495E+01	-1.4202051199E+02	9.2221624799E+02	1.4092933946E+03	1.0560925830E+03	0.000E+00	0.0
	1000022	2	5	5	0	0	-1.1121793495E+01	1.4202051199E+02	8.4267103780E+02	1.2051040629E+03	8.4963980855E+02	0.000E+00	0.0
	14	1	6	6	0	0	1.4453822456E+02	6.5070442596E+01	7.3835758675E+02	8.2214499133E+02	3.2500000000E+02	0.000E+00	0.0
	-14	1	6	6	0	0	-1.5566001806E+02	7.6950069398E+01	1.0431345105E+02	3.8295907154E+02	3.2500000000E+02	0.000E+00	0.0
	25	2	5	5	0	0	1.1121793495E+01	-1.4202051199E+02	1.2367591899E+02	2.2638396882E+02	1.2514171281E+02	0.000E+00	0.0
	-5	1	9	9	0	501	5.5830519957E+01	-5.0187083451E+01	1.4045455897E+01	7.6488806602E+01	4.1800000000E+00	0.000E+00	0.0
	5	1	9	9	501	0	-4.4708726462E+01	-9.1833428543E+01	1.0963046309E+02	1.4989516222E+02	4.1800000000E+00	0.000E+00	0.0
</event>
<event>
    11  -1  1.0000000E+00  1.0000000E+00  -1.0000000E+00  -1.0000000E+00
	2212	-1	0	0	0	0	0.0000000000E+00	0.0000000000E+00	6.5000000000E+03	6.5000000000E+03	9.3827000000E-01	0.000E+00	0.0
	2212	-1	0	0	0	0	0.0000000000E+00	0.0000000000E+00	-6.5000000000E+03	6.5000000000E+03	9.3827000000E-01	0.000E+00	0.0
	2212	1	0	0	0	0	0.0000000000E+00	0.0000000000E+00	5.3857017702E+03	5.3857017702E+03	9.3827000000E-01	0.000E+00	0.0
	2212	1	0	0	0	0	0.0000000000E+00	0.0000000000E+00	-6.2566612300E+03	6.2566612300E+03	9.3827000000E-01	0.000E+00	0.0
	51	2	1	2	0	0	9.5373701177E+01	7.4491063381E+00	9.9327648242E+02	1.4423444959E+03	1.0414450741E+03	0.000E+00	0.0
	1000022	2	5	5	0	0	-9.5373701177E+01	-7.4491063381E+00	6.0426692259E+02	1.0478793725E+03	8.5074146109E+02	0.000E+00	0.0
	14	1	6	6	0	0	-9.0904876926E+01	-5.6120673861E+01	6.3138035440E+02	7.1810819422E+02	3.2500000000E+02	0.000E+00	0.0
	-14	1	6	6	0	0	-4.4688242506E+00	4.8671567523E+01	-2.7113431804E+01	3.2977117833E+02	3.2500000000E+02	0.000E+00	0.0
	25	2	5	5	0	0	9.5373701177E+01	7.4491063381E+00	2.6669253721E+02	3.0975762716E+02	1.2519283572E+02	0.000E+00	0.0
	-5	1	9	9	0	501	4.3359922998E+00	1.8153877443E+01	1.8772384089E+02	1.8869572580E+02	4.1800000000E+00	0.000E+00	0.0
	5	1	9	9	501	0	9.1037708877E+01	-1.0704771105E+01	7.8968696319E+01	1.2106190136E+02	4.1800000000E+00	0.000E+00	0.0
</event>
<event>
    11  -1  1.0000000E+00  1.0000000E+00  -1.0000000E+00  -1.0000000E+00
	2212	-1	0	0	0	0	0.0000000000E+00	0.0000000000E+00	6.5000000000E+03	6.5000000000E+03	9.3827000000E-01	0.000E+00	0.0
	2212	-1	0	0	0	0	0.0000000000E+00	0.0000000000E+00	-6.5000000000E+03	6.5000000000E+03	9.3827000000E-01	0.000E+00	0.0
	2212	1	0	0	0	0	0.0000000000E+00	0.0000000000E+00	6.3176389955E+03	6.3176389955E+03	9.3827000000E-01	0.000E+00	0.0
	2212	1	0	0	0	0	0.0000000000E+00	0.0000000000E+00	-4.9894553762E+03	4.9894553762E+03	9.3827000000E-01	0.000E+00	0.0
	51	2	1	2	0	0	-6.8033345434E+01	-3.3498096904E+00	-1.5401992159E+03	1.8651303231E+03	1.0496941174E+03	0.000E+00	0.0
	1000022	2	5	5	0	0	6.8033345434E+01	3.3498096904E+00	-8.8916431691E+02	1.2313415339E+03	8.4908717657E+02	0.000E+00	0.0
	14	1	6	6	0	0	-1.6275492120E+02	1.9010381186E+02	-3.9318996026E+02	5.6820064107E+02	3.2500000000E+02	0.000E+00	0.0
	-14	1	6	6	0	0	2.3078826663E+02	-1.8675400217E+02	-4.9597435666E+02	6.6314089288E+02	3.2500000000E+02	0.000E+00	0.0
	25	2	5	5	0	0	-6.8033345434E+01	-3.3498096904E+00	-4.3901930239E+02	4.6156409445E+02	1.2515473662E+02	0.000E+00	0.0
	-5	1	9	9	0	501	3.3795996227E+01	9.7280957110E-01	-1.7974824528E+02	1.8294813418E+02	4.1800000000E+00	0.000E+00	0.0
	5	1	9	9	501	0	-1.0182934166E+02	-4.3226192615E+00	-2.5927105711E+02	2.7861596027E+02	4.1800000000E+00	0.000E+00	0.0
</event>
<event>
    11  -1  1.0000000E+00  1.0000000E+00  -1.0000000E+00  -1.0000000E+00
	2212	-1	0	0	0	0	0.0000000000E+00	0.0000000000E+00	6.5000000000E+03	6.5000000000E+03	9.3827000000E-01	0.000E+00	0.0
	2212	-1	0	0	0	0	0.0000000000E+00	0.0000000000E+00	-6.5000000000E+03	6.5000000000E+03	9.3827000000E-01	0.000E+00	0.0
	2212	1	0	0	0	0	0.0000000000E+00	0.0000000000E+00	6.3029693471E+03	6.3029693471E+03	9.3827000000E-01	0.000E+00	0.0
	2212	1	0	0	0	0	0.0000000000E+00	0.0000000000E+00	-5.0925851891E+03	5.0925851891E+03	9.3827000000E-01	0.000E+00	0.0
	51	2	1	2	0	0	-5.2056423572E+01	2.0289549025E+01	-1.0079495208E+03	1.4588691545E+03	1.0531929720E+03	0.000E+00	0.0
	1000022	2	5	5	0	0	5.2056423572E+01	-2.0289549025E+01	-1.1992033466E+03	1.4668601544E+03	8.4289294047E+02	0.000E+00	0.0
	14	1	6	6	0	0	-1.3003980003E+02	-5.0117500847E+01	-2.1442945209E+02	4.1355423273E+02	3.2500000000E+02	0.000E+00	0.0
	-14	1	6	6	0	0	1.8209622361E+02	2.9827951821E+01	-9.8477389452E+02	1.0533059217E+03	3.2500000000E+02	0.000E+00	0.0
	25	2	5	5	0	0	-5.2056423572E+01	2.0289549025E+01	-1.1180811346E+01	1.3758530933E+02	1.2523246291E+02	0.000E+00	0.0
	-5	1	9	9	0	501	4.1206431102E+01	1.0765554872E+01	-8.9374169718E+00	4.3717467424E+01	4.1800000000E+00	0.000E+00	0.0
	5	1	9	9	501	0	-9.3262854674E+01	9.5239941532E+00	-2.2433943737E+00	9.3867841910E+01	4.1800000000E+00	0.000E+00	0.0
</event>
<event>
    11  -1  1.0000000E+00  1.0000000E+00  -1.0000000E+00  -1.0000000E+00
	2212	-1	0	0	0	0	0.0000000000E+00	0.0000000000E+00	6.5000000000E+03	6.5000000000E+03	9.3827000000E-01	0.000E+00	0.0
	2212	-1	0	0	0	0	0.0000000000E+00	0.0000000000E+00	-6.5000000000E+03	6.5000000000E+03	9.3827000000E-01	0.000E+00	0.0
	2212	1	0	0	0	0	0.0000000000E+00	0.0000000000E+00	6.0314327127E+03	6.0314327127E+03	9.3827000000E-01	0.000E+00	0.0
	2212	1	0	0	0	0	0.0000000000E+00	0.0000000000E+00	-5.9041703879E+03	5.9041703879E+03	9.3827000000E-01	0.000E+00	0.0
	51	2	1	2	0	0	8.8970994165E+01	-1.2292066926E+02	-1.3565165200E+02	1.0761838875E+03	1.0567615911E+03	0.000E+00	0.0
	1000022	2	5	5	0	0	-8.8970994165E+01	1.2292066926E+02	-9.6474979923E+01	8.6527732429E+02	8.4638767563E+02	0.000E+00	0.0
	14	1	6	6	0	0	1.6866386780E+02	-6.0923687726E+01	-1.6547899029E+02	4.0640803665E+02	3.2500000000E+02	0.000E+00	0.0
	-14	1	6	6	0	0	-2.5763486196E+02	1.8384435698E+02	6.9004010370E+01	4.5886928764E+02	3.2500000000E+02	0.000E+00	0.0
	25	2	5	5	0	0	8.8970994165E+01	-1.2292066926E+02	-3.0787344871E+01	1.9911957519E+02	1.2520150114E+02	0.000E+00	0.0
	-5	1	9	9	0	501	2.8529253947E+01	-1.0421733524E+02	2.9017371765E+01	1.1195825811E+02	4.1800000000E+00	0.000E+00	0.0
	5	1	9	9	501	0	6.0441740218E+01	-1.8703334022E+01	-5.9804716636E+01	8.7161317085E+01	4.1800000000E+00	0.000E+00	0.0
</event>
<event>
    11  -1  1.0000000E+00  1.0000000E+00  -1.0000000E+00  -1.0000000E+00
	2212	-1	0	0	0	0	0.0000000000E+00	0.0000000000E+00	6.5000000000E+03	6.5000000000E+03	9.3827000000E-01	0.000E+00	0.0
	2212	-1	0	0	0	0	0.0000000000E+00	0.0000000000E+00	-6.5000000000E+03	6.5000000000E+03	9.3827000000E-01	0.000E+00	0.0
	2212	1	0	0	0	0	0.0000000000E+00	0.0000000000E+00	4.9894123803E+03	4.9894123803E+03	9.3827000000E-01	0.000E+00	0.0
	2212	1	0	0	0	0	0.0000000000E+00	0.0000000000E+00	-6.3190186594E+03	6.3190186594E+03	9.3827000000E-01	0.000E+00	0.0
	51	2	1	2	0	0	9.6534146299E+01	-5.5659954504E+01	1.2059663581E+03	1.6001013777E+03	1.0457306968E+03	0.000E+00	0.0
	1000022	2	5	5	0	0	-9.6534146299E+01	5.5659954504E+01	1.2268114049E+03	1.4949587284E+03	8.4700561078E+02	0.000E+00	0.0
	14	1	6	6	0	0	-1.2706325534E+02	8.6481716154E+01	1.8814363557E+02	4.0576740344E+02	3.2500000000E+02	0.000E+00	0.0
	-14	1	6	6	0	0	3.0529109040E+01	-3.0821761650E+01	1.0386677693E+03	1.0891913250E+03	3.2500000000E+02	0.000E+00	0.0
	25	2	5	5	0	0	9.6534146299E+01	-5.5659954504E+01	1.0279487416E+02	1.9661023183E+02	1.2518755997E+02	0.000E+00	0.0
	-5	1	9	9	0	501	6.8898426288E+01	-4.4983264595E+01	-7.1197503785E+00	8.2696133428E+01	4.1800000000E+00	0.000E+00	0.0
	5	1	9	9	501	0	2.7635720011E+01	-1.0676689909E+01	1.0991462454E+02	1.1391409841E+02	4.1800000000E+00	0.000E+00	0.0
</event>
<event>
    11  -1  1.0000000E+00  1.0000000E+00  -1.0000000E+00  -1.0000000E+00
	2212	-1	0	0	0	0	0.0000000000E+00	0.0000000000E+00	6.5000000000E+03	6.5000000000E+03	9.3827000000E-01	0.000E+00	0.0
	2212	-1	0	0	0	0	0.0000000000E+00	0.0000000000E+00	-6.5000000000E+03	6.5000000000E+03	9.3827000000E-01	0.000E+00	0.0
	2212	1	0	0	0	0	0.0000000000E+00	0.0000000000E+00	6.1603731974E+03	6.1603731974E+03	9.3827000000E-01	0.000E+00	0.0
	2212	1	0	0	0	0	0.0000000000E+00	0.0000000000E+00	-5.6813487233E+03	5.6813487233E+03	9.3827000000E-01	0.000E+00	0.0
	51	2	1	2	0	0	3.5405064776E+01	6.7321872399E+00	-6.3444396149E+02	1.2312439415E+03	1.0545822217E+03	0.000E+00	0.0
	1000022	2	5	5	0	0	-3.5405064776E+01	-6.7321872399E+00	-2.4189363040E+02	8.8773468645E+02	8.5338239034E+02	0.000E+00	0.0
	14	1	6	6	0	0	7.6543262093E+01	6.0286179523E+01	1.4225745048E+02	3.6790688581E+02	3.2500000000E+02	0.000E+00	0.0
	-14	1	6	6	0	0	-1.1194832687E+02	-6.7018366763E+01	-3.8415108088E+02	5.1982780063E+02	3.2500000000E+02	0.000E+00	0.0
	25	2	5	5	0	0	3.5405064776E+01	6.7321872399E+00	-2.3713084364E+02	2.7054339287E+02	1.2515530137E+02	0.000E+00	0.0
	-5	1	9	9	0	501	-3.2027270534E+01	3.8536766923E+01	-5.9792452404E+01	7.8124504653E+01	4.1800000000E+00	0.000E+00	0.0
	5	1	9	9	501	0	6.7432335310E+01	-3.1804579683E+01	-1.7733839124E+02	1.9241888821E+02	4.1800000000E+00	0.000E+00	0.0
</event>
<event>
    11  -1  1.0000000E+00  1.0000000E+00  -1.0000000E+00  -1.0000000E+00
	2212	-1	0	0	0	0	0.0000000000E+00	0.0000000000E+00	6.5000000000E+03	6.5000000000E+03	9.3827000000E-01	0.000E+00	0.0
	2212	-1	0	0	0	0	0.0000000000E+00	0.0000000000E+00	-6.5000000000E+03	6.5000000000E+03	9.3827000000E-01	0.000E+00	0.0
	2212	1	0	0	0	0	0.0000000000E+00	0.0000000000E+00	6.1551153199E+03	6.1551153199E+03	9.3827000000E-01	0.000E+00	0.0
	2212	1	0	0	0	0	0.0000000000E+00	0.0000000000E+00	-5.7032981117E+03	5.7032981117E+03	9.3827000000E-01	0.000E+00	0.0
	51	2	1	2	0	0	-8.0078405592E+01	-1.7065609241E+01	-4.1555242783E+02	1.1306939063E+03	1.0483706899E+03	0.000E+00	0.0
	1000022	2	5	5	0	0	8.0078405592E+01	1.7065609241E+01	-4.2351791677E+02	9.8934804410E+02	8.9035854602E+02	0.000E+00	0.0
	14	1	6	6	0	0	1.1029689959E+02	-2.0034135833E+02	-4.4495562960E+02	5.9658409150E+02	3.2500000000E+02	0.000E+00	0.0
	-14	1	6	6	0	0	-3.0218494000E+01	2.1740696758E+02	2.1437712826E+01	3.9276395260E+02	3.2500000000E+02	0.000E+00	0.0
	25	2	5	5	0	0	-8.0078405592E+01	-1.7065609241E+01	-2.8299291428E+01	1.5223852426E+02	1.2518758849E+02	0.000E+00	0.0
	-5	1	9	9	0	501	2.3294120327E+00	-2.1597444754E+01	3.9549429063E+01	4.5315621142E+01	4.1800000000E+00	0.000E+00	0.0
	5	1	9	9	501	0	-8.2407817625E+01	4.5318355132E+00	-6.7848720490E+01	1.0692290312E+02	4.1800000000E+00	0.000E+00	0.0
</event>
<event>
    11  -1  1.0000000E+00  1.0000000E+00  -1.0000000E+00  -1.0000000E+00
	2212	-1	0	0	0	0	0.0000000000E+00	0.0000000000E+00	6.5000000000E+03	6.5000000000E+03	9.3827000000E-01	0.000E+00	0.0
	2212	-1	0	0	0	0	0.0000000000E+00	0.0000000000E+00	-6.5000000000E+03	6.5000000000E+03	9.3827000000E-01	0.000E+00	0.0
	2212	1	0	0	0	0	0.0000000000E+00	0.0000000000E+00	6.3246015611E+03	6.3246015611E+03	9.3827000000E-01	0.000E+00	0.0
	2212	1	0	0	0	0	0.0000000000E+00	0.0000000000E+00	-4.9446679431E+03	4.9446679431E+03	9.3827000000E-01	0.000E+00	0.0
	51	2	1	2	0	0	-2.4906445636E+00	1.1664320646E+02	-1.2690922261E+03	1.6478525960E+03	1.0446105775E+03	0.000E+00	0.0
	1000022	2	5	5	0	0	2.4906445636E+00	-1.1664320646E+02	-1.2564326969E+03	1.5196932519E+03	8.4689587138E+02	0.000E+00	0.0
	14	1	6	6	0	0	5.9933544214E+00	-2.4330814070E+02	-3.0945585704E+02	5.1051219288E+02	3.2500000000E+02	0.000E+00	0.0
	-14	1	6	6	0	0	-3.5027098578E+00	1.2666493424E+02	-9.4697683988E+02	1.0091810590E+03	3.2500000000E+02	0.000E+00	0.0
	25	2	5	5	0	0	-2.4906445636E+00	1.1664320646E+02	-1.2350092109E+02	2.1103724385E+02	1.2518945585E+02	0.000E+00	0.0
	-5	1	9	9	0	501	5.7213188472E+01	7.5084993681E+01	-9.1237526172E+01	1.3135015719E+02	4.1800000000E+00	0.000E+00	0.0
	5	1	9	9	501	0	-5.9703833036E+01	4.1558212777E+01	-3.2263394923E+01	7.9687086660E+01	4.1800000000E+00	0.000E+00	0.0
</event>
<event>
    11  -1  1.0000000E+00  1.0000000E+00  -1.0000000E+00  -1.0000000E+00
	2212	-1	0	0	0	0	0.0000000000E+00	0.0000000000E+00	6.5000000000E+03	6.5000000000E+03	9.3827000000E-01	0.000E+00	0.0
	2212	-1	0	0	0	0	0.0000000000E+00	0.0000000000E+00	-6.5000000000E+03	6.5000000000E+03	9.3827000000E-01	0.000E+00	0.0
	2212	1	0	0	0	0	0.0000000000E+00	0.0000000000E+00	4.9345813424E+03	4.9345813424E+03	9.3827000000E-01	0.000E+00	0.0
	2212	1	0	0	0	0	0.0000000000E+00	0.0000000000E+00	-6.3209883860E+03	6.3209883860E+03	9.3827000000E-01	0.000E+00	0.0
	51	2	1	2	0	0	5.7606909748E+01	1.2744606255E+02	1.3785308402E+03	1.7437949461E+03	1.0587315438E+03	0.000E+00	0.0
	1000022	2	5	5	0	0	-5.7606909748E+01	-1.2744606255E+02	1.1601239117E+03	1.4504373818E+03	8.5925552260E+02	0.000E+00	0.0
	14	1	6	6	0	0	-2.0470413746E+02	1.3458009789E+02	7.1487798662E+02	8.2261237676E+02	3.2500000000E+02	0.000E+00	0.0
	-14	1	6	6	0	0	1.4709722771E+02	-2.6202616044E+02	4.4524592505E+02	6.2782500502E+02	3.2500000000E+02	0.000E+00	0.0
	25	2	5	5	0	0	5.7606909748E+01	1.2744606255E+02	2.2628313187E+02	2.9399288978E+02	1.2516672304E+02	0.000E+00	0.0
	-5	1	9	9	0	501	1.6757964407E+00	4.2182630245E+01	1.7443778250E+02	1.7952212942E+02	4.1800000000E+00	0.000E+00	0.0
	5	1	9	9	501	0	5.5931113308E+01	8.5263432306E+01	5.1845349375E+01	1.1447076035E+02	4.1800000000E+00	0.000E+00	0.0
</event>
<event>
    11  -1  1.0000000E+00  1.0000000E+00  -1.0000000E+00  -1.0000000E+00
	2212	-1	0	0	0	0	0.0000000000E+00	0.0000000000E+00	6.5000000000E+03	6.5000000000E+03	9.3827000000E-01	0.000E+00	0.0
	2212	-1	0	0	0	0	0.0000000000E+00	0.0000000000E+00	-6.5000000000E+03	6.5000000000E+03	9.3827000000E-01	0.000E+00	0.0
	2212	1	0	0	0	0	0.0000000000E+00	0.0000000000E+00	6.2890012747E+03	6.2890012747E+03	9.3827000000E-01	0.000E+00	0.0
	2212	1	0	0	0	0	0.0000000000E+00	0.0000000000E+00	-5.2227691727E+03	5.2227691727E+03	9.3827000000E-01	0.000E+00	0.0
	51	2	1	2	0	0	-1.1596107564E+02	-2.6763606622E+01	-1.1946094710E+03	1.5872086681E+03	1.0382563778E+03	0.000E+00	0.0
	1000022	2	5	5	0	0	1.1596107564E+02	2.6763606622E+01	-7.5164295034E+02	1.1293390376E+03	8.3443170801E+02	0.000E+00	0.0
	14	1	6	6	0	0	2.6861645433E+02	-1.1396916348E+02	-2.7467313588E+02	5.1595939892E+02	3.2500000000E+02	0.000E+00	0.0
	-14	1	6	6	0	0	-1.5265537869E+02	1.4073277010E+02	-4.7696981447E+02	6.1337963867E+02	3.2500000000E+02	0.000E+00	0.0
	25	2	5	5	0	0	-1.1596107564E+02	-2.6763606622E+01	-3.1458915165E+02	3.5889051503E+02	1.2519107692E+02	0.000E+00	0.0
	-5	1	9	9	0	501	2.4701371385E+01	1.0450100890E+01	-5.1681785589E+01	5.8376722403E+01	4.1800000000E+00	0.000E+00	0.0
	5	1	9	9	501	0	-1.4066244702E+02	-3.7213707512E+01	-2.6290736606E+02	3.0051379263E+02	4.1800000000E+00	0.000E+00	0.0
</event>
<event>
    11  -1  1.0000000E+00  1.0000000E+00  -1.0000000E+00  -1.0000000E+00
	2212	-1	0	0	0	0	0.0000000000E+00	0.0000000000E+00	6.5000000000E+03	6.5000000000E+03	9.3827000000E-01	0.000E+00	0.0
	2212	-1	0	0	0	0	0.0000000000E+00	0.0000000000E+00	-6.5000000000E+03	6.5000000000E+03	9.3827000000E-01	0.000E+00	0.0
	2212	1	0	0	0	0	0.0000000000E+00	0.0000000000E+00	6.2885214207E+03	6.2885214207E+03	9.3827000000E-01	0.000E+00	0.0
	2212	1	0	0	0	0	0.0000000000E+00	0.0000000000E+00	-5.2037388049E+03	5.2037388049E+03	9.3827000000E-01	0.000E+00	0.0
	51	2	1	2	0	0	-4.9843715367E+00	4.9362062038E+01	-1.2531370263E+03	1.6338114235E+03	1.0471513281E+03	0.000E+00	0.0
	1000022	2	5	5	0	0	4.9843715367E+00	-4.9362062038E+01	-7.4250782467E+02	1.1399361215E+03	8.6352477343E+02	0.000E+00	0.0
	14	1	6	6	0	0	-2.4926762056E+02	7.1539863944E+01	-2.4594797590E+02	4.8308146895E+02	3.2500000000E+02	0.000E+00	0.0
	-14	1	6	6	0	0	2.5425199210E+02	-1.2090192598E+02	-4.9655984877E+02	6.5685465257E+02	3.2500000000E+02	0.000E+00	0.0
	25	2	5	5	0	0	-4.9843715367E+00	4.9362062038E+01	-3.4227479110E+02	3.6780365289E+02	1.2516404168E+02	0.000E+00	0.0
	-5	1	9	9	0	501	3.4204055207E+01	1.4336884161E+01	-2.2221627408E+01	4.3436583253E+01	4.1800000000E+00	0.000E+00	0.0
	5	1	9	9	501	0	-3.9188426744E+01	3.5025177878E+01	-3.2005316369E+02	3.2436706964E+02	4.1800000000E+00	0.000E+00	0.0
</event>
<event>
    11  -1  1.0000000E+00  1.0000000E+00  -1.0000000E+00  -1.0000000E+00
	2212	-1	0	0	0	0	0.0000000000E+00	0.0000000000E+00	6.5000000000E+03	6.5000000000E+03	9.3827000000E-01	0.000E+00	0.0
	2212	-1	0	0	0	0	0.0000000000E+00	0.0000000000E+00	-6.5000000000E+03	6.5000000000E+03	9.3827000000E-01	0.000E+00	0.0
	2212	1	0	0	0	0	0.0000000000E+00	0.0000000000E+00	6.0408457922E+03	6.0408457922E+03	9.3827000000E-01	0.000E+00	0.0
	2212	1	0	0	0	0	0.0000000000E+00	0.0000000000E+00	-5.9082624963E+03	5.9082624963E+03	9.3827000000E-01	0.000E+00	0.0
	51	2	1	2	0	0	-1.1830354699E+02	-2.6825936344E+01	-1.9930387128E+02	1.0682848178E+03	1.0424946325E+03	0.000E+00	0.0
	1000022	2	5	5	0	0	1.1830354699E+02	2.6825936344E+01	-4.3351162762E+01	8.5506579914E+02	8.4530635715E+02	0.000E+00	0.0
	14	1	6	6	0	0	2.5338830038E+02	2.0213200214E+02	4.0103505307E+00	4.5902511910E+02	3.2500000000E+02	0.000E+00	0.0
	-14	1	6	6	0	0	-1.3508475338E+02	-1.7530606579E+02	-4.7361513293E+01	3.9604068003E+02	3.2500000000E+02	0.000E+00	0.0
	25	2	5	5	0	0	-1.1830354699E+02	-2.6825936344E+01	-8.9232133164E+01	1.9582591231E+02	1.2518008728E+02	0.000E+00	0.0
	-5	1	9	9	0	501	1.8465939757E+01	-1.6540326809E+01	9.3957395045E+00	2.6838883414E+01	4.1800000000E+00	0.000E+00	0.0
	5	1	9	9	501	0	-1.3676948675E+02	-1.0285609535E+01	-9.8627872669E+01	1.6898702890E+02	4.1800000000E+00	0.000E+00	0.0
</event>
<event>
    11  -1  1.0000000E+00  1.0000000E+00  -1.0000000E+00  -1.0000000E+00
	2212	-1	0	0	0	0	0.0000000000E+00	0.0000000000E+00	6.5000000000E+03	6.5000000000E+03	9.3827000000E-01	0.000E+00	0.0
	2212	-1	0	0	0	0	0.0000000000E+00	0.0000000000E+00	-6.5000000000E+03	6.5000000000E+03	9.3827000000E-01	0.000E+00	0.0
	2212	1	0	0	0	0	0.0000000000E+00	0.0000000000E+00	6.3001390962E+03	6.3001390962E+03	9.3827000000E-01	0.000E+00	0.0
	2212	1	0	0	0	0	0.0000000000E+00	0.0000000000E+00	-5.1185779486E+03	5.1185779486E+03	9.3827000000E-01	0.000E+00	0.0
	51	2	1	2	0	0	-8.2407934278E+01	-1.0726893665E+02	-1.1621382874E+03	1.5726513061E+03	1.0508896417E+03	0.000E+00	0.0
	1000022	2	5	5	0	0	8.2407934278E+01	1.0726893665E+02	-1.0025510124E+03	1.3243517819E+03	8.5469375647E+02	0.000E+00	0.0
	14	1	6	6	0	0	1.2216849289E+02	-4.1446719943E+01	-8.7585073406E+02	9.4307077126E+02	3.2500000000E+02	0.000E+00	0.0
	-14	1	6	6	0	0	-3.9760558607E+01	1.4871565659E+02	-1.2670027832E+02	3.8128101062E+02	3.2500000000E+02	0.000E+00	0.0
	25	2	5	5	0	0	-8.2407934278E+01	-1.0726893665E+02	-1.7901013518E+02	2.5693117333E+02	1.2518509068E+02	0.000E+00	0.0
	-5	1	9	9	0	501	-3.2339762887E+01	-1.2142834957E+02	-1.5469682626E+02	1.9934714645E+02	4.1800000000E+00	0.000E+00	0.0
	5	1	9	9	501	0	-5.0068171391E+01	1.4159412922E+01	-2.4313308915E+01	5.7584026875E+01	4.1800000000E+00	0.000E+00	0.0
</event>
<event>
    11  -1  1.0000000E+00  1.0000000E+00  -1.0000000E+00  -1.0000000E+00
	2212	-1	0	0	0	0	0.0000000000E+00	0.0000000000E+00	6.5000000000E+03	6.5000000000E+03	9.3827000000E-01	0.000E+00	0.0
	2212	-1	0	0	0	0	0.0000000000E+00	0.0000000000E+00	-6.5000000000E+03	6.5000000000E+03	9.3827000000E-01	0.000E+00	0.0
	2212	1	0	0	0	0	0.0000000000E+00	0.0000000000E+00	6.2361795742E+03	6.2361795742E+03	9.3827000000E-01	0.000E+00	0.0
	2212	1	0	0	0	0	0.0000000000E+00	0.0000000000E+00	-5.4571829585E+03	5.4571829585E+03	9.3827000000E-01	0.000E+00	0.0
	51	2	1	2	0	0	-1.4174076713E+02	7.8290091066E+00	-7.6052184695E+02	1.3034611471E+03	1.0490308593E+03	0.000E+00	0.0
	1000022	2	5	5	0	0	1.4174076713E+02	-7.8290091066E+00	-6.6334624899E+02	1.0848411450E+03	8.4658155267E+02	0.000E+00	0.0
	14	1	6	6	0	0	-1.1118825321E+02	-1.6785230200E+02	-1.5823138859E+02	4.1376248655E+02	3.2500000000E+02	0.000E+00	0.0
	-14	1	6	6	0	0	2.5292902034E+02	1.6002329289E+02	-5.0511486040E+02	6.7107865842E+02	3.2500000000E+02	0.000E+00	0.0
	25	2	5	5	0	0	-1.4174076713E+02	7.8290091066E+00	-1.1565036668E+02	2.2179632238E+02	1.2516733942E+02	0.000E+00	0.0
	-5	1	9	9	0	501	-1.4092617729E+02	-3.2768133308E+01	-7.0741258912E+01	1.6110784003E+02	4.1800000000E+00	0.000E+00	0.0
	5	1	9	9	501	0	-8.1458983612E-01	4.0597142414E+01	-4.4909107768E+01	6.0688482345E+01	4.1800000000E+00	0.000E+00	0.0
</event>
<event>
    11  -1  1.0000000E+00  1.0000000E+00  -1.0000000E+00  -1.0000000E+00
	2212	-1	0	0	0	0	0.0000000000E+00	0.0000000000E+00	6.5000000000E+03	6.5000000000E+03	9.3827000000E-01	0.000E+00	0.0
	2212	-1	0	0	0	0	0.0000000000E+00	0.0000000000E+00	-6.5000000000E+03	6.5000000000E+03	9.3827000000E-01	0.000E+00	0.0
	2212	1	0	0	0	0	0.0000000000E+00	0.0000000000E+00	6.0429054500E+03	6.0429054500E+03	9.3827000000E-01	0.000E+00	0.0
	2212	1	0	0	0	0	0.0000000000E+00	0.0000000000E+00	-5.8887819488E+03	5.8887819488E+03	9.3827000000E-01	0.000E+00	0.0
	51	2	1	2	0	0	-7.4936563600E+01	-1.2761885457E+02	-1.5291142908E+02	1.0783421192E+03	1.0571365855E+03	0.000E+00	0.0
	1000022	2	5	5	0	0	7.4936563600E+01	1.2761885457E+02	-1.2857407860E+02	8.7278481899E+02	8.5048220791E+02	0.000E+00	0.0
	14	1	6	6	0	0	2.4346583231E+02	-4.3496114134E+01	8.2827391169E+01	4.1671681053E+02	3.2500000000E+02	0.000E+00	0.0
	-14	1	6	6	0	0	-1.6852926871E+02	1.7111496870E+02	-2.1140146976E+02	4.5606800846E+02	3.2500000000E+02	0.000E+00	0.0
	25	2	5	5	0	0	-7.4936563600E+01	-1.2761885457E+02	-2.5549422558E+01	1.9552778223E+02	1.2520495208E+02	0.000E+00	0.0
	-5	1	9	9	0	501	2.8754631194E+01	-3.7342034197E+01	1.8938924960E+01	5.0964807580E+01	4.1800000000E+00	0.000E+00	0.0
	5	1	9	9	501	0	-1.0369119479E+02	-9.0276820371E+01	-4.4488347518E+01	1.4456297465E+02	4.1800000000E+00	0.000E+00	0.0
</event>
<event>
    11  -1  1.0000000E+00  1.0000000E+00  -1.0000000E+00  -1.0000000E+00
	2212	-1	0	0	0	0	0.0000000000E+00	0.0000000000E+00	6.5000000000E+03	6.5000000000E+03	9.3827000000E-01	0.000E+00	0.0
	2212	-1	0	0	0	0	0.0000000000E+00	0.0000000000E+00	-6.5000000000E+03	6.5000000000E+03	9.3827000000E-01	0.000E+00	0.0
	2212	1	0	0	0	0	0.0000000000E+00	0.0000000000E+00	5.8026526704E+03	5.8026526704E+03	9.3827000000E-01	0.000E+00	0.0
	2212	1	0	0	0	0	0.0000000000E+00	0.0000000000E+00	-6.1044296544E+03	6.1044296544E+03	9.3827000000E-01	0.000E+00	0.0
	51	2	1	2	0	0	9.7587079806E+01	-6.7510766823E+01	2.2171652615E+02	1.0801105759E+03	1.0504283395E+03	0.000E+00	0.0
	1000022	2	5	5	0	0	-9.7587079806E+01	6.7510766823E+01	3.3003758049E+02	9.1812602730E+02	8.4849847124E+02	0.000E+00	0.0
	14	1	6	6	0	0	-2.5107625631E+01	3.0254414418E+02	2.1879543234E+02	4.9564079055E+02	3.2500000000E+02	0.000E+00	0.0
	-14	1	6	6	0	0	-7.2479454175E+01	-2.3503337736E+02	1.1124214815E+02	4.2248523676E+02	3.2500000000E+02	0.000E+00	0.0
	25	2	5	5	0	0	9.7587079806E+01	-6.7510766823E+01	-2.8260596481E+01	1.7479164782E+02	1.2518992393E+02	0.000E+00	0.0
	-5	1	9	9	0	501	1.0950723135E+02	-6.3112649962E+01	1.6997241773E+01	1.2759866351E+02	4.1800000000E+00	0.000E+00	0.0
	5	1	9	9	501	0	-1.1920151540E+01	-4.3981168612E+00	-4.5257838254E+01	4.7192984310E+01	4.1800000000E+00	0.000E+00	0.0
</event>
<event>
    11  -1  1.0000000E+00  1.0000000E+00  -1.0000000E+00  -1.0000000E+00
	2212	-1	0	0	0	0	0.0000000000E+00	0.0000000000E+00	6.5000000000E+03	6.5000000000E+03	9.3827000000E-01	0.000E+00	0.0
	2212	-1	0	0	0	0	0.0000000000E+00	0.0000000000E+00	-6.5000000000E+03	6.5000000000E+03	9.3827000000E-01	0.000E+00	0.0
	2212	1	0	0	0	0	0.0000000000E+00	0.0000000000E+00	5.2939202293E+03	5.2939202293E+03	9.3827000000E-01	0.000E+00	0.0
	2212	1	0	0	0	0	0.0000000000E+00	0.0000000000E+00	-6.2518550599E+03	6.2518550599E+03	9.3827000000E-01	0.000E+00	0.0
	51	2	1	2	0	0	-1.3501744632E+01	-1.3516148963E+02	8.0799970181E+02	1.3669106824E+03	1.0941345301E+03	0.000E+00	0.0
	1000022	2	5	5	0	0	1.3501744632E+01	1.3516148963E+02	9.2697587103E+02	1.2669264747E+03	8.5285842983E+02	0.000E+00	0.0
	14	1	6	6	0	0	5.3497210721E+01	9.9843697024E+01	7.3260803025E+01	3.5188472637E+02	3.2500000000E+02	0.000E+00	0.0
	-14	1	6	6	0	0	-3.9995466089E+01	3.5317792610E+01	8.5371506801E+02	9.1504174830E+02	3.2500000000E+02	0.000E+00	0.0
	25	2	5	5	0	0	-1.3501744632E+01	-1.3516148963E+02	3.0958959538E+01	1.8729823620E+02	1.2518485020E+02	0.000E+00	0.0
	-5	1	9	9	0	501	-4.5634753452E+01	-1.0665335472E+02	-2.2860190396E+01	1.1831115544E+02	4.1800000000E+00	0.000E+00	0.0
	5	1	9	9	501	0	3.2133008820E+01	-2.8508134911E+01	5.3819149934E+01	6.8987080758E+01	4.1800000000E+00	0.000E+00	0.0
</event>
<event>
    11  -1  1.0000000E+00  1.0000000E+00  -1.0000000E+00  -1.0000000E+00
	2212	-1	0	0	0	0	0.0000000000E+00	0.0000000000E+00	6.5000000000E+03	6.5000000000E+03	9.3827000000E-01	0.000E+00	0.0
	2212	-1	0	0	0	0	0.0000000000E+00	0.0000000000E+00	-6.5000000000E+03	6.5000000000E+03	9.3827000000E-01	0.000E+00	0.0
	2212	1	0	0	0	0	0.0000000000E+00	0.0000000000E+00	6.1593998373E+03	6.1593998373E+03	9.3827000000E-01	0.000E+00	0.0
	2212	1	0	0	0	0	0.0000000000E+00	0.0000000000E+00	-5.7029609923E+03	5.7029609923E+03	9.3827000000E-01	0.000E+00	0.0
	51	2	1	2	0	0	5.6620394454E+01	1.2118684979E+02	-4.7801017440E+02	1.1542410108E+03	1.0420587616E+03	0.000E+00	0.0
	1000022	2	5	5	0	0	-5.6620394454E+01	-1.2118684979E+02	-3.5810740290E+02	9.2971857613E+02	8.4749253516E+02	0.000E+00	0.0
	14	1	6	6	0	0	-2.8206453905E+02	-4.4174587205E+01	-2.9059880764E+02	5.2113766449E+02	3.2500000000E+02	0.000E+00	0.0
	-14	1	6	6	0	0	2.2544414460E+02	-7.7012262587E+01	-6.7508595262E+01	4.0858091164E+02	3.2500000000E+02	0.000E+00	0.0
	25	2	5	5	0	0	5.6620394454E+01	1.2118684979E+02	-9.8331442119E+01	2.0792059422E+02	1.2517898929E+02	0.000E+00	0.0
	-5	1	9	9	0	501	4.0398379909E+01	1.4359366295E+02	-1.0041562060E+02	1.7986644601E+02	4.1800000000E+00	0.000E+00	0.0
	5	1	9	9	501	0	1.6222014545E+01	-2.2406813159E+01	2.0841784801E+00	2.8054148210E+01	4.1800000000E+00	0.000E+00	0.0
</event>
<event>
    11  -1  1.0000000E+00  1.0000000E+00  -1.0000000E+00  -1.0000000E+00
	2212	-1	0	0	0	0	0.0000000000E+00	0.0000000000E+00	6.5000000000E+03	6.5000000000E+03	9.3827000000E-01	0.000E+00	0.0
	2212	-1	0	0	0	0	0.0000000000E+00	0.0000000000E+00	-6.5000000000E+03	6.5000000000E+03	9.3827000000E-01	0.000E+00	0.0
	2212	1	0	0	0	0	0.0000000000E+00	0.0000000000E+00	5.8874494309E+03	5.8874494309E+03	9.3827000000E-01	0.000E+00	0.0
	2212	1	0	0	0	0	0.0000000000E+00	0.0000000000E+00	-5.7569770335E+03	5.7569770335E+03	9.3827000000E-01	0.000E+00	0.0
	51	2	1	2	0	0	-2.3625943060E+02	-2.4688486823E+02	7.2791555620E+01	1.3937811275E+03	1.3492800169E+03	0.000E+00	0.0
	1000022	2	5	5	0	0	2.3625943060E+02	2.4688486823E+02	-2.9882035169E+02	9.5459799546E+02	8.3975774700E+02	0.000E+00	0.0
	14	1	6	6	0	0	2.5616800943E+02	-1.0178233476E+02	-9.9791010345E+01	4.3768132068E+02	3.2500000000E+02	0.000E+00	0.0
	-14	1	6	6	0	0	-1.9908578831E+01	3.4866720299E+02	-1.9902934135E+02	5.1691667478E+02	3.2500000000E+02	0.000E+00	0.0
	25	2	5	5	0	0	-2.3625943060E+02	-2.4688486823E+02	1.6834795426E+02	4.0097554019E+02	1.2517864603E+02	0.000E+00	0.0
	-5	1	9	9	0	501	-7.0289476922E+01	-1.4825684654E+02	1.1572745199E+02	2.0082584161E+02	4.1800000000E+00	0.000E+00	0.0
	5	1	9	9	501	0	-1.6596995368E+02	-9.8628021687E+01	5.2620502274E+01	2.0014969859E+02	4.1800000000E+00	0.000E+00	0.0
</event>
<event>
    11  -1  1.0000000E+00  1.0000000E+00  -1.0000000E+00  -1.0000000E+00
	2212	-1	0	0	0	0	0.0000000000E+00	0.0000000000E+00	6.5000000000E+03	6.5000000000E+03	9.3827000000E-01	0.000E+00	0.0
	2212	-1	0	0	0	0	0.0000000000E+00	0.0000000000E+00	-6.5000000000E+03	6.5000000000E+03	9.3827000000E-01	0.000E+00	0.0
	2212	1	0	0	0	0	0.0000000000E+00	0.0000000000E+00	6.0848542619E+03	6.0848542619E+03	9.3827000000E-01	0.000E+00	0.0
	2212	1	0	0	0	0	0.0000000000E+00	0.0000000000E+00	-5.6004100828E+03	5.6004100828E+03	9.3827000000E-01	0.000E+00	0.0
	51	2	1	2	0	0	1.0927057672E+02	2.2559712135E+02	-6.8703513344E+02	1.4243226725E+03	1.2222289805E+03	0.000E+00	0.0
	1000022	2	5	5	0	0	-1.0927057672E+02	-2.2559712135E+02	-1.6591995610E+02	8.9051671867E+02	8.3824607025E+02	0.000E+00	0.0
	14	1	6	6	0	0	2.6687495895E+01	-1.5438298924E+02	-3.3588262285E+02	4.9293860281E+02	3.2500000000E+02	0.000E+00	0.0
	-14	1	6	6	0	0	-1.3595807262E+02	-7.1214132113E+01	1.6996266675E+02	3.9757811586E+02	3.2500000000E+02	0.000E+00	0.0
	25	2	5	5	0	0	1.0927057672E+02	2.2559712135E+02	-3.1852422300E+02	4.2421893667E+02	1.2517949310E+02	0.000E+00	0.0
	-5	1	9	9	0	501	1.0752072637E+02	2.3665980800E+02	-3.1986535054E+02	4.1218913887E+02	4.1800000000E+00	0.000E+00	0.0
	5	1	9	9	501	0	1.7498503520E+00	-1.1062686652E+01	1.3411275352E+00	1.2029797807E+01	4.1800000000E+00	0.000E+00	0.0
</event>
<event>
    11  -1  1.0000000E+00  1.0000000E+00  -1.0000000E+00  -1.0000000E+00
	2212	-1	0	0	0	0	0.0000000000E+00	0.0000000000E+00	6.5000000000E+03	6.5000000000E+03	9.3827000000E-01	0.000E+00	0.0
	2212	-1	0	0	0	0	0.0000000000E+00	0.0000000000E+00	-6.5000000000E+03	6.5000000000E+03	9.3827000000E-01	0.000E+00	0.0
	2212	1	0	0	0	0	0.0000000000E+00	0.0000000000E+00	6.3156043266E+03	6.3156043266E+03	9.3827000000E-01	0.000E+00	0.0
	2212	1	0	0	0	0	0.0000000000E+00	0.0000000000E+00	-5.0081461182E+03	5.0081461182E+03	9.3827000000E-01	0.000E+00	0.0
	51	2	1	2	0	0	9.8566692076E+01	-1.4201478810E+02	-1.3512558190E+03	1.7193433298E+03	1.0489831288E+03	0.000E+00	0.0
	1000022	2	5	5	0	0	-9.8566692076E+01	1.4201478810E+02	-1.0146553427E+03	1.3139142588E+03	8.1667718360E+02	0.000E+00	0.0
	14	1	6	6	0	0	1.1637393917E+02	2.2979016214E+02	-3.7113052196E+02	5.5651529778E+02	3.2500000000E+02	0.000E+00	0.0
	-14	1	6	6	0	0	-2.1494063125E+02	-8.7775374041E+01	-6.4352482078E+02	7.5739896106E+02	3.2500000000E+02	0.000E+00	0.0
	25	2	5	5	0	0	9.8566692076E+01	-1.4201478810E+02	-2.9280286567E+02	3.6233529636E+02	1.2517889605E+02	0.000E+00	0.0
	-5	1	9	9	0	501	1.0372579198E+01	2.0638693581E+01	-6.3270311610E+01	6.7484448602E+01	4.1800000000E+00	0.000E+00	0.0
	5	1	9	9	501	0	8.8194112879E+01	-1.6265348168E+02	-2.2953255406E+02	2.9485084776E+02	4.1800000000E+00	0.000E+00	0.0
</event>
<event>
    11  -1  1.0000000E+00  1.0000000E+00  -1.0000000E+00  -1.0000000E+00
	2212	-1	0	0	0	0	0.0000000000E+00	0.0000000000E+00	6.5000000000E+03	6.5000000000E+03	9.3827000000E-01	0.000E+00	0.0
	2212	-1	0	0	0	0	0.0000000000E+00	0.0000000000E+00	-6.5000000000E+03	6.5000000000E+03	9.3827000000E-01	0.000E+00	0.0
	2212	1	0	0	0	0	0.0000000000E+00	0.0000000000E+00	6.3387074515E+03	6.3387074515E+03	9.3827000000E-01	0.000E+00	0.0
	2212	1	0	0	0	0	0.0000000000E+00	0.0000000000E+00	-4.8391570568E+03	4.8391570568E+03	9.3827000000E-01	0.000E+00	0.0
	51	2	1	2	0	0	4.4839206829E+01	3.9061261175E+00	-1.3066327388E+03	1.6675854671E+03	1.0351455762E+03	0.000E+00	0.0
	1000022	2	5	5	0	0	-4.4839206829E+01	-3.9061261175E+00	-1.4478220903E+03	1.6794110206E+03	8.4982748770E+02	0.000E+00	0.0
	14	1	6	6	0	0	-1.2999228483E+02	-2.3171257486E+02	-9.3862438867E+02	1.0282166379E+03	3.2500000000E+02	0.000E+00	0.0
	-14	1	6	6	0	0	8.5153078002E+01	2.2780644874E+02	-5.0919770162E+02	6.5119438274E+02	3.2500000000E+02	0.000E+00	0.0
	25	2	5	5	0	0	4.4839206829E+01	3.9061261175E+00	-5.1728304424E+01	1.4272447107E+02	1.2517445775E+02	0.000E+00	0.0
	-5	1	9	9	0	501	1.6572259930E+01	6.1569575357E+01	-4.4712824310E+01	7.7988213639E+01	4.1800000000E+00	0.000E+00	0.0
	5	1	9	9	501	0	2.8266946898E+01	-5.7663449240E+01	-7.0154801139E+00	6.4736257433E+01	4.1800000000E+00	0.000E+00	0.0
</event>
<event>
    11  -1  1.0000000E+00  1.0000000E+00  -1.0000000E+00  -1.0000000E+00
	2212	-1	0	0	0	0	0.0000000000E+00	0.0000000000E+00	6.5000000000E+03	6.5000000000E+03	9.3827000000E-01	0.000E+00	0.0
	2212	-1	0	0	0	0	0.0000000000E+00	0.0000000000E+00	-6.5000000000E+03	6.5000000000E+03	9.3827000000E-01	0.000E+00	0.0
	2212	1	0	0	0	0	0.0000000000E+00	0.0000000000E+00	6.1364789936E+03	6.1364789936E+03	9.3827000000E-01	0.000E+00	0.0
	2212	1	0	0	0	0	0.0000000000E+00	0.0000000000E+00	-5.7600925283E+03	5.7600925283E+03	9.3827000000E-01	0.000E+00	0.0
	51	2	1	2	0	0	-8.0078929157E+00	1.0933556083E+02	-3.7929218075E+02	1.1098507038E+03	1.0372500350E+03	0.000E+00	0.0
	1000022	2	5	5	0	0	8.0078929157E+00	-1.0933556083E+02	-3.1519415059E+02	9.2613110317E+02	8.6391728567E+02	0.000E+00	0.0
	14	1	6	6	0	0	-2.4374750399E+02	-1.3985205155E+02	-2.7905368142E+02	5.1231572213E+02	3.2500000000E+02	0.000E+00	0.0
	-14	1	6	6	0	0	2.5175539690E+02	3.0516490720E+01	-3.6140469169E+01	4.1381538104E+02	3.2500000000E+02	0.000E+00	0.0
	25	2	5	5	0	0	-8.0078929157E+00	1.0933556083E+02	-6.1192314683E+01	1.7729737499E+02	1.2518573637E+02	0.000E+00	0.0
	-5	1	9	9	0	501	-5.2960531714E+01	6.2552578398E+01	7.8741910246E+00	8.2444637594E+01	4.1800000000E+00	0.000E+00	0.0
	5	1	9	9	501	0	4.4952638798E+01	4.6782982435E+01	-6.9066505707E+01	9.4852737394E+01	4.1800000000E+00	0.000E+00	0.0
</event>
<event>
    11  -1  1.0000000E+00  1.0000000E+00  -1.0000000E+00  -1.0000000E+00
	2212	-1	0	0	0	0	0.0000000000E+00	0.0000000000E+00	6.5000000000E+03	6.5000000000E+03	9.3827000000E-01	0.000E+00	0.0
	2212	-1	0	0	0	0	0.0000000000E+00	0.0000000000E+00	-6.5000000000E+03	6.5000000000E+03	9.3827000000E-01	0.000E+00	0.0
	2212	1	0	0	0	0	0.0000000000E+00	0.0000000000E+00	6.1468705525E+03	6.1468705525E+03	9.3827000000E-01	0.000E+00	0.0
	2212	1	0	0	0	0	0.0000000000E+00	0.0000000000E+00	-5.6732619544E+03	5.6732619544E+03	9.3827000000E-01	0.000E+00	0.0
	51	2	1	2	0	0	-1.3584899799E+02	-7.6909746305E+01	-5.1991213963E+02	1.2093224919E+03	1.0806397166E+03	0.000E+00	0.0
	1000022	2	5	5	0	0	1.3584899799E+02	7.6909746305E+01	-3.4326970013E+02	9.4106117394E+02	8.6220182483E+02	0.000E+00	0.0
	14	1	6	6	0	0	1.3710085644E+02	1.2172005294E+02	1.0306888255E+02	3.8711834195E+02	3.2500000000E+02	0.000E+00	0.0
	-14	1	6	6	0	0	-1.2518584498E+00	-4.4810306633E+01	-4.4633858268E+02	5.5394283199E+02	3.2500000000E+02	0.000E+00	0.0
	25	2	5	5	0	0	-1.3584899799E+02	-7.6909746305E+01	-1.3033889798E+02	2.3880631915E+02	1.2518055124E+02	0.000E+00	0.0
	-5	1	9	9	0	501	-4.9990014292E+01	1.6463916941E+01	-9.2262292410E+01	1.0630082357E+02	4.1800000000E+00	0.000E+00	0.0
	5	1	9	9	501	0	-8.5858983696E+01	-9.3373663247E+01	-3.8076605574E+01	1.3250549559E+02	4.1800000000E+00	0.000E+00	0.0
</event>
<event>
    11  -1  1.0000000E+00  1.0000000E+00  -1.0000000E+00  -1.0000000E+00
	2212	-1	0	0	0	0	0.0000000000E+00	0.0000000000E+00	6.5000000000E+03	6.5000000000E+03	9.3827000000E-01	0.000E+00	0.0
	2212	-1	0	0	0	0	0.0000000000E+00	0.0000000000E+00	-6.5000000000E+03	6.5000000000E+03	9.3827000000E-01	0.000E+00	0.0
	2212	1	0	0	0	0	0.0000000000E+00	0.0000000000E+00	4.8834674906E+03	4.8834674906E+03	9.3827000000E-01	0.000E+00	0.0
	2212	1	0	0	0	0	0.0000000000E+00	0.0000000000E+00	-6.3296424910E+03	6.3296424910E+03	9.3827000000E-01	0.000E+00	0.0
	51	2	1	2	0	0	-8.1861966098E+01	-4.7770728633E+01	1.6235497319E+03	1.9355750986E+03	1.0495493349E+03	0.000E+00	0.0
	1000022	2	5	5	0	0	8.1861966098E+01	4.7770728633E+01	1.0264568275E+03	1.3387660210E+03	8.5422328239E+02	0.000E+00	0.0
	14	1	6	6	0	0	-1.9454199606E+02	-1.2427808469E+02	4.4789912097E+02	5.9960841650E+02	3.2500000000E+02	0.000E+00	0.0
	-14	1	6	6	0	0	2.7640396216E+02	1.7204881333E+02	5.7855770652E+02	7.3915760447E+02	3.2500000000E+02	0.000E+00	0.0
	25	2	5	5	0	0	-8.1861966098E+01	-4.7770728633E+01	4.1971817290E+02	4.4812399753E+02	1.2517327385E+02	0.000E+00	0.0
	-5	1	9	9	0	501	-3.5781994343E+01	2.8348379134E+01	5.0033652679E+01	6.7858827864E+01	4.1800000000E+00	0.000E+00	0.0
	5	1	9	9	501	0	-4.6079971756E+01	-7.6119107767E+01	3.6968452023E+02	3.8026516966E+02	4.1800000000E+00	0.000E+00	0.0
</event>
<event>
    11  -1  1.0000000E+00  1.0000000E+00  -1.0000000E+00  -1.0000000E+00
	2212	-1	0	0	0	0	0.0000000000E+00	0.0000000000E+00	6.5000000000E+03	6.5000000000E+03	9.3827000000E-01	0.000E+00	0.0
	2212	-1	0	0	0	0	0.0000000000E+00	0.0000000000E+00	-6.5000000000E+03	6.5000000000E+03	9.3827000000E-01	0.000E+00	0.0
	2212	1	0	0	0	0	0.0000000000E+00	0.0000000000E+00	5.1233982947E+03	5.1233982947E+03	9.3827000000E-01	0.000E+00	0.0
	2212	1	0	0	0	0	0.0000000000E+00	0.0000000000E+00	-6.3008332437E+03	6.3008332437E+03	9.3827000000E-01	0.000E+00	0.0
	51	2	1	2	0	0	-7.5578097609E+01	-1.1689301273E+02	1.1952423036E+03	1.5952032394E+03	1.0472311997E+03	0.000E+00	0.0
	1000022	2	5	5	0	0	7.5578097609E+01	1.1689301273E+02	9.5942832885E+02	1.2884057707E+03	8.4859335764E+02	0.000E+00	0.0
	14	1	6	6	0	0	1.6910228595E+02	2.9767599564E+02	4.6408116955E+02	6.6196896712E+02	3.2500000000E+02	0.000E+00	0.0
	-14	1	6	6	0	0	-9.3524188343E+01	-1.8078298292E+02	4.9534715930E+02	6.2643680363E+02	3.2500000000E+02	0.000E+00	0.0
	25	2	5	5	0	0	-7.5578097609E+01	-1.1689301273E+02	2.1800662013E+02	2.8736269087E+02	1.2519746173E+02	0.000E+00	0.0
	-5	1	9	9	0	501	4.3314282515E+00	-7.0966910669E+01	1.6788069445E+02	1.8236354803E+02	4.1800000000E+00	0.000E+00	0.0
	5	1	9	9	501	0	-7.9909525860E+01	-4.5926102056E+01	5.0125925678E+01	1.0499914285E+02	4.1800000000E+00	0.000E+00	0.0
</event>
<event>
    11  -1  1.0000000E+00  1.0000000E+00  -1.0000000E+00  -1.0000000E+00
	2212	-1	0	0	0	0	0.0000000000E+00	0.0000000000E+00	6.5000000000E+03	6.5000000000E+03	9.3827000000E-01	0.000E+00	0.0
	2212	-1	0	0	0	0	0.0000000000E+00	0.0000000000E+00	-6.5000000000E+03	6.5000000000E+03	9.3827000000E-01	0.000E+00	0.0
	2212	1	0	0	0	0	0.0000000000E+00	0.0000000000E+00	4.9781524806E+03	4.9781524806E+03	9.3827000000E-01	0.000E+00	0.0
	2212	1	0	0	0	0	0.0000000000E+00	0.0000000000E+00	-6.3190500459E+03	6.3190500459E+03	9.3827000000E-01	0.000E+00	0.0
	51	2	1	2	0	0	1.4079165527E+02	2.3606974344E+01	1.3667528592E+03	1.7291344404E+03	1.0495298735E+03	0.000E+00	0.0
	1000022	2	5	5	0	0	-1.4079165527E+02	-2.3606974344E+01	1.0846233514E+03	1.3838529542E+03	8.4750315931E+02	0.000E+00	0.0
	14	1	6	6	0	0	-1.6622992429E+02	2.0168865291E+02	7.7826606314E+02	8.8296872282E+02	3.2500000000E+02	0.000E+00	0.0
	-14	1	6	6	0	0	2.5438269024E+01	-2.2529562725E+02	3.0635728827E+02	5.0088423140E+02	3.2500000000E+02	0.000E+00	0.0
	25	2	5	5	0	0	1.4079165527E+02	2.3606974344E+01	2.5627421383E+02	3.1894451928E+02	1.2517809024E+02	0.000E+00	0.0
	-5	1	9	9	0	501	-1.9157904098E+01	3.7648126915E-01	6.8015525330E+01	7.0786659149E+01	4.1800000000E+00	0.000E+00	0.0
	5	1	9	9	501	0	1.5994955937E+02	2.3230493075E+01	1.8825868850E+02	2.4815786013E+02	4.1800000000E+00	0.000E+00	0.0
</event>
<event>
    11  -1  1.0000000E+00  1.0000000E+00  -1.0000000E+00  -1.0000000E+00
	2212	-1	0	0	0	0	0.0000000000E+00	0.0000000000E+00	6.5000000000E+03	6.5000000000E+03	9.3827000000E-01	0.000E+00	0.0
	2212	-1	0	0	0	0	0.0000000000E+00	0.0000000000E+00	-6.5000000000E+03	6.5000000000E+03	9.3827000000E-01	0.000E+00	0.0
	2212	1	0	0	0	0	0.0000000000E+00	0.0000000000E+00	6.3095802687E+03	6.3095802687E+03	9.3827000000E-01	0.000E+00	0.0
	2212	1	0	0	0	0	0.0000000000E+00	0.0000000000E+00	-5.0464271939E+03	5.0464271939E+03	9.3827000000E-01	0.000E+00	0.0
	51	2	1	2	0	0	8.6842905906E+01	1.0167491489E+02	-1.2253535165E+03	1.6206561916E+03	1.0522146989E+03	0.000E+00	0.0
	1000022	2	5	5	0	0	-8.6842905906E+01	-1.0167491489E+02	-1.0885093891E+03	1.3908342011E+03	8.5538740119E+02	0.000E+00	0.0
	14	1	6	6	0	0	1.4786038934E+02	-8.5175608812E+00	-8.3316393828E+02	9.0648904662E+02	3.2500000000E+02	0.000E+00	0.0
	-14	1	6	6	0	0	-2.3470329525E+02	-9.3157354007E+01	-2.5534545083E+02	4.8434515447E+02	3.2500000000E+02	0.000E+00	0.0
	25	2	5	5	0	0	8.6842905906E+01	1.0167491489E+02	-1.7464368567E+02	2.5315833627E+02	1.2533653758E+02	0.000E+00	0.0
	-5	1	9	9	0	501	9.9352525727E+01	2.7401785429E+01	-7.2061045008E+01	1.2582546968E+02	4.1800000000E+00	0.000E+00	0.0
	5	1	9	9	501	0	-1.2509619821E+01	7.4273129459E+01	-1.0258264066E+02	1.2733286658E+02	4.1800000000E+00	0.000E+00	0.0
</event>
<event>
    11  -1  1.0000000E+00  1.0000000E+00  -1.0000000E+00  -1.0000000E+00
	2212	-1	0	0	0	0	0.0000000000E+00	0.0000000000E+00	6.5000000000E+03	6.5000000000E+03	9.3827000000E-01	0.000E+00	0.0
	2212	-1	0	0	0	0	0.0000000000E+00	0.0000000000E+00	-6.5000000000E+03	6.5000000000E+03	9.3827000000E-01	0.000E+00	0.0
	2212	1	0	0	0	0	0.0000000000E+00	0.0000000000E+00	5.6548195743E+03	5.6548195743E+03	9.3827000000E-01	0.000E+00	0.0
	2212	1	0	0	0	0	0.0000000000E+00	0.0000000000E+00	-6.1823270438E+03	6.1823270438E+03	9.3827000000E-01	0.000E+00	0.0
	51	2	1	2	0	0	-4.2316195983E+01	8.8864941504E+01	4.5287085756E+02	1.1352283953E+03	1.0363222749E+03	0.000E+00	0.0
	1000022	2	5	5	0	0	4.2316195983E+01	-8.8864941504E+01	5.1722635110E+02	1.0032831616E+03	8.5402948767E+02	0.000E+00	0.0
	14	1	6	6	0	0	-1.6180219858E+02	1.0279187928E+02	4.1774304031E+02	5.6292128192E+02	3.2500000000E+02	0.000E+00	0.0
	-14	1	6	6	0	0	2.0411839456E+02	-1.9165682078E+02	9.9483310794E+01	4.4036187968E+02	3.2500000000E+02	0.000E+00	0.0
	25	2	5	5	0	0	-4.2316195983E+01	8.8864941504E+01	1.0281118420E+01	1.5957022034E+02	1.2517713670E+02	0.000E+00	0.0
	-5	1	9	9	0	501	-4.9371819332E+01	1.1596033808E+02	2.3587585442E+01	1.2828960651E+02	4.1800000000E+00	0.000E+00	0.0
	5	1	9	9	501	0	7.0556233489E+00	-2.7095396581E+01	-1.3306467022E+01	3.1280613826E+01	4.1800000000E+00	0.000E+00	0.0
</event>
<event>
    11  -1  1.0000000E+00  1.0000000E+00  -1.0000000E+00  -1.0000000E+00
	2212	-1	0	0	0	0	0.0000000000E+00	0.0000000000E+00	6.5000000000E+03	6.5000000000E+03	9.3827000000E-01	0.000E+00	0.0
	2212	-1	0	0	0	0	0.0000000000E+00	0.0000000000E+00	-6.5000000000E+03	6.5000000000E+03	9.3827000000E-01	0.000E+00	0.0
	2212	1	0	0	0	0	0.0000000000E+00	0.0000000000E+00	6.0620899235E+03	6.0620899235E+03	9.3827000000E-01	0.000E+00	0.0
	2212	1	0	0	0	0	0.0000000000E+00	0.0000000000E+00	-5.8799077612E+03	5.8799077612E+03	9.3827000000E-01	0.000E+00	0.0
	51	2	1	2	0	0	-6.4354061534E+01	-3.2874150894E+01	-2.7963742866E+02	1.0814794522E+03	1.0421989057E+03	0.000E+00	0.0
	1000022	2	5	5	0	0	6.4354061534E+01	3.2874150894E+01	-5.5698068224E+01	8.6594354265E+02	8.6112356211E+02	0.000E+00	0.0
	14	1	6	6	0	0	3.0881159772E+02	-1.1587157588E+01	-8.2397699091E+01	4.5597504967E+02	3.2500000000E+02	0.000E+00	0.0
	-14	1	6	6	0	0	-2.4445753618E+02	4.4461308482E+01	2.6699630867E+01	4.0996849298E+02	3.2500000000E+02	0.000E+00	0.0
	25	2	5	5	0	0	-6.4354061534E+01	-3.2874150894E+01	-1.2648409408E+02	1.9205877271E+02	1.2516465590E+02	0.000E+00	0.0
	-5	1	9	9	0	501	-1.6536102950E+01	-4.4818271982E+01	-1.3372895516E+02	1.4206697734E+02	4.1800000000E+00	0.000E+00	0.0
	5	1	9	9	501	0	-4.7817958583E+01	1.1944121087E+01	7.2448610780E+00	4.9991795363E+01	4.1800000000E+00	0.000E+00	0.0
</event>
<event>
    11  -1  1.0000000E+00  1.0000000E+00  -1.0000000E+00  -1.0000000E+00
	2212	-1	0	0	0	0	0.0000000000E+00	0.0000000000E+00	6.5000000000E+03	6.5000000000E+03	9.3827000000E-01	0.000E+00	0.0
	2212	-1	0	0	0	0	0.0000000000E+00	0.0000000000E+00	-6.5000000000E+03	6.5000000000E+03	9.3827000000E-01	0.000E+00	0.0
	2212	1	0	0	0	0	0.0000000000E+00	0.0000000000E+00	6.2627937338E+03	6.2627937338E+03	9.3827000000E-01	0.000E+00	0.0
	2212	1	0	0	0	0	0.0000000000E+00	0.0000000000E+00	-5.3250722714E+03	5.3250722714E+03	9.3827000000E-01	0.000E+00	0.0
	51	2	1	2	0	0	1.1901445520E+02	1.7694394985E+01	-1.0608331178E+03	1.5015476396E+03	1.0558413129E+03	0.000E+00	0.0
	1000022	2	5	5	0	0	-1.1901445520E+02	-1.7694394985E+01	-6.5191860009E+02	1.0777203224E+03	8.4970918558E+02	0.000E+00	0.0
	14	1	6	6	0	0	-2.4105122324E+02	1.9124848121E+02	-4.0247868847E+02	6.0191009998E+02	3.2500000000E+02	0.000E+00	0.0
	-14	1	6	6	0	0	1.2203676804E+02	-2.0894287620E+02	-2.4943991163E+02	4.7581022244E+02	3.2500000000E+02	0.000E+00	0.0
	25	2	5	5	0	0	1.1901445520E+02	1.7694394985E+01	-2.8580286236E+02	3.3441367235E+02	1.2518664449E+02	0.000E+00	0.0
	-5	1	9	9	0	501	-5.6218171476E+00	1.3777154906E+01	6.3688648290E+00	1.6716748025E+01	4.1800000000E+00	0.000E+00	0.0
	5	1	9	9	501	0	1.2463627234E+02	3.9172400798E+00	-2.9217172719E+02	3.1769692432E+02	4.1800000000E+00	0.000E+00	0.0
</event>
<event>
    11  -1  1.0000000E+00  1.0000000E+00  -1.0000000E+00  -1.0000000E+00
	2212	-1	0	0	0	0	0.0000000000E+00	0.0000000000E+00	6.5000000000E+03	6.5000000000E+03	9.3827000000E-01	0.000E+00	0.0
	2212	-1	0	0	0	0	0.0000000000E+00	0.0000000000E+00	-6.5000000000E+03	6.5000000000E+03	9.3827000000E-01	0.000E+00	0.0
	2212	1	0	0	0	0	0.0000000000E+00	0.0000000000E+00	6.0520451485E+03	6.0520451485E+03	9.3827000000E-01	0.000E+00	0.0
	2212	1	0	0	0	0	0.0000000000E+00	0.0000000000E+00	-5.8592279604E+03	5.8592279604E+03	9.3827000000E-01	0.000E+00	0.0
	51	2	1	2	0	0	2.8196556083E+01	-1.6222273431E+02	-2.0422484023E+02	1.1031621922E+03	1.0715165773E+03	0.000E+00	0.0
	1000022	2	5	5	0	0	-2.8196556083E+01	1.6222273431E+02	-1.4642249862E+02	8.7674007115E+02	8.4860022564E+02	0.000E+00	0.0
	14	1	6	6	0	0	9.0032968419E+01	-1.7600055532E+02	-5.3205168550E+01	3.8410665294E+02	3.2500000000E+02	0.000E+00	0.0
	-14	1	6	6	0	0	-1.1822952450E+02	3.3822328963E+02	-9.3217330073E+01	4.9263341821E+02	3.2500000000E+02	0.000E+00	0.0
	25	2	5	5	0	0	2.8196556083E+01	-1.6222273431E+02	-4.6394689477E+01	2.1198682002E+02	1.2519857566E+02	0.000E+00	0.0
	-5	1	9	9	0	501	1.5171011620E+01	-1.2311405265E+02	2.7631840953E+01	1.2715431801E+02	4.1800000000E+00	0.000E+00	0.0
	5	1	9	9	501	0	1.3025544463E+01	-3.9108681661E+01	-7.4026530430E+01	8.4832502011E+01	4.1800000000E+00	0.000E+00	0.0
</event>
<event>
    11  -1  1.0000000E+00  1.0000000E+00  -1.0000000E+00  -1.0000000E+00
	2212	-1	0	0	0	0	0.0000000000E+00	0.0000000000E+00	6.5000000000E+03	6.5000000000E+03	9.3827000000E-01	0.000E+00	0.0
	2212	-1	0	0	0	0	0.0000000000E+00	0.0000000000E+00	-6.5000000000E+03	6.5000000000E+03	9.3827000000E-01	0.000E+00	0.0
	2212	1	0	0	0	0	0.0000000000E+00	0.0000000000E+00	5.1209088289E+03	5.1209088289E+03	9.3827000000E-01	0.000E+00	0.0
	2212	1	0	0	0	0	0.0000000000E+00	0.0000000000E+00	-6.3030993456E+03	6.3030993456E+03	9.3827000000E-01	0.000E+00	0.0
	51	2	1	2	0	0	-2.7842143500E+01	4.9936015204E+01	1.3444850794E+03	1.7020824702E+03	1.0421975899E+03	0.000E+00	0.0
	1000022	2	5	5	0	0	2.7842143500E+01	-4.9936015204E+01	8.3276084834E+02	1.2004292110E+03	8.6271134773E+02	0.000E+00	0.0
	14	1	6	6	0	0	3.7308166420E+01	2.2605841693E+01	8.0131798364E+02	8.6581662854E+02	3.2500000000E+02	0.000E+00	0.0
	-14	1	6	6	0	0	-9.4660229196E+00	-7.2541856897E+01	3.1442864705E+01	3.3461258245E+02	3.2500000000E+02	0.000E+00	0.0
	25	2	5	5	0	0	-2.7842143500E+01	4.9936015204E+01	3.4942966839E+02	3.7556261455E+02	1.2520939954E+02	0.000E+00	0.0
	-5	1	9	9	0	501	-6.5551074068E+01	5.3069028535E+01	1.4651383738E+02	1.6910659965E+02	4.1800000000E+00	0.000E+00	0.0
	5	1	9	9	501	0	3.7708930568E+01	-3.1330133302E+00	2.0291583100E+02	2.0645601490E+02	4.1800000000E+00	0.000E+00	0.0
</event>
<event>
    11  -1  1.0000000E+00  1.0000000E+00  -1.0000000E+00  -1.0000000E+00
	2212	-1	0	0	0	0	0.0000000000E+00	0.0000000000E+00	6.5000000000E+03	6.5000000000E+03	9.3827000000E-01	0.000E+00	0.0
	2212	-1	0	0	0	0	0.0000000000E+00	0.0000000000E+00	-6.5000000000E+03	6.5000000000E+03	9.3827000000E-01	0.000E+00	0.0
	2212	1	0	0	0	0	0.0000000000E+00	0.0000000000E+00	6.2473471099E+03	6.2473471099E+03	9.3827000000E-01	0.000E+00	0.0
	2212	1	0	0	0	0	0.0000000000E+00	0.0000000000E+00	-5.4236410679E+03	5.4236410679E+03	9.3827000000E-01	0.000E+00	0.0
	51	2	1	2	0	0	-6.6087997770E+01	-1.1539457925E+02	-7.2326782591E+02	1.2761585561E+03	1.0429672957E+03	0.000E+00	0.0
	1000022	2	5	5	0	0	6.6087997770E+01	1.1539457925E+02	-7.7409048395E+02	1.1397602236E+03	8.2592600013E+02	0.000E+00	0.0
	14	1	6	6	0	0	2.1346584731E+02	1.7017135413E+02	-6.1012211795E+02	7.4323613781E+02	3.2500000000E+02	0.000E+00	0.0
	-14	1	6	6	0	0	-1.4737784954E+02	-5.4776774876E+01	-1.6396836600E+02	3.9652408584E+02	3.2500000000E+02	0.000E+00	0.0
	25	2	5	5	0	0	-6.6087997770E+01	-1.1539457925E+02	-4.9615558074E+01	1.8925159859E+02	1.2518359156E+02	0.000E+00	0.0
	-5	1	9	9	0	501	-8.8402524232E+01	-8.8066590463E+01	4.0189511229E+00	1.2491739276E+02	4.1800000000E+00	0.000E+00	0.0
	5	1	9	9	501	0	2.2314526462E+01	-2.7327988788E+01	-5.3634509197E+01	6.4334205826E+01	4.1800000000E+00	0.000E+00	0.0
</event>
<event>
    11  -1  1.0000000E+00  1.0000000E+00  -1.0000000E+00  -1.0000000E+00
	2212	-1	0	0	0	0	0.0000000000E+00	0.0000000000E+00	6.5000000000E+03	6.5000000000E+03	9.3827000000E-01	0.000E+00	0.0
	2212	-1	0	0	0	0	0.0000000000E+00	0.0000000000E+00	-6.5000000000E+03	6.5000000000E+03	9.3827000000E-01	0.000E+00	0.0
	2212	1	0	0	0	0	0.0000000000E+00	0.0000000000E+00	6.2510079292E+03	6.2510079292E+03	9.3827000000E-01	0.000E+00	0.0
	2212	1	0	0	0	0	0.0000000000E+00	0.0000000000E+00	-5.3772562849E+03	5.3772562849E+03	9.3827000000E-01	0.000E+00	0.0
	51	2	1	2	0	0	-7.9239127698E+01	-1.0070247774E+02	-1.0090401894E+03	1.4672419919E+03	1.0574578623E+03	0.000E+00	0.0
	1000022	2	5	5	0	0	7.9239127698E+01	1.0070247774E+02	-5.8029142199E+02	1.0279098757E+03	8.3871374721E+02	0.000E+00	0.0
	14	1	6	6	0	0	1.8088287435E+02	2.3652618252E+02	-1.5695175474E+02	4.6789112256E+02	3.2500000000E+02	0.000E+00	0.0
	-14	1	6	6	0	0	-1.0164374665E+02	-1.3582370478E+02	-4.2333966724E+02	5.6001875314E+02	3.2500000000E+02	0.000E+00	0.0
	25	2	5	5	0	0	-7.9239127698E+01	-1.0070247774E+02	-2.9346022229E+02	3.4382591024E+02	1.2520992814E+02	0.000E+00	0.0
	-5	1	9	9	0	501	-4.5124292345E+01	-1.2686905870E+02	-2.0380724098E+02	2.4430886944E+02	4.1800000000E+00	0.000E+00	0.0
	5	1	9	9	501	0	-3.4114835353E+01	2.6166580960E+01	-8.9652981317E+01	9.9517040799E+01	4.1800000000E+00	0.000E+00	0.0
</event>
<event>
    11  -1  1.0000000E+00  1.0000000E+00  -1.0000000E+00  -1.0000000E+00
	2212	-1	0	0	0	0	0.0000000000E+00	0.0000000000E+00	6.5000000000E+03	6.5000000000E+03	9.3827000000E-01	0.000E+00	0.0
	2212	-1	0	0	0	0	0.0000000000E+00	0.0000000000E+00	-6.5000000000E+03	6.5000000000E+03	9.3827000000E-01	0.000E+00	0.0
	2212	1	0	0	0	0	0.0000000000E+00	0.0000000000E+00	5.2010788692E+03	5.2010788692E+03	9.3827000000E-01	0.000E+00	0.0
	2212	1	0	0	0	0	0.0000000000E+00	0.0000000000E+00	-6.2861542111E+03	6.2861542111E+03	9.3827000000E-01	0.000E+00	0.0
	51	2	1	2	0	0	7.4533742735E+01	1.3323327029E+02	9.8377294966E+02	1.4498933945E+03	1.0540755456E+03	0.000E+00	0.0
	1000022	2	5	5	0	0	-7.4533742735E+01	-1.3323327029E+02	9.8130508870E+02	1.2897366905E+03	8.2289408223E+02	0.000E+00	0.0
	14	1	6	6	0	0	-2.0094031284E+02	1.2530296208E+02	4.9846807215E+02	6.4044770324E+02	3.2500000000E+02	0.000E+00	0.0
	-14	1	6	6	0	0	1.2640657011E+02	-2.5853623237E+02	4.8283701654E+02	6.4928898725E+02	3.2500000000E+02	0.000E+00	0.0
	25	2	5	5	0	0	7.4533742735E+01	1.3323327029E+02	1.0377025316E+02	2.2303022920E+02	1.2517122104E+02	0.000E+00	0.0
	-5	1	9	9	0	501	1.0969583706E+02	9.3685217648E+01	7.4545837230E+01	1.6243352770E+02	4.1800000000E+00	0.000E+00	0.0
	5	1	9	9	501	0	-3.5162094327E+01	3.9548052643E+01	2.9224415934E+01	6.0596701494E+01	4.1800000000E+00	0.000E+00	0.0
</event>
<event>
    11  -1  1.0000000E+00  1.0000000E+00  -1.0000000E+00  -1.0000000E+00
	2212	-1	0	0	0	0	0.0000000000E+00	0.0000000000E+00	6.5000000000E+03	6.5000000000E+03	9.3827000000E-01	0.000E+00	0.0
	2212	-1	0	0	0	0	0.0000000000E+00	0.0000000000E+00	-6.5000000000E+03	6.5000000000E+03	9.3827000000E-01	0.000E+00	0.0
	2212	1	0	0	0	0	0.0000000000E+00	0.0000000000E+00	5.3381213978E+03	5.3381213978E+03	9.3827000000E-01	0.000E+00	0.0
	2212	1	0	0	0	0	0.0000000000E+00	0.0000000000E+00	-6.2638337011E+03	6.2638337011E+03	9.3827000000E-01	0.000E+00	0.0
	51	2	1	2	0	0	1.1577847889E+02	2.5111118114E+01	1.0110668125E+03	1.4607797921E+03	1.0476575191E+03	0.000E+00	0.0
	1000022	2	5	5	0	0	-1.1577847889E+02	-2.5111118114E+01	6.8687408543E+02	1.1035132463E+03	8.5551753406E+02	0.000E+00	0.0
	14	1	6	6	0	0	-3.8164603577E+01	-3.1560934747E+01	6.9541033381E+02	7.6920293937E+02	3.2500000000E+02	0.000E+00	0.0
	-14	1	6	6	0	0	-7.7613875310E+01	6.4498166325E+00	-8.5362483818E+00	3.3431030692E+02	3.2500000000E+02	0.000E+00	0.0
	25	2	5	5	0	0	1.1577847889E+02	2.5111118114E+01	2.3883821783E+02	2.9453165487E+02	1.2517977870E+02	0.000E+00	0.0
	-5	1	9	9	0	501	1.0150354987E+01	-3.8542052758E+01	2.3813953676E+01	4.6616481279E+01	4.1800000000E+00	0.000E+00	0.0
	5	1	9	9	501	0	1.0562812390E+02	6.3653170872E+01	2.1502426415E+02	2.4791517359E+02	4.1800000000E+00	0.000E+00	0.0
</event>
<event>
    11  -1  1.0000000E+00  1.0000000E+00  -1.0000000E+00  -1.0000000E+00
	2212	-1	0	0	0	0	0.0000000000E+00	0.0000000000E+00	6.5000000000E+03	6.5000000000E+03	9.3827000000E-01	0.000E+00	0.0
	2212	-1	0	0	0	0	0.0000000000E+00	0.0000000000E+00	-6.5000000000E+03	6.5000000000E+03	9.3827000000E-01	0.000E+00	0.0
	2212	1	0	0	0	0	0.0000000000E+00	0.0000000000E+00	5.8237590254E+03	5.8237590254E+03	9.3827000000E-01	0.000E+00	0.0
	2212	1	0	0	0	0	0.0000000000E+00	0.0000000000E+00	-6.0939856744E+03	6.0939856744E+03	9.3827000000E-01	0.000E+00	0.0
	51	2	1	2	0	0	6.0163874575E-01	-1.0543023768E+02	1.7680038987E+02	1.0680020448E+03	1.0479761891E+03	0.000E+00	0.0
	1000022	2	5	5	0	0	-6.0163874575E-01	1.0543023768E+02	3.1755345278E+02	9.1188065117E+02	8.4827485500E+02	0.000E+00	0.0
	14	1	6	6	0	0	-1.7278606478E+02	2.2176338555E+02	3.0309336899E+02	5.2585607697E+02	3.2500000000E+02	0.000E+00	0.0
	-14	1	6	6	0	0	1.7218442604E+02	-1.1633314788E+02	1.4460083789E+01	3.8602457420E+02	3.2500000000E+02	0.000E+00	0.0
	25	2	5	5	0	0	6.0163874575E-01	-1.0543023768E+02	-4.7326803771E+01	1.7037464901E+02	1.2518705079E+02	0.000E+00	0.0
	-5	1	9	9	0	501	-2.1790754910E+01	-7.0317743623E+01	3.2236518103E+01	8.0474142227E+01	4.1800000000E+00	0.000E+00	0.0
	5	1	9	9	501	0	2.2392393655E+01	-3.5112494052E+01	-7.9563321874E+01	8.9900506782E+01	4.1800000000E+00	0.000E+00	0.0
</event>
<event>
    11  -1  1.0000000E+00  1.0000000E+00  -1.0000000E+00  -1.0000000E+00
	2212	-1	0	0	0	0	0.0000000000E+00	0.0000000000E+00	6.5000000000E+03	6.5000000000E+03	9.3827000000E-01	0.000E+00	0.0
	2212	-1	0	0	0	0	0.0000000000E+00	0.0000000000E+00	-6.5000000000E+03	6.5000000000E+03	9.3827000000E-01	0.000E+00	0.0
	2212	1	0	0	0	0	0.0000000000E+00	0.0000000000E+00	5.5099783680E+03	5.5099783680E+03	9.3827000000E-01	0.000E+00	0.0
	2212	1	0	0	0	0	0.0000000000E+00	0.0000000000E+00	-6.2288952885E+03	6.2288952885E+03	9.3827000000E-01	0.000E+00	0.0
	51	2	1	2	0	0	-3.1587948729E+01	4.9675833834E+01	5.9240533415E+02	1.1949927542E+03	1.0361457985E+03	0.000E+00	0.0
	1000022	2	5	5	0	0	3.1587948729E+01	-4.9675833834E+01	7.2868410267E+02	1.1224665285E+03	8.5175413072E+02	0.000E+00	0.0
	14	1	6	6	0	0	-1.8312300737E+02	1.6486723968E+02	3.7887041797E+02	5.5667138974E+02	3.2500000000E+02	0.000E+00	0.0
	-14	1	6	6	0	0	2.1471095610E+02	-2.1454307351E+02	3.4981368470E+02	5.6579513878E+02	3.2500000000E+02	0.000E+00	0.0
	25	2	5	5	0	0	-3.1587948729E+01	4.9675833834E+01	-9.7671821891E+00	1.3865981496E+02	1.2516253219E+02	0.000E+00	0.0
	-5	1	9	9	0	501	3.2194414177E+00	-3.9205128593E+01	-1.6535350574E+01	4.2875367400E+01	4.1800000000E+00	0.000E+00	0.0
	5	1	9	9	501	0	-3.4807390147E+01	8.8880962428E+01	6.7681683849E+00	9.5784447559E+01	4.1800000000E+00	0.000E+00	0.0
</event>
<event>
    11  -1  1.0000000E+00  1.0000000E+00  -1.0000000E+00  -1.0000000E+00
	2212	-1	0	0	0	0	0.0000000000E+00	0.0000000000E+00	6.5000000000E+03	6.5000000000E+03	9.3827000000E-01	0.000E+00	0.0
	2212	-1	0	0	0	0	0.0000000000E+00	0.0000000000E+00	-6.5000000000E+03	6.5000000000E+03	9.3827000000E-01	0.000E+00	0.0
	2212	1	0	0	0	0	0.0000000000E+00	0.0000000000E+00	6.1276453407E+03	6.1276453407E+03	9.3827000000E-01	0.000E+00	0.0
	2212	1	0	0	0	0	0.0000000000E+00	0.0000000000E+00	-5.7581327010E+03	5.7581327010E+03	9.3827000000E-01	0.000E+00	0.0
	51	2	1	2	0	0	-1.9698805591E+01	-9.3921503893E+01	-2.5753363077E+02	1.0865007336E+03	1.0511664860E+03	0.000E+00	0.0
	1000022	2	5	5	0	0	1.9698805591E+01	9.3921503893E+01	-4.1761156274E+02	9.4932028784E+02	8.4711292030E+02	0.000E+00	0.0
	14	1	6	6	0	0	2.7070143074E+02	-2.4469893429E+00	-2.7296740536E+02	5.0340982981E+02	3.2500000000E+02	0.000E+00	0.0
	-14	1	6	6	0	0	-2.5100262515E+02	9.6368493236E+01	-1.4464415738E+02	4.4591045803E+02	3.2500000000E+02	0.000E+00	0.0
	25	2	5	5	0	0	-1.9698805591E+01	-9.3921503893E+01	4.8098923033E+01	1.6490167039E+02	1.2517892261E+02	0.000E+00	0.0
	-5	1	9	9	0	501	-6.8795035047E+01	-5.8560037267E+01	5.1539494534E+00	9.0587363394E+01	4.1800000000E+00	0.000E+00	0.0
	5	1	9	9	501	0	4.9096229456E+01	-3.5361466626E+01	4.2944973580E+01	7.4314306997E+01	4.1800000000E+00	0.000E+00	0.0
</event>
<event>
    11  -1  1.0000000E+00  1.0000000E+00  -1.0000000E+00  -1.0000000E+00
	2212	-1	0	0	0	0	0.0000000000E+00	0.0000000000E+00	6.5000000000E+03	6.5000000000E+03	9.3827000000E-01	0.000E+00	0.0
	2212	-1	0	0	0	0	0.0000000000E+00	0.0000000000E+00	-6.5000000000E+03	6.5000000000E+03	9.3827000000E-01	0.000E+00	0.0
	2212	1	0	0	0	0	0.0000000000E+00	0.0000000000E+00	6.2269556074E+03	6.2269556074E+03	9.3827000000E-01	0.000E+00	0.0
	2212	1	0	0	0	0	0.0000000000E+00	0.0000000000E+00	-5.3676005139E+03	5.3676005139E+03	9.3827000000E-01	0.000E+00	0.0
	51	2	1	2	0	0	1.9581487360E+02	-6.0855201332E+01	-9.6013300971E+02	1.4834700995E+03	1.1121067033E+03	0.000E+00	0.0
	1000022	2	5	5	0	0	-1.9581487360E+02	6.0855201332E+01	-5.8160188431E+02	1.0379810281E+03	8.3492337529E+02	0.000E+00	0.0
	14	1	6	6	0	0	-1.5552319031E+02	-1.7622015264E+02	-4.7139916833E+02	6.1893713802E+02	3.2500000000E+02	0.000E+00	0.0
	-14	1	6	6	0	0	-4.0291683295E+01	2.3707535397E+02	-1.1020271597E+02	4.1904389007E+02	3.2500000000E+02	0.000E+00	0.0
	25	2	5	5	0	0	1.9581487360E+02	-6.0855201332E+01	-2.7775320914E+02	3.6746285062E+02	1.2583831350E+02	0.000E+00	0.0
	-5	1	9	9	0	501	1.8960197935E+02	-5.2386535767E+01	-2.9022526553E+02	3.5063005697E+02	4.1800000000E+00	0.000E+00	0.0
	5	1	9	9	501	0	6.2128942578E+00	-8.4686655647E+00	1.2472056387E+01	1.6832793649E+01	4.1800000000E+00	0.000E+00	0.0
</event>
<event>
    11  -1  1.0000000E+00  1.0000000E+00  -1.0000000E+00  -1.0000000E+00
	2212	-1	0	0	0	0	0.0000000000E+00	0.0000000000E+00	6.5000000000E+03	6.5000000000E+03	9.3827000000E-01	0.000E+00	0.0
	2212	-1	0	0	0	0	0.0000000000E+00	0.0000000000E+00	-6.5000000000E+03	6.5000000000E+03	9.3827000000E-01	0.000E+00	0.0
	2212	1	0	0	0	0	0.0000000000E+00	0.0000000000E+00	6.3159420459E+03	6.3159420459E+03	9.3827000000E-01	0.000E+00	0.0
	2212	1	0	0	0	0	0.0000000000E+00	0.0000000000E+00	-4.9740730817E+03	4.9740730817E+03	9.3827000000E-01	0.000E+00	0.0
	51	2	1	2	0	0	-1.0442178001E+02	8.9085444864E+01	-1.4760529133E+03	1.8223633760E+03	1.0599226135E+03	0.000E+00	0.0
	1000022	2	5	5	0	0	1.0442178001E+02	-8.9085444864E+01	-9.6890071302E+02	1.2933161919E+03	8.4561105479E+02	0.000E+00	0.0
	14	1	6	6	0	0	5.5844238320E+01	1.9619357021E+02	-2.6701091881E+02	4.6747227373E+02	3.2500000000E+02	0.000E+00	0.0
	-14	1	6	6	0	0	4.8577541694E+01	-2.8527901508E+02	-7.0188979422E+02	8.2584391820E+02	3.2500000000E+02	0.000E+00	0.0
	25	2	5	5	0	0	-1.0442178001E+02	8.9085444864E+01	-3.7296825123E+02	4.1666868048E+02	1.2516927833E+02	0.000E+00	0.0
	-5	1	9	9	0	501	-1.1948999631E+02	8.4537343663E+01	-2.2921045432E+02	2.7199140880E+02	4.1800000000E+00	0.000E+00	0.0
	5	1	9	9	501	0	1.5068216300E+01	4.5481012013E+00	-1.4375779692E+02	1.4467727168E+02	4.1800000000E+00	0.000E+00	0.0
</event>
<event>
    11  -1  1.0000000E+00  1.0000000E+00  -1.0000000E+00  -1.0000000E+00
	2212	-1	0	0	0	0	0.0000000000E+00	0.0000000000E+00	6.5000000000E+03	6.5000000000E+03	9.3827000000E-01	0.000E+00	0.0
	2212	-1	0	0	0	0	0.0000000000E+00	0.0000000000E+00	-6.5000000000E+03	6.5000000000E+03	9.3827000000E-01	0.000E+00	0.0
	2212	1	0	0	0	0	0.0000000000E+00	0.0000000000E+00	4.8935828920E+03	4.8935828920E+03	9.3827000000E-01	0.000E+00	0.0
	2212	1	0	0	0	0	0.0000000000E+00	0.0000000000E+00	-6.3261933691E+03	6.3261933691E+03	9.3827000000E-01	0.000E+00	0.0
	51	2	1	2	0	0	-1.0667919455E+02	1.0763228387E+02	1.3850759668E+03	1.7487779660E+03	1.0567988368E+03	0.000E+00	0.0
	1000022	2	5	5	0	0	1.0667919455E+02	-1.0763228387E+02	1.2244410583E+03	1.4939207504E+03	8.4236461469E+02	0.000E+00	0.0
	14	1	6	6	0	0	6.8544318082E+01	-9.5812569268E+01	1.0837197419E+03	1.1375200442E+03	3.2500000000E+02	0.000E+00	0.0
	-14	1	6	6	0	0	3.8134876470E+01	-1.1819714597E+01	1.4072131636E+02	3.5640070613E+02	3.2500000000E+02	0.000E+00	0.0
	25	2	5	5	0	0	-1.0667919455E+02	1.0763228387E+02	2.0816941879E+02	2.8630298851E+02	1.2517881302E+02	0.000E+00	0.0
	-5	1	9	9	0	501	-1.3280540077E+00	5.0227430360E+01	5.4607801294E+00	5.0713420390E+01	4.1800000000E+00	0.000E+00	0.0
	5	1	9	9	501	0	-1.0535114054E+02	5.7404853505E+01	2.0270863866E+02	2.3558956812E+02	4.1800000000E+00	0.000E+00	0.0
</event>
<event>
    11  -1  1.0000000E+00  1.0000000E+00  -1.0000000E+00  -1.0000000E+00
	2212	-1	0	0	0	0	0.0000000000E+00	0.0000000000E+00	6.5000000000E+03	6.5000000000E+03	9.3827000000E-01	0.000E+00	0.0
	2212	-1	0	0	0	0	0.0000000000E+00	0.0000000000E+00	-6.5000000000E+03	6.5000000000E+03	9.3827000000E-01	0.000E+00	0.0
	2212	1	0	0	0	0	0.0000000000E+00	0.0000000000E+00	6.2048700189E+03	6.2048700189E+03	9.3827000000E-01	0.000E+00	0.0
	2212	1	0	0	0	0	0.0000000000E+00	0.0000000000E+00	-5.5306493882E+03	5.5306493882E+03	9.3827000000E-01	0.000E+00	0.0
	51	2	1	2	0	0	-3.0819924974E+01	-5.0531327148E+01	-8.6834400065E+02	1.3790802360E+03	1.0697372159E+03	0.000E+00	0.0
	1000022	2	5	5	0	0	3.0819924974E+01	5.0531327148E+01	-3.5634004805E+02	9.1777800536E+02	8.4370311987E+02	0.000E+00	0.0
	14	1	6	6	0	0	2.3354804783E+02	-5.1755674851E+01	-3.0682222334E+01	4.0470945046E+02	3.2500000000E+02	0.000E+00	0.0
	-14	1	6	6	0	0	-2.0272812286E+02	1.0228700200E+02	-3.2565782571E+02	5.1306855490E+02	3.2500000000E+02	0.000E+00	0.0
	25	2	5	5	0	0	-3.0819924974E+01	-5.0531327148E+01	-3.1788058262E+02	3.4670258756E+02	1.2510530212E+02	0.000E+00	0.0
	-5	1	9	9	0	501	2.6000365940E+00	3.3264116317E+01	-1.7103061636E+02	1.7430492178E+02	4.1800000000E+00	0.000E+00	0.0
	5	1	9	9	501	0	-3.3419961568E+01	-8.3795443466E+01	-1.4684996626E+02	1.7239766579E+02	4.1800000000E+00	0.000E+00	0.0
</event>
<event>
    11  -1  1.0000000E+00  1.0000000E+00  -1.0000000E+00  -1.0000000E+00
	2212	-1	0	0	0	0	0.0000000000E+00	0.0000000000E+00	6.5000000000E+03	6.5000000000E+03	9.3827000000E-01	0.000E+00	0.0
	2212	-1	0	0	0	0	0.0000000000E+00	0.0000000000E+00	-6.5000000000E+03	6.5000000000E+03	9.3827000000E-01	0.000E+00	0.0
	2212	1	0	0	0	0	0.0000000000E+00	0.0000000000E+00	5.5182422121E+03	5.5182422121E+03	9.3827000000E-01	0.000E+00	0.0
	2212	1	0	0	0	0	0.0000000000E+00	0.0000000000E+00	-6.2098364151E+03	6.2098364151E+03	9.3827000000E-01	0.000E+00	0.0
	51	2	1	2	0	0	2.9230999276E+01	1.4073843640E+02	6.3467621439E+02	1.2501828238E+03	1.0674649582E+03	0.000E+00	0.0
	1000022	2	5	5	0	0	-2.9230999276E+01	-1.4073843640E+02	6.2731582080E+02	1.0707658407E+03	8.5577601502E+02	0.000E+00	0.0
	14	1	6	6	0	0	-4.1199508433E+01	-1.6458853854E+02	3.2476874463E+00	3.6663651480E+02	3.2500000000E+02	0.000E+00	0.0
	-14	1	6	6	0	0	1.1968509157E+01	2.3850102135E+01	6.2406813335E+02	7.0412932594E+02	3.2500000000E+02	0.000E+00	0.0
	25	2	5	5	0	0	2.9230999276E+01	1.4073843640E+02	6.4278382206E+01	2.0115553205E+02	1.2518018556E+02	0.000E+00	0.0
	-5	1	9	9	0	501	9.9430465457E+00	1.2277717854E+02	9.8489253421E+01	1.5776788388E+02	4.1800000000E+00	0.000E+00	0.0
	5	1	9	9	501	0	1.9287952730E+01	1.7961257866E+01	-3.4210871215E+01	4.3387648172E+01	4.1800000000E+00	0.000E+00	0.0
</event>
<event>
    11  -1  1.0000000E+00  1.0000000E+00  -1.0000000E+00  -1.0000000E+00
	2212	-1	0	0	0	0	0.0000000000E+00	0.0000000000E+00	6.5000000000E+03	6.5000000000E+03	9.3827000000E-01	0.000E+00	0.0
	2212	-1	0	0	0	0	0.0000000000E+00	0.0000000000E+00	-6.5000000000E+03	6.5000000000E+03	9.3827000000E-01	0.000E+00	0.0
	2212	1	0	0	0	0	0.0000000000E+00	0.0000000000E+00	4.8634766864E+03	4.8634766864E+03	9.3827000000E-01	0.000E+00	0.0
	2212	1	0	0	0	0	0.0000000000E+00	0.0000000000E+00	-6.3273874300E+03	6.3273874300E+03	9.3827000000E-01	0.000E+00	0.0
	51	2	1	2	0	0	1.3442485304E+02	-7.9191668683E+01	1.4743714761E+03	1.8242945462E+03	1.0629854093E+03	0.000E+00	0.0
	1000022	2	5	5	0	0	-1.3442485304E+02	7.9191668683E+01	1.1936340058E+03	1.4728903923E+03	8.4870643123E+02	0.000E+00	0.0
	14	1	6	6	0	0	-2.0734894918E+02	2.3132793651E+02	4.1235851077E+02	6.1005798277E+02	3.2500000000E+02	0.000E+00	0.0
	-14	1	6	6	0	0	7.2924096145E+01	-1.5213626783E+02	7.8127549505E+02	8.6283240954E+02	3.2500000000E+02	0.000E+00	0.0
	25	2	5	5	0	0	1.3442485304E+02	-7.9191668683E+01	2.7027673778E+02	3.3624549136E+02	1.2518048560E+02	0.000E+00	0.0
	-5	1	9	9	0	501	1.0010886439E+02	-1.0455544086E+02	2.4977664575E+02	2.8872040126E+02	4.1800000000E+00	0.000E+00	0.0
	5	1	9	9	501	0	3.4315988645E+01	2.5363772179E+01	2.0500092026E+01	4.7525090099E+01	4.1800000000E+00	0.000E+00	0.0
</event>
<event>
    11  -1  1.0000000E+00  1.0000000E+00  -1.0000000E+00  -1.0000000E+00
	2212	-1	0	0	0	0	0.0000000000E+00	0.0000000000E+00	6.5000000000E+03	6.5000000000E+03	9.3827000000E-01	0.000E+00	0.0
	2212	-1	0	0	0	0	0.0000000000E+00	0.0000000000E+00	-6.5000000000E+03	6.5000000000E+03	9.3827000000E-01	0.000E+00	0.0
	2212	1	0	0	0	0	0.0000000000E+00	0.0000000000E+00	5.7779596604E+03	5.7779596604E+03	9.3827000000E-01	0.000E+00	0.0
	2212	1	0	0	0	0	0.0000000000E+00	0.0000000000E+00	-6.1298020224E+03	6.1298020224E+03	9.3827000000E-01	0.000E+00	0.0
	51	2	1	2	0	0	1.3693217323E+01	1.0335480141E+01	2.1449432675E+02	1.0561693218E+03	1.0340171632E+03	0.000E+00	0.0
	1000022	2	5	5	0	0	-1.3693217323E+01	-1.0335480141E+01	4.2975459567E+02	9.4379837656E+02	8.4010239658E+02	0.000E+00	0.0
	14	1	6	6	0	0	-5.6667674754E+01	1.9429927394E+02	2.4248854061E+01	3.8363581707E+02	3.2500000000E+02	0.000E+00	0.0
	-14	1	6	6	0	0	4.2974457432E+01	-2.0463475408E+02	4.0550574161E+02	5.6016255949E+02	3.2500000000E+02	0.000E+00	0.0
	25	2	5	5	0	0	1.3693217323E+01	1.0335480141E+01	-7.7912233704E+01	1.4843994059E+02	1.2517896569E+02	0.000E+00	0.0
	-5	1	9	9	0	501	-4.9719528219E+01	2.0954510470E+01	-6.1562022572E+01	8.1966322465E+01	4.1800000000E+00	0.000E+00	0.0
	5	1	9	9	501	0	6.3412745542E+01	-1.0619030329E+01	-1.6350211132E+01	6.6473618123E+01	4.1800000000E+00	0.000E+00	0.0
</event>
<event>
    11  -1  1.0000000E+00  1.0000000E+00  -1.0000000E+00  -1.0000000E+00
	2212	-1	0	0	0	0	0.0000000000E+00	0.0000000000E+00	6.5000000000E+03	6.5000000000E+03	9.3827000000E-01	0.000E+00	0.0
	2212	-1	0	0	0	0	0.0000000000E+00	0.0000000000E+00	-6.5000000000E+03	6.5000000000E+03	9.3827000000E-01	0.000E+00	0.0
	2212	1	0	0	0	0	0.0000000000E+00	0.0000000000E+00	5.3486292818E+03	5.3486292818E+03	9.3827000000E-01	0.000E+00	0.0
	2212	1	0	0	0	0	0.0000000000E+00	0.0000000000E+00	-6.2617346767E+03	6.2617346767E+03	9.3827000000E-01	0.000E+00	0.0
	51	2	1	2	0	0	-5.1042701762E+01	-7.8065417167E+01	1.0437228139E+03	1.4816827409E+03	1.0475337062E+03	0.000E+00	0.0
	1000022	2	5	5	0	0	5.1042701762E+01	7.8065417167E+01	6.3126993949E+02	1.0674537688E+03	8.5571972350E+02	0.000E+00	0.0
	14	1	6	6	0	0	-2.3296416981E+01	6.7570398075E+01	6.5330098822E+02	7.3316823646E+02	3.2500000000E+02	0.000E+00	0.0
	-14	1	6	6	0	0	7.4339118743E+01	1.0495019092E+01	-2.2031048733E+01	3.3428553231E+02	3.2500000000E+02	0.000E+00	0.0
	25	2	5	5	0	0	-5.1042701762E+01	-7.8065417167E+01	2.8183545543E+02	3.2218227272E+02	1.2518237158E+02	0.000E+00	0.0
	-5	1	9	9	0	501	-2.7045587793E+01	-5.9265636364E+01	3.6234103521E+01	7.4660981314E+01	4.1800000000E+00	0.000E+00	0.0
	5	1	9	9	501	0	-2.3997113968E+01	-1.8799780803E+01	2.4560135191E+02	2.4752129140E+02	4.1800000000E+00	0.000E+00	0.0
</event>
<event>
    11  -1  1.0000000E+00  1.0000000E+00  -1.0000000E+00  -1.0000000E+00
	2212	-1	0	0	0	0	0.0000000000E+00	0.0000000000E+00	6.5000000000E+03	6.5000000000E+03	9.3827000000E-01	0.000E+00	0.0
	2212	-1	0	0	0	0	0.0000000000E+00	0.0000000000E+00	-6.5000000000E+03	6.5000000000E+03	9.3827000000E-01	0.000E+00	0.0
	2212	1	0	0	0	0	0.0000000000E+00	0.0000000000E+00	6.0202996573E+03	6.0202996573E+03	9.3827000000E-01	0.000E+00	0.0
	2212	1	0	0	0	0	0.0000000000E+00	0.0000000000E+00	-5.9290019074E+03	5.9290019074E+03	9.3827000000E-01	0.000E+00	0.0
	51	2	1	2	0	0	5.1367014867E+01	-1.1624096959E+02	-1.5826652611E+02	1.0662226547E+03	1.0467243777E+03	0.000E+00	0.0
	1000022	2	5	5	0	0	-5.1367014867E+01	1.1624096959E+02	-8.5927935151E+00	8.5407468283E+02	8.4452305742E+02	0.000E+00	0.0
	14	1	6	6	0	0	-1.0292770603E+02	1.0579243578E+01	2.4961725237E+02	4.2265802458E+02	3.2500000000E+02	0.000E+00	0.0
	-14	1	6	6	0	0	5.1560691166E+01	1.0566172601E+02	-2.5821004588E+02	4.3141665824E+02	3.2500000000E+02	0.000E+00	0.0
	25	2	5	5	0	0	5.1367014867E+01	-1.1624096959E+02	-8.2704956381E+01	1.9662375246E+02	1.2518089709E+02	0.000E+00	0.0
	-5	1	9	9	0	501	6.4062902327E+00	-2.3294318386E+01	-8.9760330915E+01	9.3048671294E+01	4.1800000000E+00	0.000E+00	0.0
	5	1	9	9	501	0	4.4960724635E+01	-9.2946651202E+01	7.0553745343E+00	1.0357508117E+02	4.1800000000E+00	0.000E+00	0.0
</event>
<event>
    11  -1  1.0000000E+00  1.0000000E+00  -1.0000000E+00  -1.0000000E+00
	2212	-1	0	0	0	0	0.0000000000E+00	0.0000000000E+00	6.5000000000E+03	6.5000000000E+03	9.3827000000E-01	0.000E+00	0.0
	2212	-1	0	0	0	0	0.0000000000E+00	0.0000000000E+00	-6.5000000000E+03	6.5000000000E+03	9.3827000000E-01	0.000E+00	0.0
	2212	1	0	0	0	0	0.0000000000E+00	0.0000000000E+00	4.9205805413E+03	4.9205805413E+03	9.3827000000E-01	0.000E+00	0.0
	2212	1	0	0	0	0	0.0000000000E+00	0.0000000000E+00	-6.2989944679E+03	6.2989944679E+03	9.3827000000E-01	0.000E+00	0.0
	51	2	1	2	0	0	1.5267242145E+02	1.4575727813E+02	1.3023524907E+03	1.7350977659E+03	1.1268931604E+03	0.000E+00	0.0
	1000022	2	5	5	0	0	-1.5267242145E+02	-1.4575727813E+02	1.1702405677E+03	1.4586210354E+03	8.4472379279E+02	0.000E+00	0.0
	14	1	6	6	0	0	-3.1015535797E+02	-1.9843429099E+02	8.0011670694E+02	9.3882067438E+02	3.2500000000E+02	0.000E+00	0.0
	-14	1	6	6	0	0	1.5748293651E+02	5.2677012863E+01	3.7012386078E+02	5.1980036100E+02	3.2500000000E+02	0.000E+00	0.0
	25	2	5	5	0	0	1.5267242145E+02	1.4575727813E+02	2.0817335885E+02	3.2180395542E+02	1.2517022805E+02	0.000E+00	0.0
	-5	1	9	9	0	501	8.5815983011E+01	1.5418022711E+02	1.3476850610E+02	2.2207194332E+02	4.1800000000E+00	0.000E+00	0.0
	5	1	9	9	501	0	6.6856438441E+01	-8.4229489878E+00	7.3404852749E+01	9.9732012101E+01	4.1800000000E+00	0.000E+00	0.0
</event>
<event>
    11  -1  1.0000000E+00  1.0000000E+00  -1.0000000E+00  -1.0000000E+00
	2212	-1	0	0	0	0	0.0000000000E+00	0.0000000000E+00	6.5000000000E+03	6.5000000000E+03	9.3827000000E-01	0.000E+00	0.0
	2212	-1	0	0	0	0	0.0000000000E+00	0.0000000000E+00	-6.5000000000E+03	6.5000000000E+03	9.3827000000E-01	0.000E+00	0.0
	2212	1	0	0	0	0	0.0000000000E+00	0.0000000000E+00	5.2568840478E+03	5.2568840478E+03	9.3827000000E-01	0.000E+00	0.0
	2212	1	0	0	0	0	0.0000000000E+00	0.0000000000E+00	-6.2763299483E+03	6.2763299483E+03	9.3827000000E-01	0.000E+00	0.0
	51	2	1	2	0	0	8.9334833594E+01	9.1681921544E+01	1.1538055473E+03	1.5683892264E+03	1.0546047777E+03	0.000E+00	0.0
	1000022	2	5	5	0	0	-8.9334833594E+01	-9.1681921544E+01	7.0301307604E+02	1.1032145998E+03	8.4051697245E+02	0.000E+00	0.0
	14	1	6	6	0	0	-1.5075840863E+02	-2.3425491483E+02	1.7142862099E+02	4.6110328017E+02	3.2500000000E+02	0.000E+00	0.0
	-14	1	6	6	0	0	6.1423575034E+01	1.4257299328E+02	5.3158445506E+02	6.4211131966E+02	3.2500000000E+02	0.000E+00	0.0
	25	2	5	5	0	0	8.9334833594E+01	9.1681921544E+01	3.1643282453E+02	3.6357140408E+02	1.2517246581E+02	0.000E+00	0.0
	-5	1	9	9	0	501	8.7468205728E+01	1.1180488676E+02	1.9981619516E+02	2.4514282361E+02	4.1800000000E+00	0.000E+00	0.0
	5	1	9	9	501	0	1.8666278666E+00	-2.0122965220E+01	1.1661662937E+02	1.1842858048E+02	4.1800000000E+00	0.000E+00	0.0
</event>
<event>
    11  -1  1.0000000E+00  1.0000000E+00  -1.0000000E+00  -1.0000000E+00
	2212	-1	0	0	0	0	0.0000000000E+00	0.0000000000E+00	6.5000000000E+03	6.5000000000E+03	9.3827000000E-01	0.000E+00	0.0
	2212	-1	0	0	0	0	0.0000000000E+00	0.0000000000E+00	-6.5000000000E+03	6.5000000000E+03	9.3827000000E-01	0.000E+00	0.0
	2212	1	0	0	0	0	0.0000000000E+00	0.0000000000E+00	6.0344850269E+03	6.0344850269E+03	9.3827000000E-01	0.000E+00	0.0
	2212	1	0	0	0	0	0.0000000000E+00	0.0000000000E+00	-5.9557117912E+03	5.9557117912E+03	9.3827000000E-01	0.000E+00	0.0
	51	2	1	2	0	0	-4.2417864462E+01	7.2933268129E+01	-4.4912880785E+01	1.0112531569E+03	1.0067260022E+03	0.000E+00	0.0
	1000022	2	5	5	0	0	4.2417864462E+01	-7.2933268129E+01	-1.0084763655E+02	8.5726770498E+02	8.4712403778E+02	0.000E+00	0.0
	14	1	6	6	0	0	1.1332904032E+01	1.2503472962E+02	-2.6889846941E+02	4.4010624305E+02	3.2500000000E+02	0.000E+00	0.0
	-14	1	6	6	0	0	3.1084960431E+01	-1.9796799775E+02	1.6805083286E+02	4.1716146193E+02	3.2500000000E+02	0.000E+00	0.0
	25	2	5	5	0	0	-4.2417864462E+01	7.2933268129E+01	2.2074400879E+01	1.5253547696E+02	1.2514493890E+02	0.000E+00	0.0
	-5	1	9	9	0	501	-2.3861183417E+01	-2.7159142594E+01	3.4189777755E+01	4.9933840263E+01	4.1800000000E+00	0.000E+00	0.0
	5	1	9	9	501	0	-1.8556681045E+01	1.0009241072E+02	-1.2115376876E+01	1.0260163670E+02	4.1800000000E+00	0.000E+00	0.0
</event>
<event>
    11  -1  1.0000000E+00  1.0000000E+00  -1.0000000E+00  -1.0000000E+00
	2212	-1	0	0	0	0	0.0000000000E+00	0.0000000000E+00	6.5000000000E+03	6.5000000000E+03	9.3827000000E-01	0.000E+00	0.0
	2212	-1	0	0	0	0	0.0000000000E+00	0.0000000000E+00	-6.5000000000E+03	6.5000000000E+03	9.3827000000E-01	0.000E+00	0.0
	2212	1	0	0	0	0	0.0000000000E+00	0.0000000000E+00	5.0352491101E+03	5.0352491101E+03	9.3827000000E-01	0.000E+00	0.0
	2212	1	0	0	0	0	0.0000000000E+00	0.0000000000E+00	-6.3092010084E+03	6.3092010084E+03	9.3827000000E-01	0.000E+00	0.0
	51	2	1	2	0	0	8.5102093611E+01	-1.0820633319E+02	1.1901657849E+03	1.5979166259E+03	1.0573041052E+03	0.000E+00	0.0
	1000022	2	5	5	0	0	-8.5102093611E+01	1.0820633319E+02	1.1344221718E+03	1.4229755454E+03	8.4793558836E+02	0.000E+00	0.0
	14	1	6	6	0	0	-2.4767452419E+02	1.5017435322E+02	8.6594905622E+02	9.6922018874E+02	3.2500000000E+02	0.000E+00	0.0
	-14	1	6	6	0	0	1.6257243058E+02	-4.1968020029E+01	2.6847311558E+02	4.5375535664E+02	3.2500000000E+02	0.000E+00	0.0
	25	2	5	5	0	0	8.5102093611E+01	-1.0820633319E+02	1.3952972653E+02	2.3257433612E+02	1.2518506442E+02	0.000E+00	0.0
	-5	1	9	9	0	501	1.5333403251E+01	-6.7455275724E+01	-2.2451525358E+00	6.9338593785E+01	4.1800000000E+00	0.000E+00	0.0
	5	1	9	9	501	0	6.9768690360E+01	-4.0751057471E+01	1.4177487907E+02	1.6323574233E+02	4.1800000000E+00	0.000E+00	0.0
</event>
<event>
    11  -1  1.0000000E+00  1.0000000E+00  -1.0000000E+00  -1.0000000E+00
	2212	-1	0	0	0	0	0.0000000000E+00	0.0000000000E+00	6.5000000000E+03	6.5000000000E+03	9.3827000000E-01	0.000E+00	0.0
	2212	-1	0	0	0	0	0.0000000000E+00	0.0000000000E+00	-6.5000000000E+03	6.5000000000E+03	9.3827000000E-01	0.000E+00	0.0
	2212	1	0	0	0	0	0.0000000000E+00	0.0000000000E+00	6.0590226025E+03	6.0590226025E+03	9.3827000000E-01	0.000E+00	0.0
	2212	1	0	0	0	0	0.0000000000E+00	0.0000000000E+00	-5.9142736573E+03	5.9142736573E+03	9.3827000000E-01	0.000E+00	0.0
	51	2	1	2	0	0	-7.0817225795E+01	-8.2980643780E+01	-1.8205943209E+02	1.0383712325E+03	1.0164488738E+03	0.000E+00	0.0
	1000022	2	5	5	0	0	7.0817225795E+01	8.2980643780E+01	-8.4161620991E+01	8.4993372502E+02	8.3869141629E+02	0.000E+00	0.0
	14	1	6	6	0	0	1.0303567434E+02	-1.3088109255E+02	-2.3181261402E+02	4.3256016760E+02	3.2500000000E+02	0.000E+00	0.0
	-14	1	6	6	0	0	-3.2218448542E+01	2.1386173633E+02	1.4765099303E+02	4.1737355742E+02	3.2500000000E+02	0.000E+00	0.0
	25	2	5	5	0	0	-7.0817225795E+01	-8.2980643780E+01	-6.0587324264E+01	1.7677001521E+02	1.2520362497E+02	0.000E+00	0.0
	-5	1	9	9	0	501	-9.3014624804E+01	-8.2777049427E+01	-7.9092069665E+01	1.4756960467E+02	4.1800000000E+00	0.000E+00	0.0
	5	1	9	9	501	0	2.2197399010E+01	-2.0359435226E-01	1.8504745401E+01	2.9200410542E+01	4.1800000000E+00	0.000E+00	0.0
</event>
<event>
    11  -1  1.0000000E+00  1.0000000E+00  -1.0000000E+00  -1.0000000E+00
	2212	-1	0	0	0	0	0.0000000000E+00	0.0000000000E+00	6.5000000000E+03	6.5000000000E+03	9.3827000000E-01	0.000E+00	0.0
	2212	-1	0	0	0	0	0.0000000000E+00	0.0000000000E+00	-6.5000000000E+03	6.5000000000E+03	9.3827000000E-01	0.000E+00	0.0
	2212	1	0	0	0	0	0.0000000000E+00	0.0000000000E+00	6.0848461365E+03	6.0848461365E+03	9.3827000000E-01	0.000E+00	0.0
	2212	1	0	0	0	0	0.0000000000E+00	0.0000000000E+00	-5.8395793709E+03	5.8395793709E+03	9.3827000000E-01	0.000E+00	0.0
	51	2	1	2	0	0	5.4344662290E+01	-2.1078339916E+01	-1.0487967972E+02	1.0540882738E+03	1.0472366986E+03	0.000E+00	0.0
	1000022	2	5	5	0	0	-5.4344662290E+01	2.1078339916E+01	-3.4226157512E+02	9.0677147489E+02	8.3767170368E+02	0.000E+00	0.0
	14	1	6	6	0	0	-9.0940158603E+01	2.6685903203E+02	-1.6248588106E+02	4.5990272555E+02	3.2500000000E+02	0.000E+00	0.0
	-14	1	6	6	0	0	3.6595496313E+01	-2.4578069211E+02	-1.7977569407E+02	4.4686874935E+02	3.2500000000E+02	0.000E+00	0.0
	25	2	5	5	0	0	5.4344662290E+01	-2.1078339916E+01	9.6994809534E+01	1.6880301777E+02	1.2525504780E+02	0.000E+00	0.0
	-5	1	9	9	0	501	-3.7809924697E+01	8.8152494452E+00	1.5063779241E+01	4.1853182357E+01	4.1800000000E+00	0.000E+00	0.0
	5	1	9	9	501	0	9.2154586988E+01	-2.9893589361E+01	8.1931030293E+01	1.2694983542E+02	4.1800000000E+00	0.000E+00	0.0
</event>
<event>
    11  -1  1.0000000E+00  1.0000000E+00  -1.0000000E+00  -1.0000000E+00
	2212	-1	0	0	0	0	0.0000000000E+00	0.0000000000E+00	6.5000000000E+03	6.5000000000E+03	9.3827000000E-01	0.000E+00	0.0
	2212	-1	0	0	0	0	0.0000000000E+00	0.0000000000E+00	-6.5000000000E+03	6.5000000000E+03	9.3827000000E-01	0.000E+00	0.0
	2212	1	0	0	0	0	0.0000000000E+00	0.0000000000E+00	5.7585230155E+03	5.7585230155E+03	9.3827000000E-01	0.000E+00	0.0
	2212	1	0	0	0	0	0.0000000000E+00	0.0000000000E+00	-6.1300569490E+03	6.1300569490E+03	9.3827000000E-01	0.000E+00	0.0
	51	2	1	2	0	0	-8.7000335777E+01	-9.3970329466E+01	4.2817563205E+02	1.1388375146E+03	1.0474812798E+03	0.000E+00	0.0
	1000022	2	5	5	0	0	8.7000335777E+01	9.3970329466E+01	2.5210457906E+02	8.9617729317E+02	8.5039845999E+02	0.000E+00	0.0
	14	1	6	6	0	0	-1.1471897218E+02	1.6301033336E+02	3.2467106612E+02	5.0076852191E+02	3.2500000000E+02	0.000E+00	0.0
	-14	1	6	6	0	0	2.0171930796E+02	-6.9040003895E+01	-7.2566487058E+01	3.9540877126E+02	3.2500000000E+02	0.000E+00	0.0
	25	2	5	5	0	0	-8.7000335777E+01	-9.3970329466E+01	1.1942935450E+02	2.1524274233E+02	1.2516623413E+02	0.000E+00	0.0
	-5	1	9	9	0	501	3.0721833848E+01	-7.3411816335E+00	3.0471875573E+01	4.4087771816E+01	4.1800000000E+00	0.000E+00	0.0
	5	1	9	9	501	0	-1.1772216962E+02	-8.6629147832E+01	8.8957478924E+01	1.7115497051E+02	4.1800000000E+00	0.000E+00	0.0
</event>
<event>
    11  -1  1.0000000E+00  1.0000000E+00  -1.0000000E+00  -1.0000000E+00
	2212	-1	0	0	0	0	0.0000000000E+00	0.0000000000E+00	6.5000000000E+03	6.5000000000E+03	9.3827000000E-01	0.000E+00	0.0
	2212	-1	0	0	0	0	0.0000000000E+00	0.0000000000E+00	-6.5000000000E+03	6.5000000000E+03	9.3827000000E-01	0.000E+00	0.0
	2212	1	0	0	0	0	0.0000000000E+00	0.0000000000E+00	5.0776828989E+03	5.0776828989E+03	9.3827000000E-01	0.000E+00	0.0
	2212	1	0	0	0	0	0.0000000000E+00	0.0000000000E+00	-6.3006875767E+03	6.3006875767E+03	9.3827000000E-01	0.000E+00	0.0
	51	2	1	2	0	0	9.6948159347E+01	1.2836855655E+02	1.1456122770E+03	1.5723380024E+03	1.0648670681E+03	0.000E+00	0.0
	1000022	2	5	5	0	0	-9.6948159347E+01	-1.2836855655E+02	1.0718325204E+03	1.3678583988E+03	8.3446642562E+02	0.000E+00	0.0
	14	1	6	6	0	0	-1.7426924603E+02	-2.1481698006E+02	8.6756816784E+02	9.6685864059E+02	3.2500000000E+02	0.000E+00	0.0
	-14	1	6	6	0	0	7.7321086686E+01	8.6448423507E+01	2.0426435259E+02	4.0099975825E+02	3.2500000000E+02	0.000E+00	0.0
	25	2	5	5	0	0	9.6948159347E+01	1.2836855655E+02	1.5117215737E+02	2.5377112563E+02	1.2517719891E+02	0.000E+00	0.0
	-5	1	9	9	0	501	1.2013737799E+02	1.2288233926E+02	1.5214008960E+02	2.2955857239E+02	4.1800000000E+00	0.000E+00	0.0
	5	1	9	9	501	0	-2.3189218644E+01	5.4862172875E+00	-9.6793223404E-01	2.4212553237E+01	4.1800000000E+00	0.000E+00	0.0
</event>
<event>
    11  -1  1.0000000E+00  1.0000000E+00  -1.0000000E+00  -1.0000000E+00
	2212	-1	0	0	0	0	0.0000000000E+00	0.0000000000E+00	6.5000000000E+03	6.5000000000E+03	9.3827000000E-01	0.000E+00	0.0
	2212	-1	0	0	0	0	0.0000000000E+00	0.0000000000E+00	-6.5000000000E+03	6.5000000000E+03	9.3827000000E-01	0.000E+00	0.0
	2212	1	0	0	0	0	0.0000000000E+00	0.0000000000E+00	6.1937375968E+03	6.1937375968E+03	9.3827000000E-01	0.000E+00	0.0
	2212	1	0	0	0	0	0.0000000000E+00	0.0000000000E+00	-5.6041253223E+03	5.6041253223E+03	9.3827000000E-01	0.000E+00	0.0
	51	2	1	2	0	0	3.0368803699E+01	1.3251229922E+02	-5.5187359785E+02	1.1918628985E+03	1.0476120117E+03	0.000E+00	0.0
	1000022	2	5	5	0	0	-3.0368803699E+01	-1.3251229922E+02	-5.2653339747E+02	1.0068583520E+03	8.4737509330E+02	0.000E+00	0.0
	14	1	6	6	0	0	-1.8042943219E+02	9.5179228931E+01	-8.2022422697E+01	3.9238570749E+02	3.2500000000E+02	0.000E+00	0.0
	-14	1	6	6	0	0	1.5006062849E+02	-2.2769152815E+02	-4.4451097477E+02	6.1447264456E+02	3.2500000000E+02	0.000E+00	0.0
	25	2	5	5	0	0	3.0368803699E+01	1.3251229922E+02	-6.3078876961E+01	1.9527872885E+02	1.2519210654E+02	0.000E+00	0.0
	-5	1	9	9	0	501	4.6734464139E+01	9.1124844986E+01	-9.5473551035E+01	1.4007326247E+02	4.1800000000E+00	0.000E+00	0.0
	5	1	9	9	501	0	-1.6365660440E+01	4.1387454233E+01	3.2394674074E+01	5.5205466377E+01	4.1800000000E+00	0.000E+00	0.0
</event>
<event>
    11  -1  1.0000000E+00  1.0000000E+00  -1.0000000E+00  -1.0000000E+00
	2212	-1	0	0	0	0	0.0000000000E+00	0.0000000000E+00	6.5000000000E+03	6.5000000000E+03	9.3827000000E-01	0.000E+00	0.0
	2212	-1	0	0	0	0	0.0000000000E+00	0.0000000000E+00	-6.5000000000E+03	6.5000000000E+03	9.3827000000E-01	0.000E+00	0.0
	2212	1	0	0	0	0	0.0000000000E+00	0.0000000000E+00	5.5661187879E+03	5.5661187879E+03	9.3827000000E-01	0.000E+00	0.0
	2212	1	0	0	0	0	0.0000000000E+00	0.0000000000E+00	-6.2147143591E+03	6.2147143591E+03	9.3827000000E-01	0.000E+00	0.0
	51	2	1	2	0	0	5.5107090489E-01	4.8168325961E+01	6.9241492111E+02	1.2439656404E+03	1.0323233991E+03	0.000E+00	0.0
	1000022	2	5	5	0	0	-5.5107090489E-01	-4.8168325961E+01	5.1858510458E+02	1.0323543896E+03	8.9134986601E+02	0.000E+00	0.0
	14	1	6	6	0	0	6.1206168881E+01	1.8606590531E+02	4.9852494297E+02	6.2651323608E+02	3.2500000000E+02	0.000E+00	0.0
	-14	1	6	6	0	0	-6.1757239786E+01	-2.3423423127E+02	2.0060161607E+01	4.0584115347E+02	3.2500000000E+02	0.000E+00	0.0
	25	2	5	5	0	0	5.5107090489E-01	4.8168325961E+01	1.3001046671E+02	1.8681246343E+02	1.2520257080E+02	0.000E+00	0.0
	-5	1	9	9	0	501	-3.3151787753E+01	7.4162074886E+01	1.1625733859E+02	1.4188832072E+02	4.1800000000E+00	0.000E+00	0.0
	5	1	9	9	501	0	3.3702858658E+01	-2.5993748925E+01	1.3753128122E+01	4.4924142708E+01	4.1800000000E+00	0.000E+00	0.0
</event>
<event>
    11  -1  1.0000000E+00  1.0000000E+00  -1.0000000E+00  -1.0000000E+00
	2212	-1	0	0	0	0	0.0000000000E+00	0.0000000000E+00	6.5000000000E+03	6.5000000000E+03	9.3827000000E-01	0.000E+00	0.0
	2212	-1	0	0	0	0	0.0000000000E+00	0.0000000000E+00	-6.5000000000E+03	6.5000000000E+03	9.3827000000E-01	0.000E+00	0.0
	2212	1	0	0	0	0	0.0000000000E+00	0.0000000000E+00	4.9475272652E+03	4.9475272652E+03	9.3827000000E-01	0.000E+00	0.0
	2212	1	0	0	0	0	0.0000000000E+00	0.0000000000E+00	-6.3221881947E+03	6.3221881947E+03	9.3827000000E-01	0.000E+00	0.0
	51	2	1	2	0	0	4.6467075250E+01	6.5448950264E+00	1.1723326192E+03	1.5750421307E+03	1.0508053667E+03	0.000E+00	0.0
	1000022	2	5	5	0	0	-4.6467075250E+01	-6.5448950264E+00	1.3448366844E+03	1.5933167260E+03	8.5315324354E+02	0.000E+00	0.0
	14	1	6	6	0	0	-1.8239819116E+02	8.9606241774E+01	3.0074036184E+02	4.8720441700E+02	3.2500000000E+02	0.000E+00	0.0
	-14	1	6	6	0	0	1.3593111591E+02	-9.6151136801E+01	1.0440963225E+03	1.1061123090E+03	3.2500000000E+02	0.000E+00	0.0
	25	2	5	5	0	0	4.6467075250E+01	6.5448950264E+00	2.9824245056E+01	1.3696781408E+02	1.2517456518E+02	0.000E+00	0.0
	-5	1	9	9	0	501	-3.6568882945E+01	2.9765889431E+01	9.3854119362E+00	4.8258157141E+01	4.1800000000E+00	0.000E+00	0.0
	5	1	9	9	501	0	8.3035958195E+01	-2.3220994404E+01	2.0438833120E+01	8.8709656936E+01	4.1800000000E+00	0.000E+00	0.0
</event>
<event>
    11  -1  1.0000000E+00  1.0000000E+00  -1.0000000E+00  -1.0000000E+00
	2212	-1	0	0	0	0	0.0000000000E+00	0.0000000000E+00	6.5000000000E+03	6.5000000000E+03	9.3827000000E-01	0.000E+00	0.0
	2212	-1	0	0	0	0	0.0000000000E+00	0.0000000000E+00	-6.5000000000E+03	6.5000000000E+03	9.3827000000E-01	0.000E+00	0.0
	2212	1	0	0	0	0	0.0000000000E+00	0.0000000000E+00	6.2765523957E+03	6.2765523957E+03	9.3827000000E-01	0.000E+00	0.0
	2212	1	0	0	0	0	0.0000000000E+00	0.0000000000E+00	-5.2545502333E+03	5.2545502333E+03	9.3827000000E-01	0.000E+00	0.0
	51	2	1	2	0	0	-9.6081735782E+01	1.0843383816E+02	-1.0463216062E+03	1.4929667001E+03	1.0550692237E+03	0.000E+00	0.0
	1000022	2	5	5	0	0	9.6081735782E+01	-1.0843383816E+02	-8.2158428774E+02	1.1917263054E+03	8.5101189649E+02	0.000E+00	0.0
	14	1	6	6	0	0	1.4993493585E+02	-2.9945558294E+02	-3.3805483747E+02	5.7624665229E+02	3.2500000000E+02	0.000E+00	0.0
	-14	1	6	6	0	0	-5.3853200067E+01	1.9102174478E+02	-4.8352945027E+02	6.1547965313E+02	3.2500000000E+02	0.000E+00	0.0
	25	2	5	5	0	0	-9.6081735782E+01	1.0843383816E+02	-2.0041787468E+02	2.7717106566E+02	1.2516739967E+02	0.000E+00	0.0
	-5	1	9	9	0	501	-1.0526555056E+02	1.2878524006E+02	-1.6014522101E+02	2.3093383989E+02	4.1800000000E+00	0.000E+00	0.0
	5	1	9	9	501	0	9.1838147815E+00	-2.0351401907E+01	-4.0272653669E+01	4.6237225772E+01	4.1800000000E+00	0.000E+00	0.0
</event>
<event>
    11  -1  1.0000000E+00  1.0000000E+00  -1.0000000E+00  -1.0000000E+00
	2212	-1	0	0	0	0	0.0000000000E+00	0.0000000000E+00	6.5000000000E+03	6.5000000000E+03	9.3827000000E-01	0.000E+00	0.0
	2212	-1	0	0	0	0	0.0000000000E+00	0.0000000000E+00	-6.5000000000E+03	6.5000000000E+03	9.3827000000E-01	0.000E+00	0.0
	2212	1	0	0	0	0	0.0000000000E+00	0.0000000000E+00	6.3244350048E+03	6.3244350048E+03	9.3827000000E-01	0.000E+00	0.0
	2212	1	0	0	0	0	0.0000000000E+00	0.0000000000E+00	-4.9222528821E+03	4.9222528821E+03	9.3827000000E-01	0.000E+00	0.0
	51	2	1	2	0	0	-2.1965862010E+01	6.7890234484E+01	-1.6421483949E+03	1.9518533742E+03	1.0526104031E+03	0.000E+00	0.0
	1000022	2	5	5	0	0	2.1965862010E+01	-6.7890234484E+01	-9.1369652514E+02	1.2440181070E+03	8.4121824008E+02	0.000E+00	0.0
	14	1	6	6	0	0	-2.5455378720E+02	-6.6986544065E+00	-4.6298751854E+02	6.2034260282E+02	3.2500000000E+02	0.000E+00	0.0
	-14	1	6	6	0	0	2.7651964921E+02	-6.1191580077E+01	-4.5070900660E+02	6.2367550417E+02	3.2500000000E+02	0.000E+00	0.0
	25	2	5	5	0	0	-2.1965862010E+01	6.7890234484E+01	-4.8848559755E+02	5.0929400607E+02	1.2518235727E+02	0.000E+00	0.0
	-5	1	9	9	0	501	-3.6046329187E+01	7.8688512699E+01	-1.7499713418E+02	1.9527593105E+02	4.1800000000E+00	0.000E+00	0.0
	5	1	9	9	501	0	1.4080467177E+01	-1.0798278216E+01	-3.1348846338E+02	3.1401807502E+02	4.1800000000E+00	0.000E+00	0.0
</event>
<event>
    11  -1  1.0000000E+00  1.0000000E+00  -1.0000000E+00  -1.0000000E+00
	2212	-1	0	0	0	0	0.0000000000E+00	0.0000000000E+00	6.5000000000E+03	6.5000000000E+03	9.3827000000E-01	0.000E+00	0.0
	2212	-1	0	0	0	0	0.0000000000E+00	0.0000000000E+00	-6.5000000000E+03	6.5000000000E+03	9.3827000000E-01	0.000E+00	0.0
	2212	1	0	0	0	0	0.0000000000E+00	0.0000000000E+00	5.6150445419E+03	5.6150445419E+03	9.3827000000E-01	0.000E+00	0.0
	2212	1	0	0	0	0	0.0000000000E+00	0.0000000000E+00	-6.1749729586E+03	6.1749729586E+03	9.3827000000E-01	0.000E+00	0.0
	51	2	1	2	0	0	1.2851958096E+01	-1.4017133483E+02	6.6651651156E+02	1.2706672473E+03	1.0726312587E+03	0.000E+00	0.0
	1000022	2	5	5	0	0	-1.2851958096E+01	1.4017133483E+02	3.5136072552E+02	9.2892399808E+02	8.4831141619E+02	0.000E+00	0.0
	14	1	6	6	0	0	-2.2959433322E+02	1.5033070334E+02	3.6216866808E+01	4.2690694496E+02	3.2500000000E+02	0.000E+00	0.0
	-14	1	6	6	0	0	2.1674237512E+02	-1.0159368515E+01	3.1514385871E+02	5.0201705312E+02	3.2500000000E+02	0.000E+00	0.0
	25	2	5	5	0	0	1.2851958096E+01	-1.4017133483E+02	2.0856769122E+02	2.8105850140E+02	1.2522069898E+02	0.000E+00	0.0
	-5	1	9	9	0	501	2.4832519686E+01	-2.3673999797E+01	-7.3998498902E+00	3.5346039081E+01	4.1800000000E+00	0.000E+00	0.0
	5	1	9	9	501	0	-1.1980561590E+01	-1.1649733503E+02	2.1596754111E+02	2.4571246232E+02	4.1800000000E+00	0.000E+00	0.0
</event>
<event>
    11  -1  1.0000000E+00  1.0000000E+00  -1.0000000E+00  -1.0000000E+00
	2212	-1	0	0	0	0	0.0000000000E+00	0.0000000000E+00	6.5000000000E+03	6.5000000000E+03	9.3827000000E-01	0.000E+00	0.0
	2212	-1	0	0	0	0	0.0000000000E+00	0.0000000000E+00	-6.5000000000E+03	6.5000000000E+03	9.3827000000E-01	0.000E+00	0.0
	2212	1	0	0	0	0	0.0000000000E+00	0.0000000000E+00	5.0656764153E+03	5.0656764153E+03	9.3827000000E-01	0.000E+00	0.0
	2212	1	0	0	0	0	0.0000000000E+00	0.0000000000E+00	-6.3082801466E+03	6.3082801466E+03	9.3827000000E-01	0.000E+00	0.0
	51	2	1	2	0	0	2.7220945381E+01	-1.1197384175E+02	1.1250426428E+03	1.5423855870E+03	1.0487865510E+03	0.000E+00	0.0
	1000022	2	5	5	0	0	-2.7220945381E+01	1.1197384175E+02	1.1471548719E+03	1.4309612378E+03	8.4758872269E+02	0.000E+00	0.0
	14	1	6	6	0	0	1.5406889647E+01	2.1137214485E+02	2.2792470504E+02	4.4998914102E+02	3.2500000000E+02	0.000E+00	0.0
	-14	1	6	6	0	0	-4.2627835028E+01	-9.9398303098E+01	9.1923016688E+02	9.8097209679E+02	3.2500000000E+02	0.000E+00	0.0
	25	2	5	5	0	0	2.7220945381E+01	-1.1197384175E+02	9.5448859428E+01	1.9508220034E+02	1.2516972086E+02	0.000E+00	0.0
	-5	1	9	9	0	501	-4.4690765105E+01	-1.1391597599E+01	2.2867166846E+01	5.1647000891E+01	4.1800000000E+00	0.000E+00	0.0
	5	1	9	9	501	0	7.1911710486E+01	-1.0058224415E+02	7.2581692582E+01	1.4343519945E+02	4.1800000000E+00	0.000E+00	0.0
</event>
<event>
    11  -1  1.0000000E+00  1.0000000E+00  -1.0000000E+00  -1.0000000E+00
	2212	-1	0	0	0	0	0.0000000000E+00	0.0000000000E+00	6.5000000000E+03	6.5000000000E+03	9.3827000000E-01	0.000E+00	0.0
	2212	-1	0	0	0	0	0.0000000000E+00	0.0000000000E+00	-6.5000000000E+03	6.5000000000E+03	9.3827000000E-01	0.000E+00	0.0
	2212	1	0	0	0	0	0.0000000000E+00	0.0000000000E+00	6.1800371629E+03	6.1800371629E+03	9.3827000000E-01	0.000E+00	0.0
	2212	1	0	0	0	0	0.0000000000E+00	0.0000000000E+00	-5.6049739187E+03	5.6049739187E+03	9.3827000000E-01	0.000E+00	0.0
	51	2	1	2	0	0	-3.3364222599E+01	-1.4287480347E+02	-4.9120820342E+02	1.1867233111E+03	1.0702804946E+03	0.000E+00	0.0
	1000022	2	5	5	0	0	3.3364222599E+01	1.4287480347E+02	-5.5370249772E+02	1.0209554711E+03	8.4512557485E+02	0.000E+00	0.0
	14	1	6	6	0	0	9.6608129738E+00	3.4143711093E+02	-3.5871151507E+02	5.9242854680E+02	3.2500000000E+02	0.000E+00	0.0
	-14	1	6	6	0	0	2.3703409625E+01	-1.9856230746E+02	-1.9499098265E+02	4.2852692434E+02	3.2500000000E+02	0.000E+00	0.0
	25	2	5	5	0	0	-3.3364222599E+01	-1.4287480347E+02	-2.1360746490E+01	1.9403344734E+02	1.2516515642E+02	0.000E+00	0.0
	-5	1	9	9	0	501	-3.5048515941E+00	-1.0532960490E+02	4.2790691948E+01	1.1382058412E+02	4.1800000000E+00	0.000E+00	0.0
	5	1	9	9	501	0	-2.9859371005E+01	-3.7545198572E+01	-6.4151438438E+01	8.0212863222E+01	4.1800000000E+00	0.000E+00	0.0
</event>
<event>
    11  -1  1.0000000E+00  1.0000000E+00  -1.0000000E+00  -1.0000000E+00
	2212	-1	0	0	0	0	0.0000000000E+00	0.0000000000E+00	6.5000000000E+03	6.5000000000E+03	9.3827000000E-01	0.000E+00	0.0
	2212	-1	0	0	0	0	0.0000000000E+00	0.0000000000E+00	-6.5000000000E+03	6.5000000000E+03	9.3827000000E-01	0.000E+00	0.0
	2212	1	0	0	0	0	0.0000000000E+00	0.0000000000E+00	5.9564611514E+03	5.9564611514E+03	9.3827000000E-01	0.000E+00	0.0
	2212	1	0	0	0	0	0.0000000000E+00	0.0000000000E+00	-5.9964756824E+03	5.9964756824E+03	9.3827000000E-01	0.000E+00	0.0
	51	2	1	2	0	0	-1.5085448729E+02	-5.1031088053E+01	-1.1817746186E+02	1.0649259468E+03	1.0462982899E+03	0.000E+00	0.0
	1000022	2	5	5	0	0	1.5085448729E+02	5.1031088053E+01	1.8927361962E+02	7.9545242545E+02	7.5601508569E+02	0.000E+00	0.0
	14	1	6	6	0	0	8.8925998263E+01	1.7903216787E+02	2.1817945118E+02	4.3953114021E+02	3.2500000000E+02	0.000E+00	0.0
	-14	1	6	6	0	0	6.1928489025E+01	-1.2800107982E+02	-2.8905831561E+01	3.5592128524E+02	3.2500000000E+02	0.000E+00	0.0
	25	2	5	5	0	0	-1.5085448729E+02	-5.1031088053E+01	-1.4925908862E+02	2.5161074081E+02	1.2517364368E+02	0.000E+00	0.0
	-5	1	9	9	0	501	-1.6980040002E+02	-5.8343475219E+01	-1.4406721009E+02	2.3023677024E+02	4.1800000000E+00	0.000E+00	0.0
	5	1	9	9	501	0	1.8945912731E+01	7.3123871658E+00	-5.1918785263E+00	2.1373970569E+01	4.1800000000E+00	0.000E+00	0.0
</event>
<event>
    11  -1  1.0000000E+00  1.0000000E+00  -1.0000000E+00  -1.0000000E+00
	2212	-1	0	0	0	0	0.0000000000E+00	0.0000000000E+00	6.5000000000E+03	6.5000000000E+03	9.3827000000E-01	0.000E+00	0.0
	2212	-1	0	0	0	0	0.0000000000E+00	0.0000000000E+00	-6.5000000000E+03	6.5000000000E+03	9.3827000000E-01	0.000E+00	0.0
	2212	1	0	0	0	0	0.0000000000E+00	0.0000000000E+00	5.8252526002E+03	5.8252526002E+03	9.3827000000E-01	0.000E+00	0.0
	2212	1	0	0	0	0	0.0000000000E+00	0.0000000000E+00	-6.0875855563E+03	6.0875855563E+03	9.3827000000E-01	0.000E+00	0.0
	51	2	1	2	0	0	-1.3335755279E+02	-5.4290234247E+01	3.1133213997E+02	1.1093969813E+03	1.0550366317E+03	0.000E+00	0.0
	1000022	2	5	5	0	0	1.3335755279E+02	5.4290234247E+01	1.6726141223E+02	8.7399334953E+02	8.4566916024E+02	0.000E+00	0.0
	14	1	6	6	0	0	-1.0861153110E+02	-1.6160603420E+02	1.6906902278E+02	4.1487625799E+02	3.2500000000E+02	0.000E+00	0.0
	-14	1	6	6	0	0	2.4196908390E+02	2.1589626844E+02	-1.8076105522E+00	4.5911709154E+02	3.2500000000E+02	0.000E+00	0.0
	25	2	5	5	0	0	-1.3335755279E+02	-5.4290234247E+01	9.5071543843E+01	2.1316849404E+02	1.2518203538E+02	0.000E+00	0.0
	-5	1	9	9	0	501	-3.1379257362E+01	-5.8082794649E+01	-9.6944750282E+00	6.6855995041E+01	4.1800000000E+00	0.000E+00	0.0
	5	1	9	9	501	0	-1.0197829543E+02	3.7925604023E+00	1.0476601887E+02	1.4631249900E+02	4.1800000000E+00	0.000E+00	0.0
</event>
<event>
    11  -1  1.0000000E+00  1.0000000E+00  -1.0000000E+00  -1.0000000E+00
	2212	-1	0	0	0	0	0.0000000000E+00	0.0000000000E+00	6.5000000000E+03	6.5000000000E+03	9.3827000000E-01	0.000E+00	0.0
	2212	-1	0	0	0	0	0.0000000000E+00	0.0000000000E+00	-6.5000000000E+03	6.5000000000E+03	9.3827000000E-01	0.000E+00	0.0
	2212	1	0	0	0	0	0.0000000000E+00	0.0000000000E+00	5.0729506862E+03	5.0729506862E+03	9.3827000000E-01	0.000E+00	0.0
	2212	1	0	0	0	0	0.0000000000E+00	0.0000000000E+00	-6.3137164611E+03	6.3137164611E+03	9.3827000000E-01	0.000E+00	0.0
	51	2	1	2	0	0	1.2908417010E+01	4.7238492825E+01	1.3793117048E+03	1.7228586904E+03	1.0311853304E+03	0.000E+00	0.0
	1000022	2	5	5	0	0	-1.2908417010E+01	-4.7238492825E+01	9.1648260858E+02	1.2622981087E+03	8.6663604868E+02	0.000E+00	0.0
	14	1	6	6	0	0	3.8154692550E+01	6.0417093945E+01	5.9492000864E+01	3.3803890896E+02	3.2500000000E+02	0.000E+00	0.0
	-14	1	6	6	0	0	-5.1063109560E+01	-1.0765558677E+02	8.5699060772E+02	9.2425919970E+02	3.2500000000E+02	0.000E+00	0.0
	25	2	5	5	0	0	1.2908417010E+01	4.7238492825E+01	3.2428316627E+02	3.5103474405E+02	1.2517075205E+02	0.000E+00	0.0
	-5	1	9	9	0	501	4.7663393423E+01	7.6669529363E+00	4.2849225374E+01	6.4684694906E+01	4.1800000000E+00	0.000E+00	0.0
	5	1	9	9	501	0	-3.4754976413E+01	3.9571539888E+01	2.8143394090E+02	2.8635004914E+02	4.1800000000E+00	0.000E+00	0.0
</event>
<event>
    11  -1  1.0000000E+00  1.0000000E+00  -1.0000000E+00  -1.0000000E+00
	2212	-1	0	0	0	0	0.0000000000E+00	0.0000000000E+00	6.5000000000E+03	6.5000000000E+03	9.3827000000E-01	0.000E+00	0.0
	2212	-1	0	0	0	0	0.0000000000E+00	0.0000000000E+00	-6.5000000000E+03	6.5000000000E+03	9.3827000000E-01	0.000E+00	0.0
	2212	1	0	0	0	0	0.0000000000E+00	0.0000000000E+00	5.7711751847E+03	5.7711751847E+03	9.3827000000E-01	0.000E+00	0.0
	2212	1	0	0	0	0	0.0000000000E+00	0.0000000000E+00	-6.1581680328E+03	6.1581680328E+03	9.3827000000E-01	0.000E+00	0.0
	51	2	1	2	0	0	-2.3120418413E+01	-6.1334496412E+01	3.7006634991E+02	1.0666714860E+03	9.9826974385E+02	0.000E+00	0.0
	1000022	2	5	5	0	0	2.3120418413E+01	6.1334496412E+01	3.4965219235E+02	9.2450623917E+02	8.5332212936E+02	0.000E+00	0.0
	14	1	6	6	0	0	2.0335497778E+02	-1.3608893891E+02	5.4380795694E+01	4.1043357224E+02	3.2500000000E+02	0.000E+00	0.0
	-14	1	6	6	0	0	-1.8023455937E+02	1.9742343532E+02	2.9527139665E+02	5.1407266693E+02	3.2500000000E+02	0.000E+00	0.0
	25	2	5	5	0	0	-2.3120418413E+01	-6.1334496412E+01	3.7340655664E+01	1.4615054333E+02	1.2517660545E+02	0.000E+00	0.0
	-5	1	9	9	0	501	4.1059588980E+01	-4.2839086384E+01	5.0399550868E+01	7.7965789274E+01	4.1800000000E+00	0.000E+00	0.0
	5	1	9	9	501	0	-6.4180007393E+01	-1.8495410029E+01	-1.3058895204E+01	6.8184754052E+01	4.1800000000E+00	0.000E+00	0.0
</event>
<event>
    11  -1  1.0000000E+00  1.0000000E+00  -1.0000000E+00  -1.0000000E+00
	2212	-1	0	0	0	0	0.0000000000E+00	0.0000000000E+00	6.5000000000E+03	6.5000000000E+03	9.3827000000E-01	0.000E+00	0.0
	2212	-1	0	0	0	0	0.0000000000E+00	0.0000000000E+00	-6.5000000000E+03	6.5000000000E+03	9.3827000000E-01	0.000E+00	0.0
	2212	1	0	0	0	0	0.0000000000E+00	0.0000000000E+00	6.1680616251E+03	6.1680616251E+03	9.3827000000E-01	0.000E+00	0.0
	2212	1	0	0	0	0	0.0000000000E+00	0.0000000000E+00	-5.6715574750E+03	5.6715574750E+03	9.3827000000E-01	0.000E+00	0.0
	51	2	1	2	0	0	4.8491571619E+01	-7.3185521403E+01	-6.2209496831E+02	1.2225699017E+03	1.0487933362E+03	0.000E+00	0.0
	1000022	2	5	5	0	0	-4.8491571619E+01	7.3185521403E+01	-2.8630560024E+02	9.0045498953E+02	8.4920005793E+02	0.000E+00	0.0
	14	1	6	6	0	0	-2.7132973169E+02	-8.0086199388E+01	-1.4085340054E+02	4.5331920661E+02	3.2500000000E+02	0.000E+00	0.0
	-14	1	6	6	0	0	2.2283816007E+02	1.5327172079E+02	-1.4545219969E+02	4.4713578293E+02	3.2500000000E+02	0.000E+00	0.0
	25	2	5	5	0	0	4.8491571619E+01	-7.3185521403E+01	-2.1019854986E+02	2.5992591045E+02	1.2518184972E+02	0.000E+00	0.0
	-5	1	9	9	0	501	-1.9456205330E+01	2.2115182031E+01	-7.7071777565E+01	8.2614505380E+01	4.1800000000E+00	0.000E+00	0.0
	5	1	9	9	501	0	6.7947776950E+01	-9.5300703434E+01	-1.3312677230E+02	1.7731140508E+02	4.1800000000E+00	0.000E+00	0.0
</event>
<event>
    11  -1  1.0000000E+00  1.0000000E+00  -1.0000000E+00  -1.0000000E+00
	2212	-1	0	0	0	0	0.0000000000E+00	0.0000000000E+00	6.5000000000E+03	6.5000000000E+03	9.3827000000E-01	0.000E+00	0.0
	2212	-1	0	0	0	0	0.0000000000E+00	0.0000000000E+00	-6.5000000000E+03	6.5000000000E+03	9.3827000000E-01	0.000E+00	0.0
	2212	1	0	0	0	0	0.0000000000E+00	0.0000000000E+00	6.1743946442E+03	6.1743946442E+03	9.3827000000E-01	0.000E+00	0.0
	2212	1	0	0	0	0	0.0000000000E+00	0.0000000000E+00	-5.6549298581E+03	5.6549298581E+03	9.3827000000E-01	0.000E+00	0.0
	51	2	1	2	0	0	5.7740838663E+01	3.6698447650E+01	-6.6677819213E+02	1.2449543746E+03	1.0491126998E+03	0.000E+00	0.0
	1000022	2	5	5	0	0	-5.7740838663E+01	-3.6698447650E+01	-2.8229921621E+02	8.9390411388E+02	8.4539395362E+02	0.000E+00	0.0
	14	1	6	6	0	0	-1.3129867190E+02	-4.7656176172E+01	-4.0582316401E+02	5.3835665949E+02	3.2500000000E+02	0.000E+00	0.0
	-14	1	6	6	0	0	7.3557833234E+01	1.0957728522E+01	1.2352394779E+02	3.5554745439E+02	3.2500000000E+02	0.000E+00	0.0
	25	2	5	5	0	0	5.7740838663E+01	3.6698447650E+01	-2.3716556995E+02	2.7677138380E+02	1.2519628911E+02	0.000E+00	0.0
	-5	1	9	9	0	501	-3.7131879491E+01	1.6829062795E+01	-4.1240425548E+01	5.8139822226E+01	4.1800000000E+00	0.000E+00	0.0
	5	1	9	9	501	0	9.4872718154E+01	1.9869384856E+01	-1.9592514440E+02	2.1863156157E+02	4.1800000000E+00	0.000E+00	0.0
</event>
<event>
    11  -1  1.0000000E+00  1.0000000E+00  -1.0000000E+00  -1.0000000E+00
	2212	-1	0	0	0	0	0.0000000000E+00	0.0000000000E+00	6.5000000000E+03	6.5000000000E+03	9.3827000000E-01	0.000E+00	0.0
	2212	-1	0	0	0	0	0.0000000000E+00	0.0000000000E+00	-6.5000000000E+03	6.5000000000E+03	9.3827000000E-01	0.000E+00	0.0
	2212	1	0	0	0	0	0.0000000000E+00	0.0000000000E+00	6.3040094323E+03	6.3040094323E+03	9.3827000000E-01	0.000E+00	0.0
	2212	1	0	0	0	0	0.0000000000E+00	0.0000000000E+00	-5.0590602307E+03	5.0590602307E+03	9.3827000000E-01	0.000E+00	0.0
	51	2	1	2	0	0	-1.7531844182E+01	-6.0844849058E+01	-1.5625187215E+03	1.8907978818E+03	1.0628463735E+03	0.000E+00	0.0
	1000022	2	5	5	0	0	1.7531844182E+01	6.0844849058E+01	-6.7137019615E+02	1.0464468942E+03	8.0018979056E+02	0.000E+00	0.0
	14	1	6	6	0	0	5.9155229690E+00	-8.7154318017E+01	-6.5175574927E+01	3.4278816218E+02	3.2500000000E+02	0.000E+00	0.0
	-14	1	6	6	0	0	1.1616321213E+01	1.4799916708E+02	-6.0619462122E+02	7.0365873204E+02	3.2500000000E+02	0.000E+00	0.0
	25	2	5	5	0	0	-1.7531844182E+01	-6.0844849058E+01	-5.7357900544E+02	5.9048344279E+02	1.2517331788E+02	0.000E+00	0.0
	-5	1	9	9	0	501	-6.4894636636E+01	-6.3596763111E+01	-3.3080979913E+02	3.4308666214E+02	4.1800000000E+00	0.000E+00	0.0
	5	1	9	9	501	0	4.7362792453E+01	2.7519140523E+00	-2.4276920631E+02	2.4739678064E+02	4.1800000000E+00	0.000E+00	0.0
</event>
<event>
    11  -1  1.0000000E+00  1.0000000E+00  -1.0000000E+00  -1.0000000E+00
	2212	-1	0	0	0	0	0.0000000000E+00	0.0000000000E+00	6.5000000000E+03	6.5000000000E+03	9.3827000000E-01	0.000E+00	0.0
	2212	-1	0	0	0	0	0.0000000000E+00	0.0000000000E+00	-6.5000000000E+03	6.5000000000E+03	9.3827000000E-01	0.000E+00	0.0
	2212	1	0	0	0	0	0.0000000000E+00	0.0000000000E+00	5.8665209494E+03	5.8665209494E+03	9.3827000000E-01	0.000E+00	0.0
	2212	1	0	0	0	0	0.0000000000E+00	0.0000000000E+00	-6.0590557351E+03	6.0590557351E+03	9.3827000000E-01	0.000E+00	0.0
	51	2	1	2	0	0	-5.7704158065E+01	-1.3659324924E+02	2.0789413891E+02	1.0874388606E+03	1.0570316064E+03	0.000E+00	0.0
	1000022	2	5	5	0	0	5.7704158065E+01	1.3659324924E+02	1.4364727984E+02	8.7430688437E+02	8.4958254540E+02	0.000E+00	0.0
	14	1	6	6	0	0	2.3608327717E+02	-1.1070666606E+02	6.2572391319E+01	4.2134497009E+02	3.2500000000E+02	0.000E+00	0.0
	-14	1	6	6	0	0	-1.7837911910E+02	2.4729991530E+02	8.1074888526E+01	4.5296191428E+02	3.2500000000E+02	0.000E+00	0.0
	25	2	5	5	0	0	-5.7704158065E+01	-1.3659324924E+02	4.8887505873E+01	2.0011643105E+02	1.2517632424E+02	0.000E+00	0.0
	-5	1	9	9	0	501	-8.5737916434E+00	-1.2973014102E+02	-3.7315965156E-01	1.3008086346E+02	4.1800000000E+00	0.000E+00	0.0
	5	1	9	9	501	0	-4.9130366421E+01	-6.8631082237E+00	4.9260665525E+01	7.0035567586E+01	4.1800000000E+00	0.000E+00	0.0
</event>
<event>
    11  -1  1.0000000E+00  1.0000000E+00  -1.0000000E+00  -1.0000000E+00
	2212	-1	0	0	0	0	0.0000000000E+00	0.0000000000E+00	6.5000000000E+03	6.5000000000E+03	9.3827000000E-01	0.000E+00	0.0
	2212	-1	0	0	0	0	0.0000000000E+00	0.0000000000E+00	-6.5000000000E+03	6.5000000000E+03	9.3827000000E-01	0.000E+00	0.0
	2212	1	0	0	0	0	0.0000000000E+00	0.0000000000E+00	6.1764482174E+03	6.1764482174E+03	9.3827000000E-01	0.000E+00	0.0
	2212	1	0	0	0	0	0.0000000000E+00	0.0000000000E+00	-5.6453475698E+03	5.6453475698E+03	9.3827000000E-01	0.000E+00	0.0
	51	2	1	2	0	0	-4.5371077727E+01	-2.2134108723E+01	-3.8720018986E+02	1.1218599332E+03	1.0517115903E+03	0.000E+00	0.0
	1000022	2	5	5	0	0	4.5371077727E+01	2.2134108723E+01	-5.8421908141E+02	1.0331558498E+03	8.5061778814E+02	0.000E+00	0.0
	14	1	6	6	0	0	-2.1439066870E+02	7.7964068117E-01	-1.1562792197E+02	4.0615118245E+02	3.2500000000E+02	0.000E+00	0.0
	-14	1	6	6	0	0	2.5976174643E+02	2.1354468041E+01	-4.6859115945E+02	6.2700466739E+02	3.2500000000E+02	0.000E+00	0.0
	25	2	5	5	0	0	-4.5371077727E+01	-2.2134108723E+01	5.3118433890E+01	1.4504836294E+02	1.2517590068E+02	0.000E+00	0.0
	-5	1	9	9	0	501	1.4805310303E+01	-7.9170966485E+00	7.6784207212E+01	7.8709367357E+01	4.1800000000E+00	0.000E+00	0.0
	5	1	9	9	501	0	-6.0176388029E+01	-1.4217012074E+01	-2.3665773322E+01	6.6338995587E+01	4.1800000000E+00	0.000E+00	0.0
</event>
<event>
    11  -1  1.0000000E+00  1.0000000E+00  -1.0000000E+00  -1.0000000E+00
	2212	-1	0	0	0	0	0.0000000000E+00	0.0000000000E+00	6.5000000000E+03	6.5000000000E+03	9.3827000000E-01	0.000E+00	0.0
	2212	-1	0	0	0	0	0.0000000000E+00	0.0000000000E+00	-6.5000000000E+03	6.5000000000E+03	9.3827000000E-01	0.000E+00	0.0
	2212	1	0	0	0	0	0.0000000000E+00	0.0000000000E+00	5.2565810948E+03	5.2565810948E+03	9.3827000000E-01	0.000E+00	0.0
	2212	1	0	0	0	0	0.0000000000E+00	0.0000000000E+00	-6.2784230113E+03	6.2784230113E+03	9.3827000000E-01	0.000E+00	0.0
	51	2	1	2	0	0	-4.4996347534E+01	-1.3733449965E+02	9.7944998437E+02	1.4430037334E+03	1.0497866767E+03	0.000E+00	0.0
	1000022	2	5	5	0	0	4.4996347534E+01	1.3733449965E+02	8.8482682945E+02	1.2297755225E+03	8.4175048651E+02	0.000E+00	0.0
	14	1	6	6	0	0	2.6658688866E+02	-3.4033268945E+01	4.9245796192E+02	6.4835690546E+02	3.2500000000E+02	0.000E+00	0.0
	-14	1	6	6	0	0	-2.2159054113E+02	1.7136776860E+02	3.9236886754E+02	5.8141861704E+02	3.2500000000E+02	0.000E+00	0.0
	25	2	5	5	0	0	-4.4996347534E+01	-1.3733449965E+02	1.3701508704E+02	2.3522037131E+02	1.2518008196E+02	0.000E+00	0.0
	-5	1	9	9	0	501	-1.0020333639E+01	-1.3101733870E+02	1.4783383429E+02	1.9783393310E+02	4.1800000000E+00	0.000E+00	0.0
	5	1	9	9	501	0	-3.4976013895E+01	-6.3171609561E+00	-1.0818747250E+01	3.7386438217E+01	4.1800000000E+00	0.000E+00	0.0
</event>
<event>
    11  -1  1.0000000E+00  1.0000000E+00  -1.0000000E+00  -1.0000000E+00
	2212	-1	0	0	0	0	0.0000000000E+00	0.0000000000E+00	6.5000000000E+03	6.5000000000E+03	9.3827000000E-01	0.000E+00	0.0
	2212	-1	0	0	0	0	0.0000000000E+00	0.0000000000E+00	-6.5000000000E+03	6.5000000000E+03	9.3827000000E-01	0.000E+00	0.0
	2212	1	0	0	0	0	0.0000000000E+00	0.0000000000E+00	6.2635458597E+03	6.2635458597E+03	9.3827000000E-01	0.000E+00	0.0
	2212	1	0	0	0	0	0.0000000000E+00	0.0000000000E+00	-5.3065440383E+03	5.3065440383E+03	9.3827000000E-01	0.000E+00	0.0
	51	2	1	2	0	0	-4.3052146060E+01	-6.5407068424E+01	-7.9873216874E+02	1.3315010564E+03	1.0624454875E+03	0.000E+00	0.0
	1000022	2	5	5	0	0	4.3052146060E+01	6.5407068424E+01	-9.5049555820E+02	1.2821182092E+03	8.5688606265E+02	0.000E+00	0.0
	14	1	6	6	0	0	-1.4718318040E+01	6.1222803671E+01	-8.8590655427E+02	9.4573795708E+02	3.2500000000E+02	0.000E+00	0.0
	-14	1	6	6	0	0	5.7770464101E+01	4.1842647530E+00	-6.4589003933E+01	3.3638025213E+02	3.2500000000E+02	0.000E+00	0.0
	25	2	5	5	0	0	-4.3052146060E+01	-6.5407068424E+01	-6.5062631725E+00	1.4779189283E+02	1.2517403982E+02	0.000E+00	0.0
	-5	1	9	9	0	501	-4.2735151089E+01	-6.2783731411E+01	-5.8254518803E+01	9.5807888138E+01	4.1800000000E+00	0.000E+00	0.0
	5	1	9	9	501	0	-3.1699497098E-01	-2.6233370131E+00	5.1748255630E+01	5.1984004690E+01	4.1800000000E+00	0.000E+00	0.0
</event>
<event>
    11  -1  1.0000000E+00  1.0000000E+00  -1.0000000E+00  -1.0000000E+00
	2212	-1	0	0	0	0	0.0000000000E+00	0.0000000000E+00	6.5000000000E+03	6.5000000000E+03	9.3827000000E-01	0.000E+00	0.0
	2212	-1	0	0	0	0	0.0000000000E+00	0.0000000000E+00	-6.5000000000E+03	6.5000000000E+03	9.3827000000E-01	0.000E+00	0.0
	2212	1	0	0	0	0	0.0000000000E+00	0.0000000000E+00	5.0416673629E+03	5.0416673629E+03	9.3827000000E-01	0.000E+00	0.0
	2212	1	0	0	0	0	0.0000000000E+00	0.0000000000E+00	-6.3120524778E+03	6.3120524778E+03	9.3827000000E-01	0.000E+00	0.0
	51	2	1	2	0	0	-8.0845638493E+00	1.4173919761E+02	1.2622167592E+03	1.6461186257E+03	1.0470721191E+03	0.000E+00	0.0
	1000022	2	5	5	0	0	8.0845638493E+00	-1.4173919761E+02	1.0601123812E+03	1.3633659330E+03	8.4544251505E+02	0.000E+00	0.0
	14	1	6	6	0	0	9.1334698187E+00	2.0314397705E+02	4.6987431895E+02	6.0643035155E+02	3.2500000000E+02	0.000E+00	0.0
	-14	1	6	6	0	0	-1.0489059695E+00	-3.4488317466E+02	5.9023806227E+02	7.5693558149E+02	3.2500000000E+02	0.000E+00	0.0
	25	2	5	5	0	0	-8.0845638493E+00	1.4173919761E+02	2.1027273372E+02	2.8291422623E+02	1.2518177402E+02	0.000E+00	0.0
	-5	1	9	9	0	501	-5.9562567730E+01	1.1726365495E+02	1.5612675161E+02	2.0418496324E+02	4.1800000000E+00	0.000E+00	0.0
	5	1	9	9	501	0	5.1478003881E+01	2.4475542663E+01	5.4145982117E+01	7.8729262994E+01	4.1800000000E+00	0.000E+00	0.0
</event>
<event>
    11  -1  1.0000000E+00  1.0000000E+00  -1.0000000E+00  -1.0000000E+00
	2212	-1	0	0	0	0	0.0000000000E+00	0.0000000000E+00	6.5000000000E+03	6.5000000000E+03	9.3827000000E-01	0.000E+00	0.0
	2212	-1	0	0	0	0	0.0000000000E+00	0.0000000000E+00	-6.5000000000E+03	6.5000000000E+03	9.3827000000E-01	0.000E+00	0.0
	2212	1	0	0	0	0	0.0000000000E+00	0.0000000000E+00	6.1526004773E+03	6.1526004773E+03	9.3827000000E-01	0.000E+00	0.0
	2212	1	0	0	0	0	0.0000000000E+00	0.0000000000E+00	-5.6409775441E+03	5.6409775441E+03	9.3827000000E-01	0.000E+00	0.0
	51	2	1	2	0	0	1.5646291133E+02	-2.8023477991E+01	-6.1597948780E+02	1.2642755444E+03	1.0925639409E+03	0.000E+00	0.0
	1000022	2	5	5	0	0	-1.5646291133E+02	2.8023477991E+01	-3.1095084978E+02	9.2145355290E+02	8.5271346960E+02	0.000E+00	0.0
	14	1	6	6	0	0	1.8401938076E+02	-2.0163074966E+01	-3.9863997784E+01	3.7614335088E+02	3.2500000000E+02	0.000E+00	0.0
	-14	1	6	6	0	0	-3.4048229209E+02	4.8186552957E+01	-2.7108685199E+02	5.4531020203E+02	3.2500000000E+02	0.000E+00	0.0
	25	2	5	5	0	0	1.5646291133E+02	-2.8023477991E+01	-2.0067208343E+02	2.8496842578E+02	1.2518690302E+02	0.000E+00	0.0
	-5	1	9	9	0	501	1.0513213515E+02	-2.2861813469E+01	-3.7868968805E+01	1.1413570674E+02	4.1800000000E+00	0.000E+00	0.0
	5	1	9	9	501	0	5.1330776180E+01	-5.1616645217E+00	-1.6280311462E+02	1.7083271904E+02	4.1800000000E+00	0.000E+00	0.0
</event>
<event>
    11  -1  1.0000000E+00  1.0000000E+00  -1.0000000E+00  -1.0000000E+00
	2212	-1	0	0	0	0	0.0000000000E+00	0.0000000000E+00	6.5000000000E+03	6.5000000000E+03	9.3827000000E-01	0.000E+00	0.0
	2212	-1	0	0	0	0	0.0000000000E+00	0.0000000000E+00	-6.5000000000E+03	6.5000000000E+03	9.3827000000E-01	0.000E+00	0.0
	2212	1	0	0	0	0	0.0000000000E+00	0.0000000000E+00	6.1696033401E+03	6.1696033401E+03	9.3827000000E-01	0.000E+00	0.0
	2212	1	0	0	0	0	0.0000000000E+00	0.0000000000E+00	-5.6610013789E+03	5.6610013789E+03	9.3827000000E-01	0.000E+00	0.0
	51	2	1	2	0	0	-4.1099296433E+01	-6.3010853002E+01	-5.4509119085E+02	1.1881049173E+03	1.0530001749E+03	0.000E+00	0.0
	1000022	2	5	5	0	0	4.1099296433E+01	6.3010853002E+01	-4.0147862128E+02	9.8828124703E+02	8.9991956314E+02	0.000E+00	0.0
	14	1	6	6	0	0	2.7758273910E+02	5.5406734353E+01	-3.9742921016E+02	5.8625682115E+02	3.2500000000E+02	0.000E+00	0.0
	-14	1	6	6	0	0	-2.3648344267E+02	7.6041186489E+00	-4.0494111218E+00	4.0202442588E+02	3.2500000000E+02	0.000E+00	0.0
	25	2	5	5	0	0	-4.1099296433E+01	-6.3010853002E+01	-1.0712333991E+02	1.8111403402E+02	1.2516933971E+02	0.000E+00	0.0
	-5	1	9	9	0	501	-1.9292119198E+01	-4.1035665154E+01	2.0343909022E+01	4.9874429441E+01	4.1800000000E+00	0.000E+00	0.0
	5	1	9	9	501	0	-2.1807177235E+01	-2.1975187848E+01	-1.2746724893E+02	1.3123960458E+02	4.1800000000E+00	0.000E+00	0.0
</event>
<event>
    11  -1  1.0000000E+00  1.0000000E+00  -1.0000000E+00  -1.0000000E+00
	2212	-1	0	0	0	0	0.0000000000E+00	0.0000000000E+00	6.5000000000E+03	6.5000000000E+03	9.3827000000E-01	0.000E+00	0.0
	2212	-1	0	0	0	0	0.0000000000E+00	0.0000000000E+00	-6.5000000000E+03	6.5000000000E+03	9.3827000000E-01	0.000E+00	0.0
	2212	1	0	0	0	0	0.0000000000E+00	0.0000000000E+00	5.3786803483E+03	5.3786803483E+03	9.3827000000E-01	0.000E+00	0.0
	2212	1	0	0	0	0	0.0000000000E+00	0.0000000000E+00	-6.2531126680E+03	6.2531126680E+03	9.3827000000E-01	0.000E+00	0.0
	51	2	1	2	0	0	-1.3042086513E+02	5.0388704764E+01	8.8360628875E+02	1.3811832484E+03	1.0523110132E+03	0.000E+00	0.0
	1000022	2	5	5	0	0	1.3042086513E+02	-5.0388704764E+01	7.1699285056E+02	1.1232426186E+03	8.5325647304E+02	0.000E+00	0.0
	14	1	6	6	0	0	3.2792691578E+02	-6.3495524489E+01	2.7956955286E+02	5.4346285854E+02	3.2500000000E+02	0.000E+00	0.0
	-14	1	6	6	0	0	-1.9750605065E+02	1.3106819725E+01	4.3742329770E+02	5.7977976003E+02	3.2500000000E+02	0.000E+00	0.0
	25	2	5	5	0	0	-1.3042086513E+02	5.0388704764E+01	1.5743946921E+02	2.4496436514E+02	1.2518678082E+02	0.000E+00	0.0
	-5	1	9	9	0	501	2.3511178535E+01	1.1155823277E+01	9.9944966168E+00	2.8188477641E+01	4.1800000000E+00	0.000E+00	0.0
	5	1	9	9	501	0	-1.5393204367E+02	3.9232881487E+01	1.4744497260E+02	2.1677588750E+02	4.1800000000E+00	0.000E+00	0.0
</event>
<event>
    11  -1  1.0000000E+00  1.0000000E+00  -1.0000000E+00  -1.0000000E+00
	2212	-1	0	0	0	0	0.0000000000E+00	0.0000000000E+00	6.5000000000E+03	6.5000000000E+03	9.3827000000E-01	0.000E+00	0.0
	2212	-1	0	0	0	0	0.0000000000E+00	0.0000000000E+00	-6.5000000000E+03	6.5000000000E+03	9.3827000000E-01	0.000E+00	0.0
	2212	1	0	0	0	0	0.0000000000E+00	0.0000000000E+00	5.7785281523E+03	5.7785281523E+03	9.3827000000E-01	0.000E+00	0.0
	2212	1	0	0	0	0	0.0000000000E+00	0.0000000000E+00	-6.1186229752E+03	6.1186229752E+03	9.3827000000E-01	0.000E+00	0.0
	51	2	1	2	0	0	4.7639008431E+01	-9.1214074588E+01	4.3638735633E+02	1.1408919994E+03	1.0491001606E+03	0.000E+00	0.0
	1000022	2	5	5	0	0	-4.7639008431E+01	9.1214074588E+01	1.8673405655E+02	8.7974666167E+02	8.5351924309E+02	0.000E+00	0.0
	14	1	6	6	0	0	-4.5080032681E+01	-9.5669450355E+01	3.3312965494E+02	4.7726849894E+02	3.2500000000E+02	0.000E+00	0.0
	-14	1	6	6	0	0	-2.5589757501E+00	1.8688352494E+02	-1.4639559839E+02	4.0247816273E+02	3.2500000000E+02	0.000E+00	0.0
	25	2	5	5	0	0	4.7639008431E+01	-9.1214074588E+01	1.5336076637E+02	2.2310221084E+02	1.2516225187E+02	0.000E+00	0.0
	-5	1	9	9	0	501	1.9422884559E+00	-1.0786251164E+02	7.7518220060E+01	1.3290839230E+02	4.1800000000E+00	0.000E+00	0.0
	5	1	9	9	501	0	4.5696719975E+01	1.6648437051E+01	7.5842546311E+01	9.0193818545E+01	4.1800000000E+00	0.000E+00	0.0
</event>
<event>
    11  -1  1.0000000E+00  1.0000000E+00  -1.0000000E+00  -1.0000000E+00
	2212	-1	0	0	0	0	0.0000000000E+00	0.0000000000E+00	6.5000000000E+03	6.5000000000E+03	9.3827000000E-01	0.000E+00	0.0
	2212	-1	0	0	0	0	0.0000000000E+00	0.0000000000E+00	-6.5000000000E+03	6.5000000000E+03	9.3827000000E-01	0.000E+00	0.0
	2212	1	0	0	0	0	0.0000000000E+00	0.0000000000E+00	6.1616863196E+03	6.1616863196E+03	9.3827000000E-01	0.000E+00	0.0
	2212	1	0	0	0	0	0.0000000000E+00	0.0000000000E+00	-5.6852793065E+03	5.6852793065E+03	9.3827000000E-01	0.000E+00	0.0
	51	2	1	2	0	0	1.0059389082E+02	3.0972047705E+01	-4.1554996600E+02	1.1341449634E+03	1.0500117262E+03	0.000E+00	0.0
	1000022	2	5	5	0	0	-1.0059389082E+02	-3.0972047705E+01	-4.6160980498E+02	9.8881993726E+02	8.6810302249E+02	0.000E+00	0.0
	14	1	6	6	0	0	-1.8113291428E+02	-2.4433441098E+02	-1.1008513302E+02	4.5853263083E+02	3.2500000000E+02	0.000E+00	0.0
	-14	1	6	6	0	0	8.0539023455E+01	2.1336236327E+02	-3.5152467196E+02	5.3028730643E+02	3.2500000000E+02	0.000E+00	0.0
	25	2	5	5	0	0	1.0059389082E+02	3.0972047705E+01	-1.4797208151E+01	1.6421443660E+02	1.2517597697E+02	0.000E+00	0.0
	-5	1	9	9	0	501	1.8565018753E+01	-4.4096828216E+01	1.2530504513E+01	4.9635432136E+01	4.1800000000E+00	0.000E+00	0.0
	5	1	9	9	501	0	8.2028872067E+01	7.5068875921E+01	-2.7327712664E+01	1.1457900446E+02	4.1800000000E+00	0.000E+00	0.0
</event>
<event>
    11  -1  1.0000000E+00  1.0000000E+00  -1.0000000E+00  -1.0000000E+00
	2212	-1	0	0	0	0	0.0000000000E+00	0.0000000000E+00	6.5000000000E+03	6.5000000000E+03	9.3827000000E-01	0.000E+00	0.0
	2212	-1	0	0	0	0	0.0000000000E+00	0.0000000000E+00	-6.5000000000E+03	6.5000000000E+03	9.3827000000E-01	0.000E+00	0.0
	2212	1	0	0	0	0	0.0000000000E+00	0.0000000000E+00	5.9106445455E+03	5.9106445455E+03	9.3827000000E-01	0.000E+00	0.0
	2212	1	0	0	0	0	0.0000000000E+00	0.0000000000E+00	-6.0293584955E+03	6.0293584955E+03	9.3827000000E-01	0.000E+00	0.0
	51	2	1	2	0	0	-4.9415056942E+01	8.0653216568E+01	1.0177477063E+01	1.0576156776E+03	1.0533283207E+03	0.000E+00	0.0
	1000022	2	5	5	0	0	4.9415056942E+01	-8.0653216568E+01	2.0683166122E+02	8.8005909941E+02	8.5016345086E+02	0.000E+00	0.0
	14	1	6	6	0	0	1.6807419547E+02	-2.5808729453E+02	1.8789275291E+01	4.4814732360E+02	3.2500000000E+02	0.000E+00	0.0
	-14	1	6	6	0	0	-1.1865913852E+02	1.7743407797E+02	1.8804238593E+02	4.3191177581E+02	3.2500000000E+02	0.000E+00	0.0
	25	2	5	5	0	0	-4.9415056942E+01	8.0653216568E+01	-8.8117711185E+01	1.7993785964E+02	1.2516434441E+02	0.000E+00	0.0
	-5	1	9	9	0	501	2.9236897431E+00	-2.8143617818E+01	2.8072458372E+00	2.8739593156E+01	4.1800000000E+00	0.000E+00	0.0
	5	1	9	9	501	0	-5.2338746685E+01	1.0879683439E+02	-9.0924957022E+01	1.5119826648E+02	4.1800000000E+00	0.000E+00	0.0
</event>
<event>
    11  -1  1.0000000E+00  1.0000000E+00  -1.0000000E+00  -1.0000000E+00
	2212	-1	0	0	0	0	0.0000000000E+00	0.0000000000E+00	6.5000000000E+03	6.5000000000E+03	9.3827000000E-01	0.000E+00	0.0
	2212	-1	0	0	0	0	0.0000000000E+00	0.0000000000E+00	-6.5000000000E+03	6.5000000000E+03	9.3827000000E-01	0.000E+00	0.0
	2212	1	0	0	0	0	0.0000000000E+00	0.0000000000E+00	5.7299208373E+03	5.7299208373E+03	9.3827000000E-01	0.000E+00	0.0
	2212	1	0	0	0	0	0.0000000000E+00	0.0000000000E+00	-6.1461220020E+03	6.1461220020E+03	9.3827000000E-01	0.000E+00	0.0
	51	2	1	2	0	0	1.2651510863E+02	-1.4960709840E+01	3.8940719554E+02	1.1215721774E+03	1.0440576084E+03	0.000E+00	0.0
	1000022	2	5	5	0	0	-1.2651510863E+02	1.4960709840E+01	3.7416792968E+02	9.4047330086E+02	8.5338062697E+02	0.000E+00	0.0
	14	1	6	6	0	0	-1.4654403436E+02	1.4943948522E+02	-4.9218960726E+01	3.8968553969E+02	3.2500000000E+02	0.000E+00	0.0
	-14	1	6	6	0	0	2.0028925728E+01	-1.3447877538E+02	4.2338689040E+02	5.5078776117E+02	3.2500000000E+02	0.000E+00	0.0
	25	2	5	5	0	0	1.2651510863E+02	-1.4960709840E+01	4.2033235036E+01	1.8348385987E+02	1.2517842639E+02	0.000E+00	0.0
	-5	1	9	9	0	501	1.0085734769E+02	1.3864226266E+01	-2.5999891433E+01	1.0515649342E+02	4.1800000000E+00	0.000E+00	0.0
	5	1	9	9	501	0	2.5657760935E+01	-2.8824936106E+01	6.8033126469E+01	7.8327366449E+01	4.1800000000E+00	0.000E+00	0.0
</event>
<event>
    11  -1  1.0000000E+00  1.0000000E+00  -1.0000000E+00  -1.0000000E+00
	2212	-1	0	0	0	0	0.0000000000E+00	0.0000000000E+00	6.5000000000E+03	6.5000000000E+03	9.3827000000E-01	0.000E+00	0.0
	2212	-1	0	0	0	0	0.0000000000E+00	0.0000000000E+00	-6.5000000000E+03	6.5000000000E+03	9.3827000000E-01	0.000E+00	0.0
	2212	1	0	0	0	0	0.0000000000E+00	0.0000000000E+00	6.2221715994E+03	6.2221715994E+03	9.3827000000E-01	0.000E+00	0.0
	2212	1	0	0	0	0	0.0000000000E+00	0.0000000000E+00	-5.5118506042E+03	5.5118506042E+03	9.3827000000E-01	0.000E+00	0.0
	51	2	1	2	0	0	2.9891169456E+01	-6.6507852440E+01	-7.5381624866E+02	1.2929422176E+03	1.0479235969E+03	0.000E+00	0.0
	1000022	2	5	5	0	0	-2.9891169456E+01	6.6507852440E+01	-5.6801556480E+02	1.0629077964E+03	8.9544096699E+02	0.000E+00	0.0
	14	1	6	6	0	0	-1.1777267644E+02	2.2945691655E+02	-5.4932705167E+02	6.8840837413E+02	3.2500000000E+02	0.000E+00	0.0
	-14	1	6	6	0	0	8.7881506986E+01	-1.6294906411E+02	-1.8688513127E+01	3.7449942228E+02	3.2500000000E+02	0.000E+00	0.0
	25	2	5	5	0	0	2.9891169456E+01	-6.6507852440E+01	-1.4230543039E+02	2.0307000003E+02	1.2517912345E+02	0.000E+00	0.0
	-5	1	9	9	0	501	-4.5275887479E+01	-2.0752260445E+01	-2.3670868796E+01	5.5302303118E+01	4.1800000000E+00	0.000E+00	0.0
	5	1	9	9	501	0	7.5167056934E+01	-4.5755591995E+01	-1.1863456159E+02	1.4776769691E+02	4.1800000000E+00	0.000E+00	0.0
</event>
<event>
    11  -1  1.0000000E+00  1.0000000E+00  -1.0000000E+00  -1.0000000E+00
	2212	-1	0	0	0	0	0.0000000000E+00	0.0000000000E+00	6.5000000000E+03	6.5000000000E+03	9.3827000000E-01	0.000E+00	0.0
	2212	-1	0	0	0	0	0.0000000000E+00	0.0000000000E+00	-6.5000000000E+03	6.5000000000E+03	9.3827000000E-01	0.000E+00	0.0
	2212	1	0	0	0	0	0.0000000000E+00	0.0000000000E+00	5.5695347453E+03	5.5695347453E+03	9.3827000000E-01	0.000E+00	0.0
	2212	1	0	0	0	0	0.0000000000E+00	0.0000000000E+00	-6.2001611863E+03	6.2001611863E+03	9.3827000000E-01	0.000E+00	0.0
	51	2	1	2	0	0	-1.1677898539E+02	3.7447869420E+01	6.8298155993E+02	1.2639073852E+03	1.0563893188E+03	0.000E+00	0.0
	1000022	2	5	5	0	0	1.1677898539E+02	-3.7447869420E+01	4.7554366525E+02	9.9628693163E+02	8.6683689251E+02	0.000E+00	0.0
	14	1	6	6	0	0	2.0543313828E+02	-1.6133934848E+02	2.1517236629E+01	4.1751784530E+02	3.2500000000E+02	0.000E+00	0.0
	-14	1	6	6	0	0	-8.8654152888E+01	1.2389147906E+02	4.5402642862E+02	5.7876908633E+02	3.2500000000E+02	0.000E+00	0.0
	25	2	5	5	0	0	-1.1677898539E+02	3.7447869420E+01	1.5508277573E+02	2.3401713682E+02	1.2519456315E+02	0.000E+00	0.0
	-5	1	9	9	0	501	-2.2509553832E+01	5.8820951083E+01	1.6923361165E+01	6.5348732606E+01	4.1800000000E+00	0.000E+00	0.0
	5	1	9	9	501	0	-9.4269431560E+01	-2.1373081663E+01	1.3815941457E+02	1.6866840421E+02	4.1800000000E+00	0.000E+00	0.0
</event>
<event>
    11  -1  1.0000000E+00  1.0000000E+00  -1.0000000E+00  -1.0000000E+00
	2212	-1	0	0	0	0	0.0000000000E+00	0.0000000000E+00	6.5000000000E+03	6.5000000000E+03	9.3827000000E-01	0.000E+00	0.0
	2212	-1	0	0	0	0	0.0000000000E+00	0.0000000000E+00	-6.5000000000E+03	6.5000000000E+03	9.3827000000E-01	0.000E+00	0.0
	2212	1	0	0	0	0	0.0000000000E+00	0.0000000000E+00	5.8841752559E+03	5.8841752559E+03	9.3827000000E-01	0.000E+00	0.0
	2212	1	0	0	0	0	0.0000000000E+00	0.0000000000E+00	-6.0508951321E+03	6.0508951321E+03	9.3827000000E-01	0.000E+00	0.0
	51	2	1	2	0	0	-1.3935144777E+02	-4.0782753572E+01	1.3750620259E+02	1.0706397976E+03	1.0517982513E+03	0.000E+00	0.0
	1000022	2	5	5	0	0	1.3935144777E+02	4.0782753572E+01	1.6681530723E+02	8.7322553335E+02	8.4475643021E+02	0.000E+00	0.0
	14	1	6	6	0	0	-8.3972060343E+01	1.1861745129E+02	2.8304174040E+02	4.5481758264E+02	3.2500000000E+02	0.000E+00	0.0
	-14	1	6	6	0	0	2.2332350811E+02	-7.7834697722E+01	-1.1622643318E+02	4.1840795071E+02	3.2500000000E+02	0.000E+00	0.0
	25	2	5	5	0	0	-1.3935144777E+02	-4.0782753572E+01	-9.5430997705E-02	1.9170407870E+02	1.2517342249E+02	0.000E+00	0.0
	-5	1	9	9	0	501	-1.4868407895E+02	-1.7585009737E+01	-2.9734601420E+01	1.5270169227E+02	4.1800000000E+00	0.000E+00	0.0
	5	1	9	9	501	0	9.3326311802E+00	-2.3197743835E+01	2.9639170422E+01	3.9002386428E+01	4.1800000000E+00	0.000E+00	0.0
</event>
<event>
    11  -1  1.0000000E+00  1.0000000E+00  -1.0000000E+00  -1.0000000E+00
	2212	-1	0	0	0	0	0.0000000000E+00	0.0000000000E+00	6.5000000000E+03	6.5000000000E+03	9.3827000000E-01	0.000E+00	0.0
	2212	-1	0	0	0	0	0.0000000000E+00	0.0000000000E+00	-6.5000000000E+03	6.5000000000E+03	9.3827000000E-01	0.000E+00	0.0
	2212	1	0	0	0	0	0.0000000000E+00	0.0000000000E+00	5.6712895634E+03	5.6712895634E+03	9.3827000000E-01	0.000E+00	0.0
	2212	1	0	0	0	0	0.0000000000E+00	0.0000000000E+00	-6.1695870272E+03	6.1695870272E+03	9.3827000000E-01	0.000E+00	0.0
	51	2	1	2	0	0	-1.1564485533E+02	4.0815514996E+01	5.7638576525E+02	1.2010524156E+03	1.0465499108E+03	0.000E+00	0.0
	1000022	2	5	5	0	0	1.1564485533E+02	-4.0815514996E+01	3.3537020202E+02	9.1984476324E+02	8.4770370839E+02	0.000E+00	0.0
	14	1	6	6	0	0	-7.3229399472E+01	-2.0226481957E+02	3.3003660566E+02	5.1070809985E+02	3.2500000000E+02	0.000E+00	0.0
	-14	1	6	6	0	0	1.8887425480E+02	1.6144930457E+02	5.3335963658E+00	4.0913666338E+02	3.2500000000E+02	0.000E+00	0.0
	25	2	5	5	0	0	-1.1564485533E+02	4.0815514996E+01	1.6292726185E+02	2.3927864615E+02	1.2517723045E+02	0.000E+00	0.0
	-5	1	9	9	0	501	1.5743156740E+01	4.0625893450E+01	4.2082630626E+01	6.0718451917E+01	4.1800000000E+00	0.000E+00	0.0
	5	1	9	9	501	0	-1.3138801207E+02	1.8962154599E-01	1.2084463122E+02	1.7856019424E+02	4.1800000000E+00	0.000E+00	0.0
</event>
<event>
    11  -1  1.0000000E+00  1.0000000E+00  -1.0000000E+00  -1.0000000E+00
	2212	-1	0	0	0	0	0.0000000000E+00	0.0000000000E+00	6.5000000000E+03	6.5000000000E+03	9.3827000000E-01	0.000E+00	0.0
	2212	-1	0	0	0	0	0.0000000000E+00	0.0000000000E+00	-6.5000000000E+03	6.5000000000E+03	9.3827000000E-01	0.000E+00	0.0
	2212	1	0	0	0	0	0.0000000000E+00	0.0000000000E+00	6.2665734335E+03	6.2665734335E+03	9.3827000000E-01	0.000E+00	0.0
	2212	1	0	0	0	0	0.0000000000E+00	0.0000000000E+00	-5.3222351123E+03	5.3222351123E+03	9.3827000000E-01	0.000E+00	0.0
	51	2	1	2	0	0	-7.2776167768E+01	-8.2711800756E+01	-8.5120040495E+02	1.3551258973E+03	1.0486593611E+03	0.000E+00	0.0
	1000022	2	5	5	0	0	7.2776167768E+01	8.2711800756E+01	-8.8045705089E+02	1.2326121500E+03	8.5556442265E+02	0.000E+00	0.0
	14	1	6	6	0	0	1.5074795850E+02	1.3118728401E+02	-7.9868857741E+02	8.8513473221E+02	3.2500000000E+02	0.000E+00	0.0
	-14	1	6	6	0	0	-7.7971790730E+01	-4.8475483253E+01	-8.1768473482E+01	3.4747741780E+02	3.2500000000E+02	0.000E+00	0.0
	25	2	5	5	0	0	-7.2776167768E+01	-8.2711800756E+01	-6.3881270331E+01	1.7857930424E+02	1.2518841250E+02	0.000E+00	0.0
	-5	1	9	9	0	501	-4.2773236165E+01	-7.9242936808E+01	-9.7774202512E+01	1.3298969826E+02	4.1800000000E+00	0.000E+00	0.0
	5	1	9	9	501	0	-3.0002931603E+01	-3.4688639474E+00	3.3892932181E+01	4.5589605983E+01	4.1800000000E+00	0.000E+00	0.0
</event>
<event>
    11  -1  1.0000000E+00  1.0000000E+00  -1.0000000E+00  -1.0000000E+00
	2212	-1	0	0	0	0	0.0000000000E+00	0.0000000000E+00	6.5000000000E+03	6.5000000000E+03	9.3827000000E-01	0.000E+00	0.0
	2212	-1	0	0	0	0	0.0000000000E+00	0.0000000000E+00	-6.5000000000E+03	6.5000000000E+03	9.3827000000E-01	0.000E+00	0.0
	2212	1	0	0	0	0	0.0000000000E+00	0.0000000000E+00	5.4861676993E+03	5.4861676993E+03	9.3827000000E-01	0.000E+00	0.0
	2212	1	0	0	0	0	0.0000000000E+00	0.0000000000E+00	-6.2346703470E+03	6.2346703470E+03	9.3827000000E-01	0.000E+00	0.0
	51	2	1	2	0	0	-1.6277699089E+01	-9.7911517735E+01	8.5584230767E+02	1.3484497671E+03	1.0373037598E+03	0.000E+00	0.0
	1000022	2	5	5	0	0	1.6277699089E+01	9.7911517735E+01	5.1723196396E+02	9.9808083386E+02	8.4781178194E+02	0.000E+00	0.0
	14	1	6	6	0	0	2.2602654079E+02	8.8795018085E+01	4.4909296403E+02	6.0521239472E+02	3.2500000000E+02	0.000E+00	0.0
	-14	1	6	6	0	0	-2.0974884171E+02	9.1164996499E+00	6.8138999926E+01	3.9286843914E+02	3.2500000000E+02	0.000E+00	0.0
	25	2	5	5	0	0	-1.6277699089E+01	-9.7911517735E+01	2.3127068378E+02	2.8108111980E+02	1.2517522893E+02	0.000E+00	0.0
	-5	1	9	9	0	501	-1.6350540083E+01	-8.7797478807E+01	2.4656546004E+02	2.6227416177E+02	4.1800000000E+00	0.000E+00	0.0
	5	1	9	9	501	0	7.2840993975E-02	-1.0114038928E+01	-1.5294776265E+01	1.8806958028E+01	4.1800000000E+00	0.000E+00	0.0
</event>
<event>
    11  -1  1.0000000E+00  1.0000000E+00  -1.0000000E+00  -1.0000000E+00
	2212	-1	0	0	0	0	0.0000000000E+00	0.0000000000E+00	6.5000000000E+03	6.5000000000E+03	9.3827000000E-01	0.000E+00	0.0
	2212	-1	0	0	0	0	0.0000000000E+00	0.0000000000E+00	-6.5000000000E+03	6.5000000000E+03	9.3827000000E-01	0.000E+00	0.0
	2212	1	0	0	0	0	0.0000000000E+00	0.0000000000E+00	5.1834772620E+03	5.1834772620E+03	9.3827000000E-01	0.000E+00	0.0
	2212	1	0	0	0	0	0.0000000000E+00	0.0000000000E+00	-6.2907225533E+03	6.2907225533E+03	9.3827000000E-01	0.000E+00	0.0
	51	2	1	2	0	0	5.3560615697E+00	1.1900210022E+02	1.2461876654E+03	1.6337833250E+03	1.0497971558E+03	0.000E+00	0.0
	1000022	2	5	5	0	0	-5.3560615697E+00	-1.1900210022E+02	7.7471684311E+02	1.1510526065E+03	8.4293874548E+02	0.000E+00	0.0
	14	1	6	6	0	0	-1.2630060095E+02	-1.4405255954E+02	7.0036692888E+02	7.9551355537E+02	3.2500000000E+02	0.000E+00	0.0
	-14	1	6	6	0	0	1.2094453938E+02	2.5050459319E+01	7.4349914234E+01	3.5553905111E+02	3.2500000000E+02	0.000E+00	0.0
	25	2	5	5	0	0	5.3560615697E+00	1.1900210022E+02	3.3252844824E+02	3.7474757820E+02	1.2518143324E+02	0.000E+00	0.0
	-5	1	9	9	0	501	1.6633199870E+01	1.2937913136E+02	1.8520399720E+02	2.2656922992E+02	4.1800000000E+00	0.000E+00	0.0
	5	1	9	9	501	0	-1.1277138301E+01	-1.0377031143E+01	1.4732445104E+02	1.4817834828E+02	4.1800000000E+00	0.000E+00	0.0
</event>
<event>
    11  -1  1.0000000E+00  1.0000000E+00  -1.0000000E+00  -1.0000000E+00
	2212	-1	0	0	0	0	0.0000000000E+00	0.0000000000E+00	6.5000000000E+03	6.5000000000E+03	9.3827000000E-01	0.000E+00	0.0
	2212	-1	0	0	0	0	0.0000000000E+00	0.0000000000E+00	-6.5000000000E+03	6.5000000000E+03	9.3827000000E-01	0.000E+00	0.0
	2212	1	0	0	0	0	0.0000000000E+00	0.0000000000E+00	5.5107196987E+03	5.5107196987E+03	9.3827000000E-01	0.000E+00	0.0
	2212	1	0	0	0	0	0.0000000000E+00	0.0000000000E+00	-6.1620522135E+03	6.1620522135E+03	9.3827000000E-01	0.000E+00	0.0
	51	2	1	2	0	0	2.0870717536E+02	3.4173937392E+01	5.3341544114E+02	1.2909527211E+03	1.1564170321E+03	0.000E+00	0.0
	1000022	2	5	5	0	0	-2.0870717536E+02	-3.4173937392E+01	6.3039682560E+02	1.0805615120E+03	8.5175494150E+02	0.000E+00	0.0
	14	1	6	6	0	0	1.1679426399E+02	-8.5033477107E+00	6.5466130643E+01	3.5160207804E+02	3.2500000000E+02	0.000E+00	0.0
	-14	1	6	6	0	0	-3.2550143935E+02	-2.5670589681E+01	5.6493069495E+02	7.2895943391E+02	3.2500000000E+02	0.000E+00	0.0
	25	2	5	5	0	0	2.0870717536E+02	3.4173937392E+01	2.0935689230E+01	2.4666657586E+02	1.2521802394E+02	0.000E+00	0.0
	-5	1	9	9	0	501	8.0448010103E+01	-4.3297635148E+01	3.0646362798E+01	9.6453302130E+01	4.1800000000E+00	0.000E+00	0.0
	5	1	9	9	501	0	1.2825916525E+02	7.7471572540E+01	-9.7106735684E+00	1.5021327373E+02	4.1800000000E+00	0.000E+00	0.0
</event>
<event>
    11  -1  1.0000000E+00  1.0000000E+00  -1.0000000E+00  -1.0000000E+00
	2212	-1	0	0	0	0	0.0000000000E+00	0.0000000000E+00	6.5000000000E+03	6.5000000000E+03	9.3827000000E-01	0.000E+00	0.0
	2212	-1	0	0	0	0	0.0000000000E+00	0.0000000000E+00	-6.5000000000E+03	6.5000000000E+03	9.3827000000E-01	0.000E+00	0.0
	2212	1	0	0	0	0	0.0000000000E+00	0.0000000000E+00	5.0847991649E+03	5.0847991649E+03	9.3827000000E-01	0.000E+00	0.0
	2212	1	0	0	0	0	0.0000000000E+00	0.0000000000E+00	-6.3060762081E+03	6.3060762081E+03	9.3827000000E-01	0.000E+00	0.0
	51	2	1	2	0	0	-6.1517590551E+00	-1.4206194228E+02	1.0848473343E+03	1.5148853512E+03	1.0477425491E+03	0.000E+00	0.0
	1000022	2	5	5	0	0	6.1517590551E+00	1.4206194228E+02	1.1248369374E+03	1.3965403563E+03	8.1538174576E+02	0.000E+00	0.0
	14	1	6	6	0	0	-5.6049362135E+01	1.5154461591E+02	2.0035446923E+02	4.1457715199E+02	3.2500000000E+02	0.000E+00	0.0
	-14	1	6	6	0	0	6.2201121190E+01	-9.4826736381E+00	9.2448246818E+02	9.8196320428E+02	3.2500000000E+02	0.000E+00	0.0
	25	2	5	5	0	0	-6.1517590551E+00	-1.4206194228E+02	9.6440105809E+01	2.1258427081E+02	1.2518761362E+02	0.000E+00	0.0
	-5	1	9	9	0	501	1.7660820862E+01	-2.0975416255E+00	6.4449795961E+01	6.6989199680E+01	4.1800000000E+00	0.000E+00	0.0
	5	1	9	9	501	0	-2.3812579917E+01	-1.3996440065E+02	3.1990309848E+01	1.4559507113E+02	4.1800000000E+00	0.000E+00	0.0
</event>
<event>
    11  -1  1.0000000E+00  1.0000000E+00  -1.0000000E+00  -1.0000000E+00
	2212	-1	0	0	0	0	0.0000000000E+00	0.0000000000E+00	6.5000000000E+03	6.5000000000E+03	9.3827000000E-01	0.000E+00	0.0
	2212	-1	0	0	0	0	0.0000000000E+00	0.0000000000E+00	-6.5000000000E+03	6.5000000000E+03	9.3827000000E-01	0.000E+00	0.0
	2212	1	0	0	0	0	0.0000000000E+00	0.0000000000E+00	6.3148637112E+03	6.3148637112E+03	9.3827000000E-01	0.000E+00	0.0
	2212	1	0	0	0	0	0.0000000000E+00	0.0000000000E+00	-5.0350451714E+03	5.0350451714E+03	9.3827000000E-01	0.000E+00	0.0
	51	2	1	2	0	0	-6.9120120371E+01	6.9128696035E+01	-1.1421092883E+03	1.5488173537E+03	1.0415686253E+03	0.000E+00	0.0
	1000022	2	5	5	0	0	6.9120120371E+01	-6.9128696035E+01	-1.2016970065E+03	1.4730906964E+03	8.4638297294E+02	0.000E+00	0.0
	14	1	6	6	0	0	-1.1027075344E+02	-7.3232738041E+01	-9.7941988023E+02	1.0403898187E+03	3.2500000000E+02	0.000E+00	0.0
	-14	1	6	6	0	0	1.7939087381E+02	4.1040420055E+00	-2.2227712624E+02	4.3270087776E+02	3.2500000000E+02	0.000E+00	0.0
	25	2	5	5	0	0	-6.9120120371E+01	6.9128696035E+01	-7.8121533271E+01	1.7700042101E+02	1.2517910138E+02	0.000E+00	0.0
	-5	1	9	9	0	501	2.5642073923E+01	4.5928926880E+01	-1.3501492687E+00	5.2785202306E+01	4.1800000000E+00	0.000E+00	0.0
	5	1	9	9	501	0	-9.4762194294E+01	2.3199769155E+01	-7.6771384002E+01	1.2421521870E+02	4.1800000000E+00	0.000E+00	0.0
</event>
<event>
    11  -1  1.0000000E+00  1.0000000E+00  -1.0000000E+00  -1.0000000E+00
	2212	-1	0	0	0	0	0.0000000000E+00	0.0000000000E+00	6.5000000000E+03	6.5000000000E+03	9.3827000000E-01	0.000E+00	0.0
	2212	-1	0	0	0	0	0.0000000000E+00	0.0000000000E+00	-6.5000000000E+03	6.5000000000E+03	9.3827000000E-01	0.000E+00	0.0
	2212	1	0	0	0	0	0.0000000000E+00	0.0000000000E+00	5.2690675370E+03	5.2690675370E+03	9.3827000000E-01	0.000E+00	0.0
	2212	1	0	0	0	0	0.0000000000E+00	0.0000000000E+00	-6.2756678602E+03	6.2756678602E+03	9.3827000000E-01	0.000E+00	0.0
	51	2	1	2	0	0	-6.8431184299E+01	-1.1113683169E+02	9.7957860752E+02	1.4426223776E+03	1.0509761432E+03	0.000E+00	0.0
	1000022	2	5	5	0	0	6.8431184299E+01	1.1113683169E+02	8.6676892670E+02	1.2266835518E+03	8.5815496359E+02	0.000E+00	0.0
	14	1	6	6	0	0	-1.5415792728E+02	-9.1011887558E+01	6.1246316522E+02	7.1608935124E+02	3.2500000000E+02	0.000E+00	0.0
	-14	1	6	6	0	0	2.2258911157E+02	2.0214871925E+02	2.5430576149E+02	5.1059420053E+02	3.2500000000E+02	0.000E+00	0.0
	25	2	5	5	0	0	-6.8431184299E+01	-1.1113683169E+02	1.3983139643E+02	2.2858105102E+02	1.2514893175E+02	0.000E+00	0.0
	-5	1	9	9	0	501	-8.3727763716E+01	-9.2530729078E+01	4.8356618135E+01	1.3389588925E+02	4.1800000000E+00	0.000E+00	0.0
	5	1	9	9	501	0	1.5296579416E+01	-1.8606102611E+01	9.1474778293E+01	9.4685161773E+01	4.1800000000E+00	0.000E+00	0.0
</event>
<event>
    11  -1  1.0000000E+00  1.0000000E+00  -1.0000000E+00  -1.0000000E+00
	2212	-1	0	0	0	0	0.0000000000E+00	0.0000000000E+00	6.5000000000E+03	6.5000000000E+03	9.3827000000E-01	0.000E+00	0.0
	2212	-1	0	0	0	0	0.0000000000E+00	0.0000000000E+00	-6.5000000000E+03	6.5000000000E+03	9.3827000000E-01	0.000E+00	0.0
	2212	1	0	0	0	0	0.0000000000E+00	0.0000000000E+00	5.4859564820E+03	5.4859564820E+03	9.3827000000E-01	0.000E+00	0.0
	2212	1	0	0	0	0	0.0000000000E+00	0.0000000000E+00	-6.2293161595E+03	6.2293161595E+03	9.3827000000E-01	0.000E+00	0.0
	51	2	1	2	0	0	4.4216545090E+01	2.6694128886E+01	8.5981605718E+02	1.3564262262E+03	1.0478266915E+03	0.000E+00	0.0
	1000022	2	5	5	0	0	-4.4216545090E+01	-2.6694128886E+01	5.1454304067E+02	1.0188394586E+03	8.7784487368E+02	0.000E+00	0.0
	14	1	6	6	0	0	2.2526360609E+02	-4.0341316065E+00	4.3632527485E+02	5.8886731266E+02	3.2500000000E+02	0.000E+00	0.0
	-14	1	6	6	0	0	-2.6948015118E+02	-2.2659997279E+01	7.8217765815E+01	4.2997214590E+02	3.2500000000E+02	0.000E+00	0.0
	25	2	5	5	0	0	4.4216545090E+01	2.6694128886E+01	2.2881663683E+02	2.6588789990E+02	1.2518643156E+02	0.000E+00	0.0
	-5	1	9	9	0	501	3.2574989812E+01	5.9067917413E+00	-2.3570087722E+00	3.3452175419E+01	4.1800000000E+00	0.000E+00	0.0
	5	1	9	9	501	0	1.1641555278E+01	2.0787337144E+01	2.3117364560E+02	2.3243572448E+02	4.1800000000E+00	0.000E+00	0.0
</event>
<event>
    11  -1  1.0000000E+00  1.0000000E+00  -1.0000000E+00  -1.0000000E+00
	2212	-1	0	0	0	0	0.0000000000E+00	0.0000000000E+00	6.5000000000E+03	6.5000000000E+03	9.3827000000E-01	0.000E+00	0.0
	2212	-1	0	0	0	0	0.0000000000E+00	0.0000000000E+00	-6.5000000000E+03	6.5000000000E+03	9.3827000000E-01	0.000E+00	0.0
	2212	1	0	0	0	0	0.0000000000E+00	0.0000000000E+00	5.5835973595E+03	5.5835973595E+03	9.3827000000E-01	0.000E+00	0.0
	2212	1	0	0	0	0	0.0000000000E+00	0.0000000000E+00	-6.1957462708E+03	6.1957462708E+03	9.3827000000E-01	0.000E+00	0.0
	51	2	1	2	0	0	-5.1692770869E+01	2.6836617409E+01	7.7956119586E+02	1.3139192091E+03	1.0560661359E+03	0.000E+00	0.0
	1000022	2	5	5	0	0	5.1692770869E+01	-2.6836617409E+01	3.3722789405E+02	9.1301559581E+02	8.4645288060E+02	0.000E+00	0.0
	14	1	6	6	0	0	1.5789433585E+02	1.9052372801E+02	3.9806884320E+01	4.1041381588E+02	3.2500000000E+02	0.000E+00	0.0
	-14	1	6	6	0	0	-1.0620156498E+02	-2.1736034541E+02	2.9742100973E+02	5.0260177993E+02	3.2500000000E+02	0.000E+00	0.0
	25	2	5	5	0	0	-5.1692770869E+01	2.6836617409E+01	2.7492101718E+02	3.0764077388E+02	1.2517561053E+02	0.000E+00	0.0
	-5	1	9	9	0	501	-7.3886060610E+01	-2.7520511365E+01	1.4836720873E+02	1.6806793128E+02	4.1800000000E+00	0.000E+00	0.0
	5	1	9	9	501	0	2.2193289741E+01	5.4357128774E+01	1.2655380845E+02	1.3957284260E+02	4.1800000000E+00	0.000E+00	0.0
</event>
<event>
    11  -1  1.0000000E+00  1.0000000E+00  -1.0000000E+00  -1.0000000E+00
	2212	-1	0	0	0	0	0.0000000000E+00	0.0000000000E+00	6.5000000000E+03	6.5000000000E+03	9.3827000000E-01	0.000E+00	0.0
	2212	-1	0	0	0	0	0.0000000000E+00	0.0000000000E+00	-6.5000000000E+03	6.5000000000E+03	9.3827000000E-01	0.000E+00	0.0
	2212	1	0	0	0	0	0.0000000000E+00	0.0000000000E+00	6.2105752616E+03	6.2105752616E+03	9.3827000000E-01	0.000E+00	0.0
	2212	1	0	0	0	0	0.0000000000E+00	0.0000000000E+00	-5.5521205158E+03	5.5521205158E+03	9.3827000000E-01	0.000E+00	0.0
	51	2	1	2	0	0	-8.1050479066E+00	-8.6594192691E+01	-5.3788003847E+02	1.1807786705E+03	1.0475490857E+03	0.000E+00	0.0
	1000022	2	5	5	0	0	8.1050479066E+00	8.6594192691E+01	-6.6766955659E+02	1.0845730701E+03	8.5026575940E+02	0.000E+00	0.0
	14	1	6	6	0	0	2.3896754685E+02	-7.8722424701E+01	-2.3492574703E+02	4.7341083133E+02	3.2500000000E+02	0.000E+00	0.0
	-14	1	6	6	0	0	-2.3086249894E+02	1.6531661739E+02	-4.3274380955E+02	6.1116223878E+02	3.2500000000E+02	0.000E+00	0.0
	25	2	5	5	0	0	-8.1050479066E+00	-8.6594192691E+01	9.2148108145E+00	1.5273115242E+02	1.2521040761E+02	0.000E+00	0.0
	-5	1	9	9	0	501	-2.9483073153E+01	-1.1376203105E+02	5.7147660032E+00	1.1773352225E+02	4.1800000000E+00	0.000E+00	0.0
	5	1	9	9	501	0	2.1378025246E+01	2.7167838355E+01	3.5000448113E+00	3.4997630177E+01	4.1800000000E+00	0.000E+00	0.0
</event>
<event>
    11  -1  1.0000000E+00  1.0000000E+00  -1.0000000E+00  -1.0000000E+00
	2212	-1	0	0	0	0	0.0000000000E+00	0.0000000000E+00	6.5000000000E+03	6.5000000000E+03	9.3827000000E-01	0.000E+00	0.0
	2212	-1	0	0	0	0	0.0000000000E+00	0.0000000000E+00	-6.5000000000E+03	6.5000000000E+03	9.3827000000E-01	0.000E+00	0.0
	2212	1	0	0	0	0	0.0000000000E+00	0.0000000000E+00	5.9458444171E+03	5.9458444171E+03	9.3827000000E-01	0.000E+00	0.0
	2212	1	0	0	0	0	0.0000000000E+00	0.0000000000E+00	-6.0010304240E+03	6.0010304240E+03	9.3827000000E-01	0.000E+00	0.0
	51	2	1	2	0	0	-2.8230280123E+01	-1.4044069187E+02	4.8590802743E+01	1.0625011566E+03	1.0516782326E+03	0.000E+00	0.0
	1000022	2	5	5	0	0	2.8230280123E+01	1.4044069187E+02	5.2302268405E+01	8.6286067841E+02	8.4927762624E+02	0.000E+00	0.0
	14	1	6	6	0	0	-2.2731698822E+02	-6.0848210773E+01	1.5281991130E+01	4.0153960843E+02	3.2500000000E+02	0.000E+00	0.0
	-14	1	6	6	0	0	2.5554726834E+02	2.0128890264E+02	3.7020277275E+01	4.6132106998E+02	3.2500000000E+02	0.000E+00	0.0
	25	2	5	5	0	0	-2.8230280123E+01	-1.4044069187E+02	2.8837385338E+00	1.9026448050E+02	1.2518674029E+02	0.000E+00	0.0
	-5	1	9	9	0	501	-7.6819797256E+01	-8.7592720696E+01	1.4288554531E+01	1.1745382565E+02	4.1800000000E+00	0.000E+00	0.0
	5	1	9	9	501	0	4.8589517134E+01	-5.2847971169E+01	-1.1404815998E+01	7.2810654851E+01	4.1800000000E+00	0.000E+00	0.0
</event>
<event>
    11  -1  1.0000000E+00  1.0000000E+00  -1.0000000E+00  -1.0000000E+00
	2212	-1	0	0	0	0	0.0000000000E+00	0.0000000000E+00	6.5000000000E+03	6.5000000000E+03	9.3827000000E-01	0.000E+00	0.0
	2212	-1	0	0	0	0	0.0000000000E+00	0.0000000000E+00	-6.5000000000E+03	6.5000000000E+03	9.3827000000E-01	0.000E+00	0.0
	2212	1	0	0	0	0	0.0000000000E+00	0.0000000000E+00	6.1641977877E+03	6.1641977877E+03	9.3827000000E-01	0.000E+00	0.0
	2212	1	0	0	0	0	0.0000000000E+00	0.0000000000E+00	-5.6857828163E+03	5.6857828163E+03	9.3827000000E-01	0.000E+00	0.0
	51	2	1	2	0	0	7.1096212436E+01	-2.5143468997E+01	-3.5764248801E+02	1.1078171063E+03	1.0457837856E+03	0.000E+00	0.0
	1000022	2	5	5	0	0	-7.1096212436E+01	2.5143468997E+01	-5.1858280500E+02	9.9846330400E+02	8.4989056844E+02	0.000E+00	0.0
	14	1	6	6	0	0	-1.7435336090E+02	-1.0427868726E+02	-5.0433245990E+02	6.3344247504E+02	3.2500000000E+02	0.000E+00	0.0
	-14	1	6	6	0	0	1.0325714846E+02	1.2942215626E+02	-1.4250345104E+01	3.6502082896E+02	3.2500000000E+02	0.000E+00	0.0
	25	2	5	5	0	0	7.1096212436E+01	-2.5143468997E+01	4.0167833623E+01	1.5155609195E+02	1.2517559145E+02	0.000E+00	0.0
	-5	1	9	9	0	501	2.6268024243E+01	4.4942503511E+01	-1.1577414212E+01	5.3491556710E+01	4.1800000000E+00	0.000E+00	0.0
	5	1	9	9	501	0	4.4828188193E+01	-7.0085972508E+01	5.1745247835E+01	9.8064535243E+01	4.1800000000E+00	0.000E+00	0.0
</event>
<event>
    11  -1  1.0000000E+00  1.0000000E+00  -1.0000000E+00  -1.0000000E+00
	2212	-1	0	0	0	0	0.0000000000E+00	0.0000000000E+00	6.5000000000E+03	6.5000000000E+03	9.3827000000E-01	0.000E+00	0.0
	2212	-1	0	0	0	0	0.0000000000E+00	0.0000000000E+00	-6.5000000000E+03	6.5000000000E+03	9.3827000000E-01	0.000E+00	0.0
	2212	1	0	0	0	0	0.0000000000E+00	0.0000000000E+00	6.0499856434E+03	6.0499856434E+03	9.3827000000E-01	0.000E+00	0.0
	2212	1	0	0	0	0	0.0000000000E+00	0.0000000000E+00	-5.9367446801E+03	5.9367446801E+03	9.3827000000E-01	0.000E+00	0.0
	51	2	1	2	0	0	7.2109930772E+01	1.5386233177E+01	-7.0507657126E+01	1.0120769880E+03	1.0069220037E+03	0.000E+00	0.0
	1000022	2	5	5	0	0	-7.2109930772E+01	-1.5386233177E+01	-1.3934569289E+02	8.6567139798E+02	8.5119514147E+02	0.000E+00	0.0
	14	1	6	6	0	0	-1.3944315358E+01	1.5001320041E+01	-3.4587280926E+02	4.7504998023E+02	3.2500000000E+02	0.000E+00	0.0
	-14	1	6	6	0	0	-5.8165615414E+01	-3.0387553217E+01	2.0652711637E+02	3.9062141775E+02	3.2500000000E+02	0.000E+00	0.0
	25	2	5	5	0	0	7.2109930772E+01	1.5386233177E+01	2.6104729577E+01	1.4759827852E+02	1.2516875261E+02	0.000E+00	0.0
	-5	1	9	9	0	501	-9.0491550052E+00	1.8108736343E+01	5.6986096316E+01	6.0619313024E+01	4.1800000000E+00	0.000E+00	0.0
	5	1	9	9	501	0	8.1159085777E+01	-2.7225031660E+00	-3.0881366739E+01	8.6978965499E+01	4.1800000000E+00	0.000E+00	0.0
</event>
<event>
    11  -1  1.0000000E+00  1.0000000E+00  -1.0000000E+00  -1.0000000E+00
	2212	-1	0	0	0	0	0.0000000000E+00	0.0000000000E+00	6.5000000000E+03	6.5000000000E+03	9.3827000000E-01	0.000E+00	0.0
	2212	-1	0	0	0	0	0.0000000000E+00	0.0000000000E+00	-6.5000000000E+03	6.5000000000E+03	9.3827000000E-01	0.000E+00	0.0
	2212	1	0	0	0	0	0.0000000000E+00	0.0000000000E+00	5.0121105795E+03	5.0121105795E+03	9.3827000000E-01	0.000E+00	0.0
	2212	1	0	0	0	0	0.0000000000E+00	0.0000000000E+00	-6.1885203763E+03	6.1885203763E+03	9.3827000000E-01	0.000E+00	0.0
	51	2	1	2	0	0	-3.0894134990E+02	5.1039233894E+01	8.8853462700E+02	1.6556969806E+03	1.3615391831E+03	0.000E+00	0.0
	1000022	2	5	5	0	0	3.0894134990E+02	-5.1039233894E+01	1.1491648465E+03	1.4610514210E+03	8.4619244235E+02	0.000E+00	0.0
	14	1	6	6	0	0	-2.5678975110E+00	-7.3165211488E+01	1.5085207908E+02	3.6570629203E+02	3.2500000000E+02	0.000E+00	0.0
	-14	1	6	6	0	0	3.1150924741E+02	2.2125977594E+01	9.9831276739E+02	1.0953451290E+03	3.2500000000E+02	0.000E+00	0.0
	25	2	5	5	0	0	-3.0894134990E+02	5.1039233894E+01	2.7244950343E+01	3.3831762312E+02	1.2516695138E+02	0.000E+00	0.0
	-5	1	9	9	0	501	-1.4830587980E+02	8.0381140559E+00	-4.7446737935E+01	1.5597407028E+02	4.1800000000E+00	0.000E+00	0.0
	5	1	9	9	501	0	-1.6063547010E+02	4.3001119838E+01	7.4691688279E+01	1.8234355283E+02	4.1800000000E+00	0.000E+00	0.0
</event>
<event>
    11  -1  1.0000000E+00  1.0000000E+00  -1.0000000E+00  -1.0000000E+00
	2212	-1	0	0	0	0	0.0000000000E+00	0.0000000000E+00	6.5000000000E+03	6.5000000000E+03	9.3827000000E-01	0.000E+00	0.0
	2212	-1	0	0	0	0	0.0000000000E+00	0.0000000000E+00	-6.5000000000E+03	6.5000000000E+03	9.3827000000E-01	0.000E+00	0.0
	2212	1	0	0	0	0	0.0000000000E+00	0.0000000000E+00	5.6617915993E+03	5.6617915993E+03	9.3827000000E-01	0.000E+00	0.0
	2212	1	0	0	0	0	0.0000000000E+00	0.0000000000E+00	-6.1751251588E+03	6.1751251588E+03	9.3827000000E-01	0.000E+00	0.0
	51	2	1	2	0	0	-7.8552240626E+01	4.5406945249E+01	4.1264487695E+02	1.1259481889E+03	1.0436720196E+03	0.000E+00	0.0
	1000022	2	5	5	0	0	7.8552240626E+01	-4.5406945249E+01	5.2904516134E+02	1.0076818503E+03	8.5281984232E+02	0.000E+00	0.0
	14	1	6	6	0	0	2.3771324757E+02	-2.1094808300E+02	3.3672968379E+02	5.6570183113E+02	3.2500000000E+02	0.000E+00	0.0
	-14	1	6	6	0	0	-1.5916100694E+02	1.6554113775E+02	1.9231547755E+02	4.4198001915E+02	3.2500000000E+02	0.000E+00	0.0
	25	2	5	5	0	0	-7.8552240626E+01	4.5406945249E+01	-1.5711601838E+01	1.5540139171E+02	1.2518183945E+02	0.000E+00	0.0
	-5	1	9	9	0	501	-8.4238592838E+01	2.5084341098E+00	3.2554891029E+01	9.0441838189E+01	4.1800000000E+00	0.000E+00	0.0
	5	1	9	9	501	0	5.6863522122E+00	4.2898511139E+01	-4.8266492867E+01	6.4959553516E+01	4.1800000000E+00	0.000E+00	0.0
</event>
<event>
    11  -1  1.0000000E+00  1.0000000E+00  -1.0000000E+00  -1.0000000E+00
	2212	-1	0	0	0	0	0.0000000000E+00	0.0000000000E+00	6.5000000000E+03	6.5000000000E+03	9.3827000000E-01	0.000E+00	0.0
	2212	-1	0	0	0	0	0.0000000000E+00	0.0000000000E+00	-6.5000000000E+03	6.5000000000E+03	9.3827000000E-01	0.000E+00	0.0
	2212	1	0	0	0	0	0.0000000000E+00	0.0000000000E+00	6.3209434373E+03	6.3209434373E+03	9.3827000000E-01	0.000E+00	0.0
	2212	1	0	0	0	0	0.0000000000E+00	0.0000000000E+00	-4.9596430065E+03	4.9596430065E+03	9.3827000000E-01	0.000E+00	0.0
	51	2	1	2	0	0	-9.8918001681E+01	-5.7765871977E+01	-1.2961995097E+03	1.6722735872E+03	1.0503542805E+03	0.000E+00	0.0
	1000022	2	5	5	0	0	9.8918001681E+01	5.7765871977E+01	-1.2080732848E+03	1.4907905639E+03	8.6596407364E+02	0.000E+00	0.0
	14	1	6	6	0	0	-2.0097488126E+02	5.4793821015E+01	-3.3088628336E+02	5.0843288469E+02	3.2500000000E+02	0.000E+00	0.0
	-14	1	6	6	0	0	2.9989288294E+02	2.9720509617E+00	-8.7718700147E+02	9.8235767920E+02	3.2500000000E+02	0.000E+00	0.0
	25	2	5	5	0	0	-9.8918001681E+01	-5.7765871977E+01	-1.5322714589E+02	2.2862299231E+02	1.2517286988E+02	0.000E+00	0.0
	-5	1	9	9	0	501	-1.1527425916E+02	-7.5581874463E+01	-1.5017627966E+02	2.0389007319E+02	4.1800000000E+00	0.000E+00	0.0
	5	1	9	9	501	0	1.6356257483E+01	1.7816002486E+01	-3.0508662286E+00	2.4732919119E+01	4.1800000000E+00	0.000E+00	0.0
</event>
<event>
    11  -1  1.0000000E+00  1.0000000E+00  -1.0000000E+00  -1.0000000E+00
	2212	-1	0	0	0	0	0.0000000000E+00	0.0000000000E+00	6.5000000000E+03	6.5000000000E+03	9.3827000000E-01	0.000E+00	0.0
	2212	-1	0	0	0	0	0.0000000000E+00	0.0000000000E+00	-6.5000000000E+03	6.5000000000E+03	9.3827000000E-01	0.000E+00	0.0
	2212	1	0	0	0	0	0.0000000000E+00	0.0000000000E+00	6.0509748323E+03	6.0509748323E+03	9.3827000000E-01	0.000E+00	0.0
	2212	1	0	0	0	0	0.0000000000E+00	0.0000000000E+00	-5.8867682830E+03	5.8867682830E+03	9.3827000000E-01	0.000E+00	0.0
	51	2	1	2	0	0	1.3433208868E+02	5.8625758110E+00	-2.0292320885E+02	1.0773500855E+03	1.0494883983E+03	0.000E+00	0.0
	1000022	2	5	5	0	0	-1.3433208868E+02	-5.8625758110E+00	-9.7615782911E+01	8.6684528604E+02	8.5077166679E+02	0.000E+00	0.0
	14	1	6	6	0	0	-1.9033246091E+01	-1.4248132890E+02	1.8489078783E+02	4.0059056026E+02	3.2500000000E+02	0.000E+00	0.0
	-14	1	6	6	0	0	-1.1529884259E+02	1.3661875309E+02	-2.8250657074E+02	4.6625472578E+02	3.2500000000E+02	0.000E+00	0.0
	25	2	5	5	0	0	1.3433208868E+02	5.8625758110E+00	-6.6590766382E+01	1.9541159861E+02	1.2518739098E+02	0.000E+00	0.0
	-5	1	9	9	0	501	-1.9213686066E+00	-3.6101982185E+01	3.3648050915E+00	3.6549132525E+01	4.1800000000E+00	0.000E+00	0.0
	5	1	9	9	501	0	1.3625345729E+02	4.1964557996E+01	-6.9955571473E+01	1.5886246608E+02	4.1800000000E+00	0.000E+00	0.0
</event>
<event>
    11  -1  1.0000000E+00  1.0000000E+00  -1.0000000E+00  -1.0000000E+00
	2212	-1	0	0	0	0	0.0000000000E+00	0.0000000000E+00	6.5000000000E+03	6.5000000000E+03	9.3827000000E-01	0.000E+00	0.0
	2212	-1	0	0	0	0	0.0000000000E+00	0.0000000000E+00	-6.5000000000E+03	6.5000000000E+03	9.3827000000E-01	0.000E+00	0.0
	2212	1	0	0	0	0	0.0000000000E+00	0.0000000000E+00	5.4211799975E+03	5.4211799975E+03	9.3827000000E-01	0.000E+00	0.0
	2212	1	0	0	0	0	0.0000000000E+00	0.0000000000E+00	-6.0908464888E+03	6.0908464888E+03	9.3827000000E-01	0.000E+00	0.0
	51	2	1	2	0	0	-1.4554548849E+02	2.3853179999E+02	4.1619161227E+02	1.4201789799E+03	1.3287633228E+03	0.000E+00	0.0
	1000022	2	5	5	0	0	1.4554548849E+02	-2.3853179999E+02	7.5014799570E+02	1.1713833386E+03	8.5518185304E+02	0.000E+00	0.0
	14	1	6	6	0	0	-9.2494723431E+01	1.2153048966E+02	2.8544980474E+02	4.5872816003E+02	3.2500000000E+02	0.000E+00	0.0
	-14	1	6	6	0	0	2.3804021192E+02	-3.6006228966E+02	4.6469819096E+02	7.1265517862E+02	3.2500000000E+02	0.000E+00	0.0
	25	2	5	5	0	0	-1.4554548849E+02	2.3853179999E+02	-8.0481504486E+01	3.1659017504E+02	1.2518449400E+02	0.000E+00	0.0
	-5	1	9	9	0	501	-1.0586628242E+02	2.1204495996E+02	-1.0894727152E+02	2.6087873652E+02	4.1800000000E+00	0.000E+00	0.0
	5	1	9	9	501	0	-3.9679206067E+01	2.6486840035E+01	2.8465767029E+01	5.5711438518E+01	4.1800000000E+00	0.000E+00	0.0
</event>
<event>
    11  -1  1.0000000E+00  1.0000000E+00  -1.0000000E+00  -1.0000000E+00
	2212	-1	0	0	0	0	0.0000000000E+00	0.0000000000E+00	6.5000000000E+03	6.5000000000E+03	9.3827000000E-01	0.000E+00	0.0
	2212	-1	0	0	0	0	0.0000000000E+00	0.0000000000E+00	-6.5000000000E+03	6.5000000000E+03	9.3827000000E-01	0.000E+00	0.0
	2212	1	0	0	0	0	0.0000000000E+00	0.0000000000E+00	6.0194675952E+03	6.0194675952E+03	9.3827000000E-01	0.000E+00	0.0
	2212	1	0	0	0	0	0.0000000000E+00	0.0000000000E+00	-5.9253825460E+03	5.9253825460E+03	9.3827000000E-01	0.000E+00	0.0
	51	2	1	2	0	0	-3.9987452826E+01	-1.5772410871E+02	-1.2126447906E+02	1.0703598427E+03	1.0509468246E+03	0.000E+00	0.0
	1000022	2	5	5	0	0	3.9987452826E+01	1.5772410871E+02	-4.9529790153E+01	8.4507253189E+02	8.2777925390E+02	0.000E+00	0.0
	14	1	6	6	0	0	2.0501052518E+02	-7.8941285442E+01	6.0120961101E+01	3.9686341724E+02	3.2500000000E+02	0.000E+00	0.0
	-14	1	6	6	0	0	-1.6502307236E+02	2.3666539416E+02	-1.0965075125E+02	4.4820911465E+02	3.2500000000E+02	0.000E+00	0.0
	25	2	5	5	0	0	-3.9987452826E+01	-1.5772410871E+02	-4.4555258964E+01	2.1007732690E+02	1.2518554758E+02	0.000E+00	0.0
	-5	1	9	9	0	501	3.7416948937E+01	-4.5325029589E+01	1.5483137882E+01	6.0922789937E+01	4.1800000000E+00	0.000E+00	0.0
	5	1	9	9	501	0	-7.7404401763E+01	-1.1239907912E+02	-6.0038396846E+01	1.4915453696E+02	4.1800000000E+00	0.000E+00	0.0
</event>
<event>
    11  -1  1.0000000E+00  1.0000000E+00  -1.0000000E+00  -1.0000000E+00
	2212	-1	0	0	0	0	0.0000000000E+00	0.0000000000E+00	6.5000000000E+03	6.5000000000E+03	9.3827000000E-01	0.000E+00	0.0
	2212	-1	0	0	0	0	0.0000000000E+00	0.0000000000E+00	-6.5000000000E+03	6.5000000000E+03	9.3827000000E-01	0.000E+00	0.0
	2212	1	0	0	0	0	0.0000000000E+00	0.0000000000E+00	6.3285074029E+03	6.3285074029E+03	9.3827000000E-01	0.000E+00	0.0
	2212	1	0	0	0	0	0.0000000000E+00	0.0000000000E+00	-4.9229517151E+03	4.9229517151E+03	9.3827000000E-01	0.000E+00	0.0
	51	2	1	2	0	0	-4.8487939404E+01	3.2033437721E+01	-1.6140226837E+03	1.9210036099E+03	1.0401001991E+03	0.000E+00	0.0
	1000022	2	5	5	0	0	4.8487939404E+01	-3.2033437721E+01	-9.6330791778E+02	1.2852499466E+03	8.4883924239E+02	0.000E+00	0.0
	14	1	6	6	0	0	-1.2091171592E+01	-2.7986175554E+02	-3.9948909355E+02	5.8624682047E+02	3.2500000000E+02	0.000E+00	0.0
	-14	1	6	6	0	0	6.0579110996E+01	2.4782831782E+02	-5.6381882423E+02	6.9900312614E+02	3.2500000000E+02	0.000E+00	0.0
	25	2	5	5	0	0	-4.8487939404E+01	3.2033437721E+01	-4.4224777007E+02	4.6329093534E+02	1.2521253626E+02	0.000E+00	0.0
	-5	1	9	9	0	501	1.5124491139E+01	1.2925056197E+01	-3.4414154084E+02	3.4474146812E+02	4.1800000000E+00	0.000E+00	0.0
	5	1	9	9	501	0	-6.3612430543E+01	1.9108381523E+01	-9.8106229222E+01	1.1854946721E+02	4.1800000000E+00	0.000E+00	0.0
</event>
<event>
    11  -1  1.0000000E+00  1.0000000E+00  -1.0000000E+00  -1.0000000E+00
	2212	-1	0	0	0	0	0.0000000000E+00	0.0000000000E+00	6.5000000000E+03	6.5000000000E+03	9.3827000000E-01	0.000E+00	0.0
	2212	-1	0	0	0	0	0.0000000000E+00	0.0000000000E+00	-6.5000000000E+03	6.5000000000E+03	9.3827000000E-01	0.000E+00	0.0
	2212	1	0	0	0	0	0.0000000000E+00	0.0000000000E+00	4.9874230052E+03	4.9874230052E+03	9.3827000000E-01	0.000E+00	0.0
	2212	1	0	0	0	0	0.0000000000E+00	0.0000000000E+00	-6.3187231942E+03	6.3187231942E+03	9.3827000000E-01	0.000E+00	0.0
	51	2	1	2	0	0	6.3248538567E+01	9.2090396774E+01	1.4823226194E+03	1.8183899118E+03	1.0472728892E+03	0.000E+00	0.0
	1000022	2	5	5	0	0	-6.3248538567E+01	-9.2090396774E+01	9.5264110674E+02	1.2796886401E+03	8.4711092465E+02	0.000E+00	0.0
	14	1	6	6	0	0	-1.5993544862E+02	-2.5768385187E+02	3.3791859820E+02	5.5838543520E+02	3.2500000000E+02	0.000E+00	0.0
	-14	1	6	6	0	0	9.6686910053E+01	1.6559345510E+02	6.1472250854E+02	7.2130320494E+02	3.2500000000E+02	0.000E+00	0.0
	25	2	5	5	0	0	6.3248538567E+01	9.2090396774E+01	3.7865908228E+02	4.1416516042E+02	1.2517611875E+02	0.000E+00	0.0
	-5	1	9	9	0	501	-3.2669573372E+01	-5.4976586496E-01	5.5357004012E+01	6.4416407537E+01	4.1800000000E+00	0.000E+00	0.0
	5	1	9	9	501	0	9.5918111939E+01	9.2640162639E+01	3.2330207827E+02	3.4974875288E+02	4.1800000000E+00	0.000E+00	0.0
</event>
<event>
    11  -1  1.0000000E+00  1.0000000E+00  -1.0000000E+00  -1.0000000E+00
	2212	-1	0	0	0	0	0.0000000000E+00	0.0000000000E+00	6.5000000000E+03	6.5000000000E+03	9.3827000000E-01	0.000E+00	0.0
	2212	-1	0	0	0	0	0.0000000000E+00	0.0000000000E+00	-6.5000000000E+03	6.5000000000E+03	9.3827000000E-01	0.000E+00	0.0
	2212	1	0	0	0	0	0.0000000000E+00	0.0000000000E+00	6.2600803557E+03	6.2600803557E+03	9.3827000000E-01	0.000E+00	0.0
	2212	1	0	0	0	0	0.0000000000E+00	0.0000000000E+00	-5.3562542612E+03	5.3562542612E+03	9.3827000000E-01	0.000E+00	0.0
	51	2	1	2	0	0	9.4052489420E+00	-1.9541364732E+01	-1.0892913575E+03	1.5115072837E+03	1.0476775665E+03	0.000E+00	0.0
	1000022	2	5	5	0	0	-9.4052489420E+00	1.9541364732E+01	-5.6629544303E+02	1.0230269134E+03	8.5171780136E+02	0.000E+00	0.0
	14	1	6	6	0	0	2.3740154233E+02	-1.0111733267E+02	-3.6328085173E+02	5.5152713850E+02	3.2500000000E+02	0.000E+00	0.0
	-14	1	6	6	0	0	-2.4680679127E+02	1.2065869740E+02	-2.0301459130E+02	4.7149977493E+02	3.2500000000E+02	0.000E+00	0.0
	25	2	5	5	0	0	9.4052489420E+00	-1.9541364732E+01	-3.3753065143E+02	3.6063846970E+02	1.2515127458E+02	0.000E+00	0.0
	-5	1	9	9	0	501	4.7461142503E+01	2.5347466584E+01	-8.0449005070E+01	9.6873984778E+01	4.1800000000E+00	0.000E+00	0.0
	5	1	9	9	501	0	-3.8055893561E+01	-4.4888831316E+01	-2.5708164636E+02	2.6376448492E+02	4.1800000000E+00	0.000E+00	0.0
</event>
<event>
    11  -1  1.0000000E+00  1.0000000E+00  -1.0000000E+00  -1.0000000E+00
	2212	-1	0	0	0	0	0.0000000000E+00	0.0000000000E+00	6.5000000000E+03	6.5000000000E+03	9.3827000000E-01	0.000E+00	0.0
	2212	-1	0	0	0	0	0.0000000000E+00	0.0000000000E+00	-6.5000000000E+03	6.5000000000E+03	9.3827000000E-01	0.000E+00	0.0
	2212	1	0	0	0	0	0.0000000000E+00	0.0000000000E+00	5.2089130530E+03	5.2089130530E+03	9.3827000000E-01	0.000E+00	0.0
	2212	1	0	0	0	0	0.0000000000E+00	0.0000000000E+00	-6.2876807675E+03	6.2876807675E+03	9.3827000000E-01	0.000E+00	0.0
	51	2	1	2	0	0	9.9901362465E+01	-9.8992488147E+01	1.0512441444E+03	1.4904309460E+03	1.0471343556E+03	0.000E+00	0.0
	1000022	2	5	5	0	0	-9.9901362465E+01	9.8992488147E+01	9.2047435657E+02	1.2574208285E+03	8.4501733935E+02	0.000E+00	0.0
	14	1	6	6	0	0	1.6141544034E+02	-6.7592104791E+01	2.3376866268E+02	4.3691695397E+02	3.2500000000E+02	0.000E+00	0.0
	-14	1	6	6	0	0	-2.6131680281E+02	1.6658459294E+02	6.8670569389E+02	8.2050387449E+02	3.2500000000E+02	0.000E+00	0.0
	25	2	5	5	0	0	9.9901362465E+01	-9.8992488147E+01	1.5829335799E+02	2.4598535109E+02	1.2518870091E+02	0.000E+00	0.0
	-5	1	9	9	0	501	5.2294767305E+01	2.2763599746E+01	5.4646929245E+01	7.9099199975E+01	4.1800000000E+00	0.000E+00	0.0
	5	1	9	9	501	0	4.7606595161E+01	-1.2175608789E+02	1.0364642874E+02	1.6688615111E+02	4.1800000000E+00	0.000E+00	0.0
</event>
<event>
    11  -1  1.0000000E+00  1.0000000E+00  -1.0000000E+00  -1.0000000E+00
	2212	-1	0	0	0	0	0.0000000000E+00	0.0000000000E+00	6.5000000000E+03	6.5000000000E+03	9.3827000000E-01	0.000E+00	0.0
	2212	-1	0	0	0	0	0.0000000000E+00	0.0000000000E+00	-6.5000000000E+03	6.5000000000E+03	9.3827000000E-01	0.000E+00	0.0
	2212	1	0	0	0	0	0.0000000000E+00	0.0000000000E+00	5.0478829740E+03	5.0478829740E+03	9.3827000000E-01	0.000E+00	0.0
	2212	1	0	0	0	0	0.0000000000E+00	0.0000000000E+00	-6.2789027272E+03	6.2789027272E+03	9.3827000000E-01	0.000E+00	0.0
	51	2	1	2	0	0	2.2151684625E+02	-3.3400513365E+01	1.2467220319E+03	1.6996286622E+03	1.1332415704E+03	0.000E+00	0.0
	1000022	2	5	5	0	0	-2.2151684625E+02	3.3400513365E+01	9.6031889582E+02	1.3002033297E+03	8.4742610847E+02	0.000E+00	0.0
	14	1	6	6	0	0	-1.3930699387E+02	2.2065140695E+02	2.3238820885E+02	4.7720306112E+02	3.2500000000E+02	0.000E+00	0.0
	-14	1	6	6	0	0	-8.2209852384E+01	-1.8725089359E+02	7.2793068698E+02	8.2300026854E+02	3.2500000000E+02	0.000E+00	0.0
	25	2	5	5	0	0	2.2151684625E+02	-3.3400513365E+01	2.7070085744E+02	3.7301096915E+02	1.2519153892E+02	0.000E+00	0.0
	-5	1	9	9	0	501	1.2150861864E+01	6.2647731901E+00	-1.2211751163E+01	1.8801332230E+01	4.1800000000E+00	0.000E+00	0.0
	5	1	9	9	501	0	2.0936598439E+02	-3.9665286555E+01	2.8291260861E+02	3.5420963692E+02	4.1800000000E+00	0.000E+00	0.0
</event>
<event>
    11  -1  1.0000000E+00  1.0000000E+00  -1.0000000E+00  -1.0000000E+00
	2212	-1	0	0	0	0	0.0000000000E+00	0.0000000000E+00	6.5000000000E+03	6.5000000000E+03	9.3827000000E-01	0.000E+00	0.0
	2212	-1	0	0	0	0	0.0000000000E+00	0.0000000000E+00	-6.5000000000E+03	6.5000000000E+03	9.3827000000E-01	0.000E+00	0.0
	2212	1	0	0	0	0	0.0000000000E+00	0.0000000000E+00	5.6908112154E+03	5.6908112154E+03	9.3827000000E-01	0.000E+00	0.0
	2212	1	0	0	0	0	0.0000000000E+00	0.0000000000E+00	-6.1596653892E+03	6.1596653892E+03	9.3827000000E-01	0.000E+00	0.0
	51	2	1	2	0	0	7.2407787374E+01	1.1901124653E+02	4.9228907904E+02	1.1676193310E+03	1.0495617182E+03	0.000E+00	0.0
	1000022	2	5	5	0	0	-7.2407787374E+01	-1.1901124653E+02	3.6556263897E+02	9.3563723530E+02	8.4992613126E+02	0.000E+00	0.0
	14	1	6	6	0	0	-2.8717485071E+02	-6.0268265887E+01	7.0658539378E+01	4.4353048141E+02	3.2500000000E+02	0.000E+00	0.0
	-14	1	6	6	0	0	2.1476706333E+02	-5.8742980639E+01	2.9490409959E+02	4.9210675389E+02	3.2500000000E+02	0.000E+00	0.0
	25	2	5	5	0	0	7.2407787374E+01	1.1901124653E+02	1.0329153482E+02	2.1388616013E+02	1.2518619676E+02	0.000E+00	0.0
	-5	1	9	9	0	501	-1.6733171090E+01	6.7822893934E+01	2.7470163793E+00	7.0035437140E+01	4.1800000000E+00	0.000E+00	0.0
	5	1	9	9	501	0	8.9140958464E+01	5.1188352592E+01	1.0054451844E+02	1.4385072299E+02	4.1800000000E+00	0.000E+00	0.0
</event>
<event>
    11  -1  1.0000000E+00  1.0000000E+00  -1.0000000E+00  -1.0000000E+00
	2212	-1	0	0	0	0	0.0000000000E+00	0.0000000000E+00	6.5000000000E+03	6.5000000000E+03	9.3827000000E-01	0.000E+00	0.0
	2212	-1	0	0	0	0	0.0000000000E+00	0.0000000000E+00	-6.5000000000E+03	6.5000000000E+03	9.3827000000E-01	0.000E+00	0.0
	2212	1	0	0	0	0	0.0000000000E+00	0.0000000000E+00	5.4048873765E+03	5.4048873765E+03	9.3827000000E-01	0.000E+00	0.0
	2212	1	0	0	0	0	0.0000000000E+00	0.0000000000E+00	-6.2503462280E+03	6.2503462280E+03	9.3827000000E-01	0.000E+00	0.0
	51	2	1	2	0	0	8.9379717651E+01	-7.1213763817E+01	7.6025565350E+02	1.2979386664E+03	1.0457513992E+03	0.000E+00	0.0
	1000022	2	5	5	0	0	-8.9379717651E+01	7.1213763817E+01	7.8883577276E+02	1.1660086801E+03	8.5103127538E+02	0.000E+00	0.0
	14	1	6	6	0	0	1.0072028457E+02	1.7572675623E+02	6.4404431059E+02	7.4929469675E+02	3.2500000000E+02	0.000E+00	0.0
	-14	1	6	6	0	0	-1.9010000222E+02	-1.0451299241E+02	1.4479146217E+02	4.1671398338E+02	3.2500000000E+02	0.000E+00	0.0
	25	2	5	5	0	0	8.9379717651E+01	-7.1213763817E+01	5.6623078673E+01	1.7875771537E+02	1.2525180111E+02	0.000E+00	0.0
	-5	1	9	9	0	501	1.8209945148E+01	2.3889851348E+01	-2.0918101646E+01	3.6842454807E+01	4.1800000000E+00	0.000E+00	0.0
	5	1	9	9	501	0	7.1169772502E+01	-9.5103615165E+01	7.7541180319E+01	1.4191526056E+02	4.1800000000E+00	0.000E+00	0.0
</event>
<event>
    11  -1  1.0000000E+00  1.0000000E+00  -1.0000000E+00  -1.0000000E+00
	2212	-1	0	0	0	0	0.0000000000E+00	0.0000000000E+00	6.5000000000E+03	6.5000000000E+03	9.3827000000E-01	0.000E+00	0.0
	2212	-1	0	0	0	0	0.0000000000E+00	0.0000000000E+00	-6.5000000000E+03	6.5000000000E+03	9.3827000000E-01	0.000E+00	0.0
	2212	1	0	0	0	0	0.0000000000E+00	0.0000000000E+00	6.2695332472E+03	6.2695332472E+03	9.3827000000E-01	0.000E+00	0.0
	2212	1	0	0	0	0	0.0000000000E+00	0.0000000000E+00	-5.2280646616E+03	5.2280646616E+03	9.3827000000E-01	0.000E+00	0.0
	51	2	1	2	0	0	6.5006784206E+01	8.0310589492E+01	-1.0113574860E+03	1.4852861226E+03	1.0828458933E+03	0.000E+00	0.0
	1000022	2	5	5	0	0	-6.5006784206E+01	-8.0310589492E+01	-9.1859015162E+02	1.2988183685E+03	9.1238457625E+02	0.000E+00	0.0
	14	1	6	6	0	0	-3.2564337170E+02	8.4017249079E+01	-5.1888907669E+02	6.9855091266E+02	3.2500000000E+02	0.000E+00	0.0
	-14	1	6	6	0	0	2.6063658749E+02	-1.6432783857E+02	-3.9970107493E+02	6.0026745587E+02	3.2500000000E+02	0.000E+00	0.0
	25	2	5	5	0	0	6.5006784206E+01	8.0310589492E+01	-1.2287843399E+02	2.0358372261E+02	1.2518606071E+02	0.000E+00	0.0
	-5	1	9	9	0	501	7.5011970072E+01	5.1895272889E+01	-1.4114567006E+02	1.6810558462E+02	4.1800000000E+00	0.000E+00	0.0
	5	1	9	9	501	0	-1.0005185866E+01	2.8415316603E+01	1.8267236074E+01	3.5478137996E+01	4.1800000000E+00	0.000E+00	0.0
</event>
<event>
    11  -1  1.0000000E+00  1.0000000E+00  -1.0000000E+00  -1.0000000E+00
	2212	-1	0	0	0	0	0.0000000000E+00	0.0000000000E+00	6.5000000000E+03	6.5000000000E+03	9.3827000000E-01	0.000E+00	0.0
	2212	-1	0	0	0	0	0.0000000000E+00	0.0000000000E+00	-6.5000000000E+03	6.5000000000E+03	9.3827000000E-01	0.000E+00	0.0
	2212	1	0	0	0	0	0.0000000000E+00	0.0000000000E+00	5.4889310627E+03	5.4889310627E+03	9.3827000000E-01	0.000E+00	0.0
	2212	1	0	0	0	0	0.0000000000E+00	0.0000000000E+00	-6.2279165728E+03	6.2279165728E+03	9.3827000000E-01	0.000E+00	0.0
	51	2	1	2	0	0	-1.3409433608E+02	-4.0356930129E+00	7.8778254505E+02	1.3187036523E+03	1.0489901842E+03	0.000E+00	0.0
	1000022	2	5	5	0	0	1.3409433608E+02	4.0356930129E+00	5.6506860197E+02	1.0303466667E+03	8.5106647850E+02	0.000E+00	0.0
	14	1	6	6	0	0	3.3271293568E+02	6.5742942279E+01	3.7022301477E+02	5.9808871641E+02	3.2500000000E+02	0.000E+00	0.0
	-14	1	6	6	0	0	-1.9861859960E+02	-6.1707249266E+01	1.9484558719E+02	4.3225795027E+02	3.2500000000E+02	0.000E+00	0.0
	25	2	5	5	0	0	-1.3409433608E+02	-4.0356930129E+00	1.7391690811E+02	2.5280569786E+02	1.2516410092E+02	0.000E+00	0.0
	-5	1	9	9	0	501	-1.5148885563E+01	-1.5242975016E+01	-1.6884267387E+01	2.7647566011E+01	4.1800000000E+00	0.000E+00	0.0
	5	1	9	9	501	0	-1.1894545051E+02	1.1207282004E+01	1.9080117550E+02	2.2515813185E+02	4.1800000000E+00	0.000E+00	0.0
</event>
<event>
    11  -1  1.0000000E+00  1.0000000E+00  -1.0000000E+00  -1.0000000E+00
	2212	-1	0	0	0	0	0.0000000000E+00	0.0000000000E+00	6.5000000000E+03	6.5000000000E+03	9.3827000000E-01	0.000E+00	0.0
	2212	-1	0	0	0	0	0.0000000000E+00	0.0000000000E+00	-6.5000000000E+03	6.5000000000E+03	9.3827000000E-01	0.000E+00	0.0
	2212	1	0	0	0	0	0.0000000000E+00	0.0000000000E+00	5.6967872032E+03	5.6967872032E+03	9.3827000000E-01	0.000E+00	0.0
	2212	1	0	0	0	0	0.0000000000E+00	0.0000000000E+00	-6.1654662889E+03	6.1654662889E+03	9.3827000000E-01	0.000E+00	0.0
	51	2	1	2	0	0	5.3043615240E+01	-6.3327893501E+01	3.6278812700E+02	1.1014746040E+03	1.0367290056E+03	0.000E+00	0.0
	1000022	2	5	5	0	0	-5.3043615240E+01	6.3327893501E+01	4.9677413642E+02	9.8516419334E+02	8.4672303501E+02	0.000E+00	0.0
	14	1	6	6	0	0	2.3714832370E+02	4.7364433990E+01	1.6555020591E+02	4.3762379702E+02	3.2500000000E+02	0.000E+00	0.0
	-14	1	6	6	0	0	-2.9019193894E+02	1.5963459511E+01	3.3122393051E+02	5.4754039632E+02	3.2500000000E+02	0.000E+00	0.0
	25	2	5	5	0	0	5.3043615240E+01	-6.3327893501E+01	-2.8095050812E+01	1.5258231456E+02	1.2517181641E+02	0.000E+00	0.0
	-5	1	9	9	0	501	7.3180421331E+01	-6.0223487479E+01	2.2828579913E+01	9.7574889040E+01	4.1800000000E+00	0.000E+00	0.0
	5	1	9	9	501	0	-2.0136806091E+01	-3.1044060217E+00	-5.0923630725E+01	5.5007425521E+01	4.1800000000E+00	0.000E+00	0.0
</event>
<event>
    11  -1  1.0000000E+00  1.0000000E+00  -1.0000000E+00  -1.0000000E+00
	2212	-1	0	0	0	0	0.0000000000E+00	0.0000000000E+00	6.5000000000E+03	6.5000000000E+03	9.3827000000E-01	0.000E+00	0.0
	2212	-1	0	0	0	0	0.0000000000E+00	0.0000000000E+00	-6.5000000000E+03	6.5000000000E+03	9.3827000000E-01	0.000E+00	0.0
	2212	1	0	0	0	0	0.0000000000E+00	0.0000000000E+00	5.5210610153E+03	5.5210610153E+03	9.3827000000E-01	0.000E+00	0.0
	2212	1	0	0	0	0	0.0000000000E+00	0.0000000000E+00	-6.2185515114E+03	6.2185515114E+03	9.3827000000E-01	0.000E+00	0.0
	51	2	1	2	0	0	-9.1982297715E+01	4.4093799278E+01	7.2274768617E+02	1.2786136301E+03	1.0498016912E+03	0.000E+00	0.0
	1000022	2	5	5	0	0	9.1982297715E+01	-4.4093799278E+01	5.6765590070E+02	1.0531866247E+03	8.8122859610E+02	0.000E+00	0.0
	14	1	6	6	0	0	-2.3285893055E+02	4.2015836212E+01	3.6736324452E+02	5.4458182622E+02	3.2500000000E+02	0.000E+00	0.0
	-14	1	6	6	0	0	3.2484122826E+02	-8.6109635491E+01	2.0029265618E+02	5.0860479847E+02	3.2500000000E+02	0.000E+00	0.0
	25	2	5	5	0	0	-9.1982297715E+01	4.4093799278E+01	1.2983459539E+02	2.0720084868E+02	1.2518052286E+02	0.000E+00	0.0
	-5	1	9	9	0	501	4.8408974203E+00	2.8821835937E+01	1.0057911601E+02	1.0482253332E+02	4.1800000000E+00	0.000E+00	0.0
	5	1	9	9	501	0	-9.6823195135E+01	1.5271963342E+01	2.9255479384E+01	1.0237831535E+02	4.1800000000E+00	0.000E+00	0.0
</event>
<event>
    11  -1  1.0000000E+00  1.0000000E+00  -1.0000000E+00  -1.0000000E+00
	2212	-1	0	0	0	0	0.0000000000E+00	0.0000000000E+00	6.5000000000E+03	6.5000000000E+03	9.3827000000E-01	0.000E+00	0.0
	2212	-1	0	0	0	0	0.0000000000E+00	0.0000000000E+00	-6.5000000000E+03	6.5000000000E+03	9.3827000000E-01	0.000E+00	0.0
	2212	1	0	0	0	0	0.0000000000E+00	0.0000000000E+00	5.0991826763E+03	5.0991826763E+03	9.3827000000E-01	0.000E+00	0.0
	2212	1	0	0	0	0	0.0000000000E+00	0.0000000000E+00	-6.3054863708E+03	6.3054863708E+03	9.3827000000E-01	0.000E+00	0.0
	51	2	1	2	0	0	7.4863991819E+01	1.1001791442E+02	1.1750849310E+03	1.5774807130E+03	1.0439886235E+03	0.000E+00	0.0
	1000022	2	5	5	0	0	-7.4863991819E+01	-1.1001791442E+02	1.0342912129E+03	1.3444088286E+03	8.4850941461E+02	0.000E+00	0.0
	14	1	6	6	0	0	-1.3507173669E+02	-7.2166508954E+01	1.3202981122E+02	3.8276526765E+02	3.2500000000E+02	0.000E+00	0.0
	-14	1	6	6	0	0	6.0207744867E+01	-3.7851405464E+01	9.0226140168E+02	9.6164356099E+02	3.2500000000E+02	0.000E+00	0.0
	25	2	5	5	0	0	7.4863991819E+01	1.1001791442E+02	1.7201248162E+02	2.5092212427E+02	1.2516013682E+02	0.000E+00	0.0
	-5	1	9	9	0	501	7.3749998878E+01	7.7947085547E+01	1.8670180509E+02	2.1538302371E+02	4.1800000000E+00	0.000E+00	0.0
	5	1	9	9	501	0	1.1139929410E+00	3.2070828871E+01	-1.4689323463E+01	3.5539100559E+01	4.1800000000E+00	0.000E+00	0.0
</event>
<event>
    11  -1  1.0000000E+00  1.0000000E+00  -1.0000000E+00  -1.0000000E+00
	2212	-1	0	0	0	0	0.0000000000E+00	0.0000000000E+00	6.5000000000E+03	6.5000000000E+03	9.3827000000E-01	0.000E+00	0.0
	2212	-1	0	0	0	0	0.0000000000E+00	0.0000000000E+00	-6.5000000000E+03	6.5000000000E+03	9.3827000000E-01	0.000E+00	0.0
	2212	1	0	0	0	0	0.0000000000E+00	0.0000000000E+00	5.9768007701E+03	5.9768007701E+03	9.3827000000E-01	0.000E+00	0.0
	2212	1	0	0	0	0	0.0000000000E+00	0.0000000000E+00	-6.0062346654E+03	6.0062346654E+03	9.3827000000E-01	0.000E+00	0.0
	51	2	1	2	0	0	-1.9892721886E+01	9.3629433752E+01	-4.9438326350E+00	1.0210471115E+03	1.0165385242E+03	0.000E+00	0.0
	1000022	2	5	5	0	0	1.9892721886E+01	-9.3629433752E+01	5.9287864136E+01	8.5658252727E+02	8.4915038948E+02	0.000E+00	0.0
	14	1	6	6	0	0	2.2646443622E+02	1.0927279485E+02	-3.0843951356E+01	4.1207163686E+02	3.2500000000E+02	0.000E+00	0.0
	-14	1	6	6	0	0	-2.0657171433E+02	-2.0290222860E+02	9.0131815493E+01	4.4451089042E+02	3.2500000000E+02	0.000E+00	0.0
	25	2	5	5	0	0	-1.9892721886E+01	9.3629433752E+01	-2.9853968768E+01	1.6038203722E+02	1.2517566522E+02	0.000E+00	0.0
	-5	1	9	9	0	501	-4.0809096483E+01	6.0879487049E+01	-7.2053925086E+01	1.0286367104E+02	4.1800000000E+00	0.000E+00	0.0
	5	1	9	9	501	0	2.0916374597E+01	3.2749946703E+01	4.2199956318E+01	5.7518366185E+01	4.1800000000E+00	0.000E+00	0.0
</event>
<event>
    11  -1  1.0000000E+00  1.0000000E+00  -1.0000000E+00  -1.0000000E+00
	2212	-1	0	0	0	0	0.0000000000E+00	0.0000000000E+00	6.5000000000E+03	6.5000000000E+03	9.3827000000E-01	0.000E+00	0.0
	2212	-1	0	0	0	0	0.0000000000E+00	0.0000000000E+00	-6.5000000000E+03	6.5000000000E+03	9.3827000000E-01	0.000E+00	0.0
	2212	1	0	0	0	0	0.0000000000E+00	0.0000000000E+00	6.2356148750E+03	6.2356148750E+03	9.3827000000E-01	0.000E+00	0.0
	2212	1	0	0	0	0	0.0000000000E+00	0.0000000000E+00	-5.4694859748E+03	5.4694859748E+03	9.3827000000E-01	0.000E+00	0.0
	51	2	1	2	0	0	-1.0393953992E+02	8.3399562850E+01	-8.1106047101E+02	1.3286791638E+03	1.0439398055E+03	0.000E+00	0.0
	1000022	2	5	5	0	0	1.0393953992E+02	-8.3399562850E+01	-5.9166267713E+02	1.0421816823E+03	8.4753703182E+02	0.000E+00	0.0
	14	1	6	6	0	0	2.1255127510E+02	-2.3753821677E+02	-1.9326362840E+02	4.9454856085E+02	3.2500000000E+02	0.000E+00	0.0
	-14	1	6	6	0	0	-1.0861173518E+02	1.5413865392E+02	-3.9839904873E+02	5.4763312142E+02	3.2500000000E+02	0.000E+00	0.0
	25	2	5	5	0	0	-1.0393953992E+02	8.3399562850E+01	-1.7446622310E+02	2.5271746799E+02	1.2517484005E+02	0.000E+00	0.0
	-5	1	9	9	0	501	2.2316681712E+01	1.0720438351E+00	-5.7674368469E+01	6.1991844132E+01	4.1800000000E+00	0.000E+00	0.0
	5	1	9	9	501	0	-1.2625622163E+02	8.2327519015E+01	-1.1679185463E+02	1.9072562386E+02	4.1800000000E+00	0.000E+00	0.0
</event>
<event>
    11  -1  1.0000000E+00  1.0000000E+00  -1.0000000E+00  -1.0000000E+00
	2212	-1	0	0	0	0	0.0000000000E+00	0.0000000000E+00	6.5000000000E+03	6.5000000000E+03	9.3827000000E-01	0.000E+00	0.0
	2212	-1	0	0	0	0	0.0000000000E+00	0.0000000000E+00	-6.5000000000E+03	6.5000000000E+03	9.3827000000E-01	0.000E+00	0.0
	2212	1	0	0	0	0	0.0000000000E+00	0.0000000000E+00	5.6646973328E+03	5.6646973328E+03	9.3827000000E-01	0.000E+00	0.0
	2212	1	0	0	0	0	0.0000000000E+00	0.0000000000E+00	-6.1739927114E+03	6.1739927114E+03	9.3827000000E-01	0.000E+00	0.0
	51	2	1	2	0	0	1.1714975556E+02	3.8858918694E+00	4.7802639711E+02	1.1539096292E+03	1.0436757306E+03	0.000E+00	0.0
	1000022	2	5	5	0	0	-1.1714975556E+02	-3.8858918694E+00	4.5893753785E+02	9.8258245695E+02	8.6087481998E+02	0.000E+00	0.0
	14	1	6	6	0	0	1.2206775402E+02	1.5377877587E+02	4.3240832895E+01	3.8215601279E+02	3.2500000000E+02	0.000E+00	0.0
	-14	1	6	6	0	0	-2.3921750958E+02	-1.5766466774E+02	4.1569670496E+02	6.0042644417E+02	3.2500000000E+02	0.000E+00	0.0
	25	2	5	5	0	0	1.1714975556E+02	3.8858918694E+00	5.0357840729E+01	1.7872749882E+02	1.2517364470E+02	0.000E+00	0.0
	-5	1	9	9	0	501	-2.0402504450E+01	1.0529808533E+01	3.2189109328E+01	3.9758649561E+01	4.1800000000E+00	0.000E+00	0.0
	5	1	9	9	501	0	1.3755226001E+02	-6.6439166633E+00	1.8168731401E+01	1.3896884926E+02	4.1800000000E+00	0.000E+00	0.0
</event>
<event>
    11  -1  1.0000000E+00  1.0000000E+00  -1.0000000E+00  -1.0000000E+00
	2212	-1	0	0	0	0	0.0000000000E+00	0.0000000000E+00	6.5000000000E+03	6.5000000000E+03	9.3827000000E-01	0.000E+00	0.0
	2212	-1	0	0	0	0	0.0000000000E+00	0.0000000000E+00	-6.5000000000E+03	6.5000000000E+03	9.3827000000E-01	0.000E+00	0.0
	2212	1	0	0	0	0	0.0000000000E+00	0.0000000000E+00	5.1555838767E+03	5.1555838767E+03	9.3827000000E-01	0.000E+00	0.0
	2212	1	0	0	0	0	0.0000000000E+00	0.0000000000E+00	-6.3025726947E+03	6.3025726947E+03	9.3827000000E-01	0.000E+00	0.0
	51	2	1	2	0	0	-2.1141476550E+01	1.3441087550E+01	1.3295734805E+03	1.6822874531E+03	1.0303872136E+03	0.000E+00	0.0
	1000022	2	5	5	0	0	2.1141476550E+01	-1.3441087550E+01	7.7942779092E+02	1.1527443279E+03	8.4893119824E+02	0.000E+00	0.0
	14	1	6	6	0	0	1.2337527154E+02	3.9900399566E+00	5.4955723955E+01	3.5196947260E+02	3.2500000000E+02	0.000E+00	0.0
	-14	1	6	6	0	0	-1.0223379499E+02	-1.7431127507E+01	7.2447206696E+02	8.0077485528E+02	3.2500000000E+02	0.000E+00	0.0
	25	2	5	5	0	0	-2.1141476550E+01	1.3441087550E+01	3.6756102704E+02	3.8909910074E+02	1.2517738108E+02	0.000E+00	0.0
	-5	1	9	9	0	501	-2.3764707262E+00	5.5135748230E+01	3.1270213257E+02	3.1756211118E+02	4.1800000000E+00	0.000E+00	0.0
	5	1	9	9	501	0	-1.8765005824E+01	-4.1694660679E+01	5.4858894474E+01	7.1536989563E+01	4.1800000000E+00	0.000E+00	0.0
</event>
<event>
    11  -1  1.0000000E+00  1.0000000E+00  -1.0000000E+00  -1.0000000E+00
	2212	-1	0	0	0	0	0.0000000000E+00	0.0000000000E+00	6.5000000000E+03	6.5000000000E+03	9.3827000000E-01	0.000E+00	0.0
	2212	-1	0	0	0	0	0.0000000000E+00	0.0000000000E+00	-6.5000000000E+03	6.5000000000E+03	9.3827000000E-01	0.000E+00	0.0
	2212	1	0	0	0	0	0.0000000000E+00	0.0000000000E+00	6.1400163721E+03	6.1400163721E+03	9.3827000000E-01	0.000E+00	0.0
	2212	1	0	0	0	0	0.0000000000E+00	0.0000000000E+00	-5.7293217106E+03	5.7293217106E+03	9.3827000000E-01	0.000E+00	0.0
	51	2	1	2	0	0	-1.1441519932E+02	3.5906814491E+02	-6.0289945113E+02	1.2709188742E+03	1.0534354590E+03	0.000E+00	0.0
	1000022	2	5	5	0	0	1.1441519932E+02	-3.5906814491E+02	-8.2250599881E+01	6.1533177090E+02	4.7942387985E+02	0.000E+00	0.0
	14	1	6	6	0	0	0.0000000000E+00	0.0000000000E+00	0.0000000000E+00	0.0000000000E+00	0.0000000000E+00	0.000E+00	0.0
	-14	1	6	6	0	0	0.0000000000E+00	0.0000000000E+00	0.0000000000E+00	0.0000000000E+00	0.0000000000E+00	0.000E+00	0.0
	25	2	5	5	0	0	-1.1441519932E+02	3.5906814491E+02	-3.2844406167E+02	5.1533014639E+02	1.2517542732E+02	0.000E+00	0.0
	-5	1	9	9	0	501	-3.4160387582E+01	1.2898483736E+02	-4.3563331774E+01	1.4042527060E+02	4.1800000000E+00	0.000E+00	0.0
	5	1	9	9	501	0	-8.0254811743E+01	2.3008330755E+02	-2.8488072989E+02	3.7490487578E+02	4.1800000000E+00	0.000E+00	0.0
</event>
<event>
    11  -1  1.0000000E+00  1.0000000E+00  -1.0000000E+00  -1.0000000E+00
	2212	-1	0	0	0	0	0.0000000000E+00	0.0000000000E+00	6.5000000000E+03	6.5000000000E+03	9.3827000000E-01	0.000E+00	0.0
	2212	-1	0	0	0	0	0.0000000000E+00	0.0000000000E+00	-6.5000000000E+03	6.5000000000E+03	9.3827000000E-01	0.000E+00	0.0
	2212	1	0	0	0	0	0.0000000000E+00	0.0000000000E+00	5.9931148018E+03	5.9931148018E+03	9.3827000000E-01	0.000E+00	0.0
	2212	1	0	0	0	0	0.0000000000E+00	0.0000000000E+00	-5.9718399494E+03	5.9718399494E+03	9.3827000000E-01	0.000E+00	0.0
	51	2	1	2	0	0	-1.1223818535E+02	-4.6656737333E+01	3.8585958709E+01	1.0426548736E+03	1.0348265786E+03	0.000E+00	0.0
	1000022	2	5	5	0	0	1.1223818535E+02	4.6656737333E+01	-7.7523839997E+01	8.5171639607E+02	8.3942635899E+02	0.000E+00	0.0
	14	1	6	6	0	0	-7.7703276207E+00	2.5849996547E+02	-1.4528466831E+02	4.4001732351E+02	3.2500000000E+02	0.000E+00	0.0
	-14	1	6	6	0	0	1.2000851297E+02	-2.1184322814E+02	6.7760828317E+01	4.1169907256E+02	3.2500000000E+02	0.000E+00	0.0
	25	2	5	5	0	0	-1.1223818535E+02	-4.6656737333E+01	5.6248987664E+01	1.8332885276E+02	1.2518489626E+02	0.000E+00	0.0
	-5	1	9	9	0	501	-1.0876787086E+01	-1.3181228857E+01	7.3093529691E+01	7.5181020040E+01	4.1800000000E+00	0.000E+00	0.0
	5	1	9	9	501	0	-1.0136139827E+02	-3.3475508476E+01	-1.6844542028E+01	1.0814783272E+02	4.1800000000E+00	0.000E+00	0.0
</event>
<event>
    11  -1  1.0000000E+00  1.0000000E+00  -1.0000000E+00  -1.0000000E+00
	2212	-1	0	0	0	0	0.0000000000E+00	0.0000000000E+00	6.5000000000E+03	6.5000000000E+03	9.3827000000E-01	0.000E+00	0.0
	2212	-1	0	0	0	0	0.0000000000E+00	0.0000000000E+00	-6.5000000000E+03	6.5000000000E+03	9.3827000000E-01	0.000E+00	0.0
	2212	1	0	0	0	0	0.0000000000E+00	0.0000000000E+00	5.8383462424E+03	5.8383462424E+03	9.3827000000E-01	0.000E+00	0.0
	2212	1	0	0	0	0	0.0000000000E+00	0.0000000000E+00	-6.1322030369E+03	6.1322030369E+03	9.3827000000E-01	0.000E+00	0.0
	51	2	1	2	0	0	3.8704720021E+01	-1.1672729346E+01	2.5810294705E+02	1.0206215802E+03	9.8661895922E+02	0.000E+00	0.0
	1000022	2	5	5	0	0	-3.8704720021E+01	1.1672729346E+01	2.8951787667E+02	8.9782530363E+02	8.4890244844E+02	0.000E+00	0.0
	14	1	6	6	0	0	1.9285914030E+02	8.9629306859E+01	-1.6787102323E+01	3.8876068146E+02	3.2500000000E+02	0.000E+00	0.0
	-14	1	6	6	0	0	-2.3156386032E+02	-7.7956577513E+01	3.0630497900E+02	5.0906462217E+02	3.2500000000E+02	0.000E+00	0.0
	25	2	5	5	0	0	3.8704720021E+01	-1.1672729346E+01	4.3389178060E+00	1.3162541707E+02	1.2518832314E+02	0.000E+00	0.0
	-5	1	9	9	0	501	3.5650190708E+01	-6.6908511919E+01	-5.7015231893E-01	7.5930774646E+01	4.1800000000E+00	0.000E+00	0.0
	5	1	9	9	501	0	3.0545293136E+00	5.5235782573E+01	4.9090701249E+00	5.5694642429E+01	4.1800000000E+00	0.000E+00	0.0
</event>
<event>
    11  -1  1.0000000E+00  1.0000000E+00  -1.0000000E+00  -1.0000000E+00
	2212	-1	0	0	0	0	0.0000000000E+00	0.0000000000E+00	6.5000000000E+03	6.5000000000E+03	9.3827000000E-01	0.000E+00	0.0
	2212	-1	0	0	0	0	0.0000000000E+00	0.0000000000E+00	-6.5000000000E+03	6.5000000000E+03	9.3827000000E-01	0.000E+00	0.0
	2212	1	0	0	0	0	0.0000000000E+00	0.0000000000E+00	6.0840835615E+03	6.0840835615E+03	9.3827000000E-01	0.000E+00	0.0
	2212	1	0	0	0	0	0.0000000000E+00	0.0000000000E+00	-5.8403774644E+03	5.8403774644E+03	9.3827000000E-01	0.000E+00	0.0
	51	2	1	2	0	0	5.0625404475E+01	4.9421940978E+01	-1.6934086649E+02	1.0635192579E+03	1.0475645197E+03	0.000E+00	0.0
	1000022	2	5	5	0	0	-5.0625404475E+01	-4.9421940978E+01	-2.8165080779E+02	9.2682537601E+02	8.8015489561E+02	0.000E+00	0.0
	14	1	6	6	0	0	1.9332483885E+01	2.5511435763E+02	-4.0663545418E+01	4.1561473064E+02	3.2500000000E+02	0.000E+00	0.0
	-14	1	6	6	0	0	-6.9957888360E+01	-3.0453629861E+02	-2.4098726237E+02	5.1121064537E+02	3.2500000000E+02	0.000E+00	0.0
	25	2	5	5	0	0	5.0625404475E+01	4.9421940978E+01	3.7944710660E+01	1.4871359805E+02	1.2518176125E+02	0.000E+00	0.0
	-5	1	9	9	0	501	-3.0852841118E+01	-1.5466952870E+01	-6.5405651598E+00	3.5374790865E+01	4.1800000000E+00	0.000E+00	0.0
	5	1	9	9	501	0	8.1478245593E+01	6.4888893849E+01	4.4485275820E+01	1.1333880719E+02	4.1800000000E+00	0.000E+00	0.0
</event>
<event>
    11  -1  1.0000000E+00  1.0000000E+00  -1.0000000E+00  -1.0000000E+00
	2212	-1	0	0	0	0	0.0000000000E+00	0.0000000000E+00	6.5000000000E+03	6.5000000000E+03	9.3827000000E-01	0.000E+00	0.0
	2212	-1	0	0	0	0	0.0000000000E+00	0.0000000000E+00	-6.5000000000E+03	6.5000000000E+03	9.3827000000E-01	0.000E+00	0.0
	2212	1	0	0	0	0	0.0000000000E+00	0.0000000000E+00	6.2417632705E+03	6.2417632705E+03	9.3827000000E-01	0.000E+00	0.0
	2212	1	0	0	0	0	0.0000000000E+00	0.0000000000E+00	-5.4370310605E+03	5.4370310605E+03	9.3827000000E-01	0.000E+00	0.0
	51	2	1	2	0	0	-4.0157233397E+01	1.2624754909E+02	-8.1506275157E+02	1.3341172461E+03	1.0478504140E+03	0.000E+00	0.0
	1000022	2	5	5	0	0	4.0157233397E+01	-1.2624754909E+02	-6.6080770595E+02	1.0889601343E+03	8.5534572121E+02	0.000E+00	0.0
	14	1	6	6	0	0	2.9466669176E+02	-9.6301287201E+01	-3.0231165889E+02	5.4140533453E+02	3.2500000000E+02	0.000E+00	0.0
	-14	1	6	6	0	0	-2.5450945836E+02	-2.9946261887E+01	-3.5849604706E+02	5.4755479977E+02	3.2500000000E+02	0.000E+00	0.0
	25	2	5	5	0	0	-4.0157233397E+01	1.2624754909E+02	-1.4392450405E+02	2.3224553478E+02	1.2519056879E+02	0.000E+00	0.0
	-5	1	9	9	0	501	-4.3144244773E+01	1.4963309368E+02	-1.0993280210E+02	1.9066772658E+02	4.1800000000E+00	0.000E+00	0.0
	5	1	9	9	501	0	2.9870113755E+00	-2.3385544597E+01	-3.3991701952E+01	4.1577808199E+01	4.1800000000E+00	0.000E+00	0.0
</event>
<event>
    11  -1  1.0000000E+00  1.0000000E+00  -1.0000000E+00  -1.0000000E+00
	2212	-1	0	0	0	0	0.0000000000E+00	0.0000000000E+00	6.5000000000E+03	6.5000000000E+03	9.3827000000E-01	0.000E+00	0.0
	2212	-1	0	0	0	0	0.0000000000E+00	0.0000000000E+00	-6.5000000000E+03	6.5000000000E+03	9.3827000000E-01	0.000E+00	0.0
	2212	1	0	0	0	0	0.0000000000E+00	0.0000000000E+00	6.3295958427E+03	6.3295958427E+03	9.3827000000E-01	0.000E+00	0.0
	2212	1	0	0	0	0	0.0000000000E+00	0.0000000000E+00	-4.9585960140E+03	4.9585960140E+03	9.3827000000E-01	0.000E+00	0.0
	51	2	1	2	0	0	8.3378401059E+01	6.9679547117E+01	-1.3919037190E+03	1.7320074334E+03	1.0250105313E+03	0.000E+00	0.0
	1000022	2	5	5	0	0	-8.3378401059E+01	-6.9679547117E+01	-1.1358605356E+03	1.4241180050E+03	8.5213011856E+02	0.000E+00	0.0
	14	1	6	6	0	0	1.1893492531E+02	-1.3808453054E+02	-8.8786998407E+02	9.6288678599E+02	3.2500000000E+02	0.000E+00	0.0
	-14	1	6	6	0	0	-2.0231332637E+02	6.8404983424E+01	-2.4799055150E+02	4.6123121904E+02	3.2500000000E+02	0.000E+00	0.0
	25	2	5	5	0	0	8.3378401059E+01	6.9679547117E+01	-2.3513929311E+02	2.8769013830E+02	1.2517160804E+02	0.000E+00	0.0
	-5	1	9	9	0	501	7.0736000351E+01	-1.4162528317E+01	-1.5468002549E+02	1.7072651124E+02	4.1800000000E+00	0.000E+00	0.0
	5	1	9	9	501	0	1.2642400707E+01	8.3842075434E+01	-8.0459267617E+01	1.1696362706E+02	4.1800000000E+00	0.000E+00	0.0
</event>
<event>
    11  -1  1.0000000E+00  1.0000000E+00  -1.0000000E+00  -1.0000000E+00
	2212	-1	0	0	0	0	0.0000000000E+00	0.0000000000E+00	6.5000000000E+03	6.5000000000E+03	9.3827000000E-01	0.000E+00	0.0
	2212	-1	0	0	0	0	0.0000000000E+00	0.0000000000E+00	-6.5000000000E+03	6.5000000000E+03	9.3827000000E-01	0.000E+00	0.0
	2212	1	0	0	0	0	0.0000000000E+00	0.0000000000E+00	6.2804232261E+03	6.2804232261E+03	9.3827000000E-01	0.000E+00	0.0
	2212	1	0	0	0	0	0.0000000000E+00	0.0000000000E+00	-5.2779800363E+03	5.2779800363E+03	9.3827000000E-01	0.000E+00	0.0
	51	2	1	2	0	0	3.5658355339E+01	4.3602538948E+01	-1.1586152671E+03	1.5552719512E+03	1.0360061801E+03	0.000E+00	0.0
	1000022	2	5	5	0	0	-3.5658355339E+01	-4.3602538948E+01	-6.8453294151E+02	1.0953285733E+03	8.5322132873E+02	0.000E+00	0.0
	14	1	6	6	0	0	8.7611556598E+01	1.6640124456E+02	-1.0908410170E+02	3.9101086978E+02	3.2500000000E+02	0.000E+00	0.0
	-14	1	6	6	0	0	-1.2326991194E+02	-2.1000378351E+02	-5.7544883981E+02	7.0431770353E+02	3.2500000000E+02	0.000E+00	0.0
	25	2	5	5	0	0	3.5658355339E+01	4.3602538948E+01	-3.1791024823E+02	3.4626816430E+02	1.2514797629E+02	0.000E+00	0.0
	-5	1	9	9	0	501	5.5310754755E+01	-1.1211414511E-01	-2.7880472055E+02	2.8426895146E+02	4.1800000000E+00	0.000E+00	0.0
	5	1	9	9	501	0	-1.9652399416E+01	4.3714653093E+01	-3.9105527676E+01	6.1999212839E+01	4.1800000000E+00	0.000E+00	0.0
</event>
<event>
    11  -1  1.0000000E+00  1.0000000E+00  -1.0000000E+00  -1.0000000E+00
	2212	-1	0	0	0	0	0.0000000000E+00	0.0000000000E+00	6.5000000000E+03	6.5000000000E+03	9.3827000000E-01	0.000E+00	0.0
	2212	-1	0	0	0	0	0.0000000000E+00	0.0000000000E+00	-6.5000000000E+03	6.5000000000E+03	9.3827000000E-01	0.000E+00	0.0
	2212	1	0	0	0	0	0.0000000000E+00	0.0000000000E+00	6.0927932930E+03	6.0927932930E+03	9.3827000000E-01	0.000E+00	0.0
	2212	1	0	0	0	0	0.0000000000E+00	0.0000000000E+00	-5.8300593579E+03	5.8300593579E+03	9.3827000000E-01	0.000E+00	0.0
	51	2	1	2	0	0	-9.4488338814E+01	-6.1442615478E+01	-3.4466950940E+02	1.1057656184E+03	1.0446134649E+03	0.000E+00	0.0
	1000022	2	5	5	0	0	9.4488338814E+01	6.1442615478E+01	-1.3642223813E+02	8.6659741201E+02	8.4833767232E+02	0.000E+00	0.0
	14	1	6	6	0	0	-3.1767063461E+01	1.5490813469E+02	-3.0054869188E+02	4.7006403043E+02	3.2500000000E+02	0.000E+00	0.0
	-14	1	6	6	0	0	1.2625540227E+02	-9.3465519210E+01	1.6412645375E+02	3.9653338158E+02	3.2500000000E+02	0.000E+00	0.0
	25	2	5	5	0	0	-9.4488338814E+01	-6.1442615478E+01	-1.2631169702E+02	2.1054993708E+02	1.2519341050E+02	0.000E+00	0.0
	-5	1	9	9	0	501	-1.2097263833E+02	-6.9381676671E+01	-9.6279820045E+01	1.6951540470E+02	4.1800000000E+00	0.000E+00	0.0
	5	1	9	9	501	0	2.6484299515E+01	7.9390611933E+00	-3.0031876973E+01	4.1034532383E+01	4.1800000000E+00	0.000E+00	0.0
</event>
<event>
    11  -1  1.0000000E+00  1.0000000E+00  -1.0000000E+00  -1.0000000E+00
	2212	-1	0	0	0	0	0.0000000000E+00	0.0000000000E+00	6.5000000000E+03	6.5000000000E+03	9.3827000000E-01	0.000E+00	0.0
	2212	-1	0	0	0	0	0.0000000000E+00	0.0000000000E+00	-6.5000000000E+03	6.5000000000E+03	9.3827000000E-01	0.000E+00	0.0
	2212	1	0	0	0	0	0.0000000000E+00	0.0000000000E+00	5.6106136806E+03	5.6106136806E+03	9.3827000000E-01	0.000E+00	0.0
	2212	1	0	0	0	0	0.0000000000E+00	0.0000000000E+00	-6.1679921688E+03	6.1679921688E+03	9.3827000000E-01	0.000E+00	0.0
	51	2	1	2	0	0	1.4163662351E+01	1.8780510981E+02	5.2288409638E+02	1.2206604929E+03	1.0867993799E+03	0.000E+00	0.0
	1000022	2	5	5	0	0	-1.4163662351E+01	-1.8780510981E+02	4.8288237616E+02	9.8329483117E+02	8.3559677309E+02	0.000E+00	0.0
	14	1	6	6	0	0	6.9862046051E+01	3.3395370487E+00	-3.8216661596E+01	3.3463020068E+02	3.2500000000E+02	0.000E+00	0.0
	-14	1	6	6	0	0	-8.4025708401E+01	-1.9114464686E+02	5.2109903775E+02	6.4866463049E+02	3.2500000000E+02	0.000E+00	0.0
	25	2	5	5	0	0	1.4163662351E+01	1.8780510981E+02	7.4496111968E+01	2.3809931945E+02	1.2518085566E+02	0.000E+00	0.0
	-5	1	9	9	0	501	-2.9048120805E+01	1.1410231549E+02	9.3578986541E+01	1.5045807006E+02	4.1800000000E+00	0.000E+00	0.0
	5	1	9	9	501	0	4.3211783156E+01	7.3702794317E+01	-1.9082874573E+01	8.7641249395E+01	4.1800000000E+00	0.000E+00	0.0
</event>
<event>
    11  -1  1.0000000E+00  1.0000000E+00  -1.0000000E+00  -1.0000000E+00
	2212	-1	0	0	0	0	0.0000000000E+00	0.0000000000E+00	6.5000000000E+03	6.5000000000E+03	9.3827000000E-01	0.000E+00	0.0
	2212	-1	0	0	0	0	0.0000000000E+00	0.0000000000E+00	-6.5000000000E+03	6.5000000000E+03	9.3827000000E-01	0.000E+00	0.0
	2212	1	0	0	0	0	0.0000000000E+00	0.0000000000E+00	5.7335183322E+03	5.7335183322E+03	9.3827000000E-01	0.000E+00	0.0
	2212	1	0	0	0	0	0.0000000000E+00	0.0000000000E+00	-6.1392079911E+03	6.1392079911E+03	9.3827000000E-01	0.000E+00	0.0
	51	2	1	2	0	0	-6.7229675356E+01	-1.2337024413E+02	4.4348510766E+02	1.1500351864E+03	1.0517422892E+03	0.000E+00	0.0
	1000022	2	5	5	0	0	6.7229675356E+01	1.2337024413E+02	2.9807060663E+02	9.1049610474E+02	8.4877383550E+02	0.000E+00	0.0
	14	1	6	6	0	0	1.0840287923E+02	2.9422359244E+02	2.9792799415E+02	5.4102199241E+02	3.2500000000E+02	0.000E+00	0.0
	-14	1	6	6	0	0	-4.1173203874E+01	-1.7085334830E+02	1.4261247633E-01	3.6947411233E+02	3.2500000000E+02	0.000E+00	0.0
	25	2	5	5	0	0	-6.7229675356E+01	-1.2337024413E+02	1.0761905220E+02	2.1677757194E+02	1.2518230272E+02	0.000E+00	0.0
	-5	1	9	9	0	501	2.8457010776E+01	-6.5456503266E+01	1.8896276426E+01	7.3951990811E+01	4.1800000000E+00	0.000E+00	0.0
	5	1	9	9	501	0	-9.5686686132E+01	-5.7913740868E+01	8.8722775776E+01	1.4282558113E+02	4.1800000000E+00	0.000E+00	0.0
</event>
<event>
    11  -1  1.0000000E+00  1.0000000E+00  -1.0000000E+00  -1.0000000E+00
	2212	-1	0	0	0	0	0.0000000000E+00	0.0000000000E+00	6.5000000000E+03	6.5000000000E+03	9.3827000000E-01	0.000E+00	0.0
	2212	-1	0	0	0	0	0.0000000000E+00	0.0000000000E+00	-6.5000000000E+03	6.5000000000E+03	9.3827000000E-01	0.000E+00	0.0
	2212	1	0	0	0	0	0.0000000000E+00	0.0000000000E+00	5.0415080190E+03	5.0415080190E+03	9.3827000000E-01	0.000E+00	0.0
	2212	1	0	0	0	0	0.0000000000E+00	0.0000000000E+00	-6.3142479563E+03	6.3142479563E+03	9.3827000000E-01	0.000E+00	0.0
	51	2	1	2	0	0	8.3559927897E+01	8.3322430554E+01	1.2455586080E+03	1.6275787537E+03	1.0409954200E+03	0.000E+00	0.0
	1000022	2	5	5	0	0	-8.3559927897E+01	-8.3322430554E+01	1.0962386716E+03	1.3977731435E+03	8.5913075054E+02	0.000E+00	0.0
	14	1	6	6	0	0	2.2249307429E+01	1.2671244004E+02	8.6912503119E+02	9.3677873267E+02	3.2500000000E+02	0.000E+00	0.0
	-14	1	6	6	0	0	-1.0580923533E+02	-2.1003487059E+02	2.2711364045E+02	4.6099441084E+02	3.2500000000E+02	0.000E+00	0.0
	25	2	5	5	0	0	8.3559927897E+01	8.3322430554E+01	1.7650126565E+02	2.4647088110E+02	1.2518110667E+02	0.000E+00	0.0
	-5	1	9	9	0	501	3.6498564487E+01	1.1044072963E+02	1.0643375235E+02	1.5771783669E+02	4.1800000000E+00	0.000E+00	0.0
	5	1	9	9	501	0	4.7061363410E+01	-2.7118299078E+01	7.0067513300E+01	8.8753044404E+01	4.1800000000E+00	0.000E+00	0.0
</event>
<event>
    11  -1  1.0000000E+00  1.0000000E+00  -1.0000000E+00  -1.0000000E+00
	2212	-1	0	0	0	0	0.0000000000E+00	0.0000000000E+00	6.5000000000E+03	6.5000000000E+03	9.3827000000E-01	0.000E+00	0.0
	2212	-1	0	0	0	0	0.0000000000E+00	0.0000000000E+00	-6.5000000000E+03	6.5000000000E+03	9.3827000000E-01	0.000E+00	0.0
	2212	1	0	0	0	0	0.0000000000E+00	0.0000000000E+00	6.0506717106E+03	6.0506717106E+03	9.3827000000E-01	0.000E+00	0.0
	2212	1	0	0	0	0	0.0000000000E+00	0.0000000000E+00	-5.8891683104E+03	5.8891683104E+03	9.3827000000E-01	0.000E+00	0.0
	51	2	1	2	0	0	-1.2357311988E+02	5.9886701500E+01	-1.5835328641E+02	1.0685449588E+03	1.0477861579E+03	0.000E+00	0.0
	1000022	2	5	5	0	0	1.2357311988E+02	-5.9886701500E+01	-1.3738727672E+02	8.7279069620E+02	8.5090046574E+02	0.000E+00	0.0
	14	1	6	6	0	0	-2.0510950845E+02	-7.7883356883E+01	-1.1924638412E+02	4.0985415438E+02	3.2500000000E+02	0.000E+00	0.0
	-14	1	6	6	0	0	3.2868262833E+02	1.7996655383E+01	-1.8140892601E+01	4.6293654182E+02	3.2500000000E+02	0.000E+00	0.0
	25	2	5	5	0	0	-1.2357311988E+02	5.9886701500E+01	-2.4116123468E+01	1.8736928279E+02	1.2517558767E+02	0.000E+00	0.0
	-5	1	9	9	0	501	-1.3169766367E+02	8.4807674298E+01	-9.3049887448E+00	1.5697347372E+02	4.1800000000E+00	0.000E+00	0.0
	5	1	9	9	501	0	8.1245437913E+00	-2.4920972798E+01	-1.4811134723E+01	3.0395809067E+01	4.1800000000E+00	0.000E+00	0.0
</event>
<event>
    11  -1  1.0000000E+00  1.0000000E+00  -1.0000000E+00  -1.0000000E+00
	2212	-1	0	0	0	0	0.0000000000E+00	0.0000000000E+00	6.5000000000E+03	6.5000000000E+03	9.3827000000E-01	0.000E+00	0.0
	2212	-1	0	0	0	0	0.0000000000E+00	0.0000000000E+00	-6.5000000000E+03	6.5000000000E+03	9.3827000000E-01	0.000E+00	0.0
	2212	1	0	0	0	0	0.0000000000E+00	0.0000000000E+00	5.3018219893E+03	5.3018219893E+03	9.3827000000E-01	0.000E+00	0.0
	2212	1	0	0	0	0	0.0000000000E+00	0.0000000000E+00	-6.2655610496E+03	6.2655610496E+03	9.3827000000E-01	0.000E+00	0.0
	51	2	1	2	0	0	-8.5805792225E+01	7.2610800737E+01	1.1266310918E+03	1.5509774209E+03	1.0599992362E+03	0.000E+00	0.0
	1000022	2	5	5	0	0	8.5805792225E+01	-7.2610800737E+01	6.2760582408E+02	1.0567300622E+03	8.4270658693E+02	0.000E+00	0.0
	14	1	6	6	0	0	1.5166873198E+02	4.8028742710E+01	6.0270213401E+02	7.0298294910E+02	3.2500000000E+02	0.000E+00	0.0
	-14	1	6	6	0	0	-6.5862939750E+01	-1.2063954345E+02	2.4903690075E+01	3.5374711314E+02	3.2500000000E+02	0.000E+00	0.0
	25	2	5	5	0	0	-8.5805792225E+01	7.2610800737E+01	3.3613323625E+02	3.7588689881E+02	1.2518165131E+02	0.000E+00	0.0
	-5	1	9	9	0	501	-1.1185630192E+02	2.6410126651E+01	2.3314366711E+02	2.5996686132E+02	4.1800000000E+00	0.000E+00	0.0
	5	1	9	9	501	0	2.6050509697E+01	4.6200674086E+01	1.0298956913E+02	1.1592003749E+02	4.1800000000E+00	0.000E+00	0.0
</event>
<event>
    11  -1  1.0000000E+00  1.0000000E+00  -1.0000000E+00  -1.0000000E+00
	2212	-1	0	0	0	0	0.0000000000E+00	0.0000000000E+00	6.5000000000E+03	6.5000000000E+03	9.3827000000E-01	0.000E+00	0.0
	2212	-1	0	0	0	0	0.0000000000E+00	0.0000000000E+00	-6.5000000000E+03	6.5000000000E+03	9.3827000000E-01	0.000E+00	0.0
	2212	1	0	0	0	0	0.0000000000E+00	0.0000000000E+00	6.2569113315E+03	6.2569113315E+03	9.3827000000E-01	0.000E+00	0.0
	2212	1	0	0	0	0	0.0000000000E+00	0.0000000000E+00	-5.3118167621E+03	5.3118167621E+03	9.3827000000E-01	0.000E+00	0.0
	51	2	1	2	0	0	5.3230291047E+01	1.3256710208E+02	-1.0654199455E+03	1.5201521917E+03	1.0748653521E+03	0.000E+00	0.0
	1000022	2	5	5	0	0	-5.3230291047E+01	-1.3256710208E+02	-6.5388014759E+02	1.0835935093E+03	8.5217847048E+02	0.000E+00	0.0
	14	1	6	6	0	0	-2.0096479299E+02	-1.8784111499E+02	-5.7216653933E+02	7.1321152629E+02	3.2500000000E+02	0.000E+00	0.0
	-14	1	6	6	0	0	1.4773450194E+02	5.5274012904E+01	-8.1713608255E+01	3.7038198301E+02	3.2500000000E+02	0.000E+00	0.0
	25	2	5	5	0	0	5.3230291047E+01	1.3256710208E+02	-2.9121442176E+02	3.4767839714E+02	1.2516759946E+02	0.000E+00	0.0
	-5	1	9	9	0	501	2.5214717774E+01	1.5272339990E+02	-2.2969312970E+02	2.7701376338E+02	4.1800000000E+00	0.000E+00	0.0
	5	1	9	9	501	0	2.8015573272E+01	-2.0156297816E+01	-6.1521292060E+01	7.0664633758E+01	4.1800000000E+00	0.000E+00	0.0
</event>
<event>
    11  -1  1.0000000E+00  1.0000000E+00  -1.0000000E+00  -1.0000000E+00
	2212	-1	0	0	0	0	0.0000000000E+00	0.0000000000E+00	6.5000000000E+03	6.5000000000E+03	9.3827000000E-01	0.000E+00	0.0
	2212	-1	0	0	0	0	0.0000000000E+00	0.0000000000E+00	-6.5000000000E+03	6.5000000000E+03	9.3827000000E-01	0.000E+00	0.0
	2212	1	0	0	0	0	0.0000000000E+00	0.0000000000E+00	6.3012422601E+03	6.3012422601E+03	9.3827000000E-01	0.000E+00	0.0
	2212	1	0	0	0	0	0.0000000000E+00	0.0000000000E+00	-5.1347491719E+03	5.1347491719E+03	9.3827000000E-01	0.000E+00	0.0
	51	2	1	2	0	0	6.2765557233E+01	5.5534664042E+01	-1.3291763503E+03	1.6909021439E+03	1.0418333244E+03	0.000E+00	0.0
	1000022	2	5	5	0	0	-6.2765557233E+01	-5.5534664042E+01	-8.0936698976E+02	1.1764102651E+03	8.4961319062E+02	0.000E+00	0.0
	14	1	6	6	0	0	-1.7490842301E+02	-1.4283064568E+02	-7.0188997856E+02	8.0577173678E+02	3.2500000000E+02	0.000E+00	0.0
	-14	1	6	6	0	0	1.1214286577E+02	8.7295981634E+01	-1.0747701120E+02	3.7063852834E+02	3.2500000000E+02	0.000E+00	0.0
	25	2	5	5	0	0	6.2765557233E+01	5.5534664042E+01	-3.5712609848E+02	3.8759830287E+02	1.2517899220E+02	0.000E+00	0.0
	-5	1	9	9	0	501	8.4405335166E+01	1.3196018667E+00	-1.4795298393E+02	1.7039237016E+02	4.1800000000E+00	0.000E+00	0.0
	5	1	9	9	501	0	-2.1639777933E+01	5.4215062175E+01	-2.0917311455E+02	2.1720593271E+02	4.1800000000E+00	0.000E+00	0.0
</event>
<event>
    11  -1  1.0000000E+00  1.0000000E+00  -1.0000000E+00  -1.0000000E+00
	2212	-1	0	0	0	0	0.0000000000E+00	0.0000000000E+00	6.5000000000E+03	6.5000000000E+03	9.3827000000E-01	0.000E+00	0.0
	2212	-1	0	0	0	0	0.0000000000E+00	0.0000000000E+00	-6.5000000000E+03	6.5000000000E+03	9.3827000000E-01	0.000E+00	0.0
	2212	1	0	0	0	0	0.0000000000E+00	0.0000000000E+00	5.4499887550E+03	5.4499887550E+03	9.3827000000E-01	0.000E+00	0.0
	2212	1	0	0	0	0	0.0000000000E+00	0.0000000000E+00	-6.2407873767E+03	6.2407873767E+03	9.3827000000E-01	0.000E+00	0.0
	51	2	1	2	0	0	1.4799097339E+01	-1.2728227141E+02	8.5453879234E+02	1.3547549648E+03	1.0434101193E+03	0.000E+00	0.0
	1000022	2	5	5	0	0	-1.4799097339E+01	1.2728227141E+02	5.9366661315E+02	1.0428530114E+03	8.4775147650E+02	0.000E+00	0.0
	14	1	6	6	0	0	4.8322732038E+01	2.5752614152E+02	5.4078263714E+02	6.8317322886E+02	3.2500000000E+02	0.000E+00	0.0
	-14	1	6	6	0	0	-6.3121829377E+01	-1.3024387011E+02	5.2883976013E+01	3.5967978253E+02	3.2500000000E+02	0.000E+00	0.0
	25	2	5	5	0	0	1.4799097339E+01	-1.2728227141E+02	1.9713200857E+02	2.6637085683E+02	1.2519031380E+02	0.000E+00	0.0
	-5	1	9	9	0	501	5.9556423726E+01	-5.3663349286E+01	1.4456347790E+02	1.6535656687E+02	4.1800000000E+00	0.000E+00	0.0
	5	1	9	9	501	0	-4.4757326387E+01	-7.3618922125E+01	5.2568530666E+01	1.0101428996E+02	4.1800000000E+00	0.000E+00	0.0
</event>
<event>
    11  -1  1.0000000E+00  1.0000000E+00  -1.0000000E+00  -1.0000000E+00
	2212	-1	0	0	0	0	0.0000000000E+00	0.0000000000E+00	6.5000000000E+03	6.5000000000E+03	9.3827000000E-01	0.000E+00	0.0
	2212	-1	0	0	0	0	0.0000000000E+00	0.0000000000E+00	-6.5000000000E+03	6.5000000000E+03	9.3827000000E-01	0.000E+00	0.0
	2212	1	0	0	0	0	0.0000000000E+00	0.0000000000E+00	6.2234084789E+03	6.2234084789E+03	9.3827000000E-01	0.000E+00	0.0
	2212	1	0	0	0	0	0.0000000000E+00	0.0000000000E+00	-5.2521212179E+03	5.2521212179E+03	9.3827000000E-01	0.000E+00	0.0
	51	2	1	2	0	0	1.3137412337E+02	1.2811120670E+02	-1.2153116529E+03	1.7003719645E+03	1.1749939414E+03	0.000E+00	0.0
	1000022	2	5	5	0	0	-1.3137412337E+02	-1.2811120670E+02	-5.1734633466E+02	1.0190970885E+03	8.5862681313E+02	0.000E+00	0.0
	14	1	6	6	0	0	-1.1417167280E+02	-1.4583091961E+02	3.7142630267E+01	3.7590743936E+02	3.2500000000E+02	0.000E+00	0.0
	-14	1	6	6	0	0	-1.7202450569E+01	1.7719712911E+01	-5.5448896493E+02	6.4318964914E+02	3.2500000000E+02	0.000E+00	0.0
	25	2	5	5	0	0	1.3137412337E+02	1.2811120670E+02	-4.5394092633E+02	5.0537321478E+02	1.2517220157E+02	0.000E+00	0.0
	-5	1	9	9	0	501	5.6955473148E+01	-1.5050401184E+01	-9.5776726777E+01	1.1252152812E+02	4.1800000000E+00	0.000E+00	0.0
	5	1	9	9	501	0	7.4418650226E+01	1.4316160789E+02	-3.5816419956E+02	3.9285168667E+02	4.1800000000E+00	0.000E+00	0.0
</event>
<event>
    11  -1  1.0000000E+00  1.0000000E+00  -1.0000000E+00  -1.0000000E+00
	2212	-1	0	0	0	0	0.0000000000E+00	0.0000000000E+00	6.5000000000E+03	6.5000000000E+03	9.3827000000E-01	0.000E+00	0.0
	2212	-1	0	0	0	0	0.0000000000E+00	0.0000000000E+00	-6.5000000000E+03	6.5000000000E+03	9.3827000000E-01	0.000E+00	0.0
	2212	1	0	0	0	0	0.0000000000E+00	0.0000000000E+00	6.3163890585E+03	6.3163890585E+03	9.3827000000E-01	0.000E+00	0.0
	2212	1	0	0	0	0	0.0000000000E+00	0.0000000000E+00	-5.0283853752E+03	5.0283853752E+03	9.3827000000E-01	0.000E+00	0.0
	51	2	1	2	0	0	-9.9381964064E+01	4.2606512578E+01	-1.4168203577E+03	1.7606505056E+03	1.0396240604E+03	0.000E+00	0.0
	1000022	2	5	5	0	0	9.9381964064E+01	-4.2606512578E+01	-9.4466743868E+02	1.2741195232E+03	8.4811078284E+02	0.000E+00	0.0
	14	1	6	6	0	0	-1.1325145935E+02	1.7245324576E+02	-5.9649390773E+02	7.0992675466E+02	3.2500000000E+02	0.000E+00	0.0
	-14	1	6	6	0	0	2.1263342341E+02	-2.1505975833E+02	-3.4817353095E+02	5.6419276853E+02	3.2500000000E+02	0.000E+00	0.0
	25	2	5	5	0	0	-9.9381964064E+01	4.2606512578E+01	-3.4333624465E+02	3.8110604311E+02	1.2517966893E+02	0.000E+00	0.0
	-5	1	9	9	0	501	1.6010399065E+01	-2.0249609218E+01	-2.2941301345E+01	3.4787285883E+01	4.1800000000E+00	0.000E+00	0.0
	5	1	9	9	501	0	-1.1539236313E+02	6.2856121795E+01	-3.2039494330E+02	3.4631875723E+02	4.1800000000E+00	0.000E+00	0.0
</event>
<event>
    11  -1  1.0000000E+00  1.0000000E+00  -1.0000000E+00  -1.0000000E+00
	2212	-1	0	0	0	0	0.0000000000E+00	0.0000000000E+00	6.5000000000E+03	6.5000000000E+03	9.3827000000E-01	0.000E+00	0.0
	2212	-1	0	0	0	0	0.0000000000E+00	0.0000000000E+00	-6.5000000000E+03	6.5000000000E+03	9.3827000000E-01	0.000E+00	0.0
	2212	1	0	0	0	0	0.0000000000E+00	0.0000000000E+00	5.3268483702E+03	5.3268483702E+03	9.3827000000E-01	0.000E+00	0.0
	2212	1	0	0	0	0	0.0000000000E+00	0.0000000000E+00	-6.2694025810E+03	6.2694025810E+03	9.3827000000E-01	0.000E+00	0.0
	51	2	1	2	0	0	-1.1405076368E+02	8.0083120125E+00	1.0056013772E+03	1.4513472332E+03	1.0402417757E+03	0.000E+00	0.0
	1000022	2	5	5	0	0	1.1405076368E+02	-8.0083120125E+00	7.2768958969E+02	1.1300486359E+03	8.5697495340E+02	0.000E+00	0.0
	14	1	6	6	0	0	1.3470586113E+02	1.0604521015E+02	6.9155390257E+02	7.8311113884E+02	3.2500000000E+02	0.000E+00	0.0
	-14	1	6	6	0	0	-2.0655097450E+01	-1.1405352217E+02	3.6135687126E+01	3.4693749704E+02	3.2500000000E+02	0.000E+00	0.0
	25	2	5	5	0	0	-1.1405076368E+02	8.0083120125E+00	2.1486462109E+02	2.7370041298E+02	1.2519345395E+02	0.000E+00	0.0
	-5	1	9	9	0	501	-1.2278452570E+02	-2.4146699551E+01	1.2144707132E+02	1.7443040556E+02	4.1800000000E+00	0.000E+00	0.0
	5	1	9	9	501	0	8.7337620258E+00	3.2155011564E+01	9.3417549768E+01	9.9270007416E+01	4.1800000000E+00	0.000E+00	0.0
</event>
<event>
    11  -1  1.0000000E+00  1.0000000E+00  -1.0000000E+00  -1.0000000E+00
	2212	-1	0	0	0	0	0.0000000000E+00	0.0000000000E+00	6.5000000000E+03	6.5000000000E+03	9.3827000000E-01	0.000E+00	0.0
	2212	-1	0	0	0	0	0.0000000000E+00	0.0000000000E+00	-6.5000000000E+03	6.5000000000E+03	9.3827000000E-01	0.000E+00	0.0
	2212	1	0	0	0	0	0.0000000000E+00	0.0000000000E+00	5.6863764052E+03	5.6863764052E+03	9.3827000000E-01	0.000E+00	0.0
	2212	1	0	0	0	0	0.0000000000E+00	0.0000000000E+00	-6.1571945895E+03	6.1571945895E+03	9.3827000000E-01	0.000E+00	0.0
	51	2	1	2	0	0	1.3551751345E+02	5.3793323510E+01	5.4827375057E+02	1.1989666823E+03	1.0562472634E+03	0.000E+00	0.0
	1000022	2	5	5	0	0	-1.3551751345E+02	-5.3793323510E+01	3.0818633082E+02	9.0468035805E+02	8.3797912720E+02	0.000E+00	0.0
	14	1	6	6	0	0	-1.6285322321E+01	1.8636658918E+02	-1.2479434913E+01	3.7520454899E+02	3.2500000000E+02	0.000E+00	0.0
	-14	1	6	6	0	0	-1.1923219113E+02	-2.4015991269E+02	3.2066576573E+02	5.2947580906E+02	3.2500000000E+02	0.000E+00	0.0
	25	2	5	5	0	0	1.3551751345E+02	5.3793323510E+01	1.6263185350E+02	2.5174864722E+02	1.2517804720E+02	0.000E+00	0.0
	-5	1	9	9	0	501	7.3694694059E+01	-3.6707901477E+01	7.2602491330E+01	1.0984977064E+02	4.1800000000E+00	0.000E+00	0.0
	5	1	9	9	501	0	6.1822819390E+01	9.0501224987E+01	9.0029362169E+01	1.4189887658E+02	4.1800000000E+00	0.000E+00	0.0
</event>
<event>
    11  -1  1.0000000E+00  1.0000000E+00  -1.0000000E+00  -1.0000000E+00
	2212	-1	0	0	0	0	0.0000000000E+00	0.0000000000E+00	6.5000000000E+03	6.5000000000E+03	9.3827000000E-01	0.000E+00	0.0
	2212	-1	0	0	0	0	0.0000000000E+00	0.0000000000E+00	-6.5000000000E+03	6.5000000000E+03	9.3827000000E-01	0.000E+00	0.0
	2212	1	0	0	0	0	0.0000000000E+00	0.0000000000E+00	6.3260408791E+03	6.3260408791E+03	9.3827000000E-01	0.000E+00	0.0
	2212	1	0	0	0	0	0.0000000000E+00	0.0000000000E+00	-4.9459880327E+03	4.9459880327E+03	9.3827000000E-01	0.000E+00	0.0
	51	2	1	2	0	0	-6.0599057533E+01	1.0284109851E+02	-1.4447853177E+03	1.7840939927E+03	1.0398741381E+03	0.000E+00	0.0
	1000022	2	5	5	0	0	6.0599057533E+01	-1.0284109851E+02	-1.0912739195E+03	1.3913184935E+03	8.5477473392E+02	0.000E+00	0.0
	14	1	6	6	0	0	-9.6735758855E+01	1.9787598187E+02	-5.2177995441E+02	6.5298700758E+02	3.2500000000E+02	0.000E+00	0.0
	-14	1	6	6	0	0	1.5733481639E+02	-3.0071708038E+02	-5.6949396508E+02	7.3833148595E+02	3.2500000000E+02	0.000E+00	0.0
	25	2	5	5	0	0	-6.0599057533E+01	1.0284109851E+02	-2.8877892690E+02	3.3665259476E+02	1.2527235775E+02	0.000E+00	0.0
	-5	1	9	9	0	501	-3.6486745267E+01	1.2538718468E+02	-2.6591623239E+02	2.9628051524E+02	4.1800000000E+00	0.000E+00	0.0
	5	1	9	9	501	0	-2.4112312265E+01	-2.2546086166E+01	-2.2862694507E+01	4.0372079514E+01	4.1800000000E+00	0.000E+00	0.0
</event>
<event>
    11  -1  1.0000000E+00  1.0000000E+00  -1.0000000E+00  -1.0000000E+00
	2212	-1	0	0	0	0	0.0000000000E+00	0.0000000000E+00	6.5000000000E+03	6.5000000000E+03	9.3827000000E-01	0.000E+00	0.0
	2212	-1	0	0	0	0	0.0000000000E+00	0.0000000000E+00	-6.5000000000E+03	6.5000000000E+03	9.3827000000E-01	0.000E+00	0.0
	2212	1	0	0	0	0	0.0000000000E+00	0.0000000000E+00	6.3089750271E+03	6.3089750271E+03	9.3827000000E-01	0.000E+00	0.0
	2212	1	0	0	0	0	0.0000000000E+00	0.0000000000E+00	-5.0929198187E+03	5.0929198187E+03	9.3827000000E-01	0.000E+00	0.0
	51	2	1	2	0	0	-3.6455433666E+01	-8.0051620974E+01	-1.1988997461E+03	1.5875287954E+03	1.0368943120E+03	0.000E+00	0.0
	1000022	2	5	5	0	0	3.6455433666E+01	8.0051620974E+01	-1.0575299049E+03	1.3778068494E+03	8.7877468900E+02	0.000E+00	0.0
	14	1	6	6	0	0	-2.6539210024E+02	-1.0636873085E+01	-4.0235090464E+02	5.8142700350E+02	3.2500000000E+02	0.000E+00	0.0
	-14	1	6	6	0	0	3.0184753391E+02	9.0688494059E+01	-6.5517900023E+02	7.9637984594E+02	3.2500000000E+02	0.000E+00	0.0
	25	2	5	5	0	0	-3.6455433666E+01	-8.0051620974E+01	-1.5852530348E+02	2.2029830478E+02	1.2515514603E+02	0.000E+00	0.0
	-5	1	9	9	0	501	2.8898300250E+01	-8.2019158323E+01	-8.2559098600E+01	1.1998221223E+02	4.1800000000E+00	0.000E+00	0.0
	5	1	9	9	501	0	-6.5353733916E+01	1.9675373489E+00	-7.5966204882E+01	1.0031609255E+02	4.1800000000E+00	0.000E+00	0.0
</event>
<event>
    11  -1  1.0000000E+00  1.0000000E+00  -1.0000000E+00  -1.0000000E+00
	2212	-1	0	0	0	0	0.0000000000E+00	0.0000000000E+00	6.5000000000E+03	6.5000000000E+03	9.3827000000E-01	0.000E+00	0.0
	2212	-1	0	0	0	0	0.0000000000E+00	0.0000000000E+00	-6.5000000000E+03	6.5000000000E+03	9.3827000000E-01	0.000E+00	0.0
	2212	1	0	0	0	0	0.0000000000E+00	0.0000000000E+00	6.3292685209E+03	6.3292685209E+03	9.3827000000E-01	0.000E+00	0.0
	2212	1	0	0	0	0	0.0000000000E+00	0.0000000000E+00	-4.8899521978E+03	4.8899521978E+03	9.3827000000E-01	0.000E+00	0.0
	51	2	1	2	0	0	-5.1013952150E+01	-1.0628911140E+01	-1.3716057235E+03	1.7272987665E+03	1.0485911362E+03	0.000E+00	0.0
	1000022	2	5	5	0	0	5.1013952150E+01	1.0628911140E+01	-1.3152599630E+03	1.5969981026E+03	9.0431121423E+02	0.000E+00	0.0
	14	1	6	6	0	0	1.0522374574E+01	1.6302028922E+02	-1.1378034565E+03	1.1945325616E+03	3.2500000000E+02	0.000E+00	0.0
	-14	1	6	6	0	0	4.0491577576E+01	-1.5239137808E+02	-1.7745650654E+02	4.0246554099E+02	3.2500000000E+02	0.000E+00	0.0
	25	2	5	5	0	0	-5.1013952150E+01	-1.0628911140E+01	-1.2405635998E+02	1.8378117872E+02	1.2518044630E+02	0.000E+00	0.0
	-5	1	9	9	0	501	-6.2373510763E+01	-4.0331704221E+01	-2.3170685910E+01	7.7919537318E+01	4.1800000000E+00	0.000E+00	0.0
	5	1	9	9	501	0	1.1359558614E+01	2.9702793081E+01	-1.0088567407E+02	1.0586164140E+02	4.1800000000E+00	0.000E+00	0.0
</event>
<event>
    11  -1  1.0000000E+00  1.0000000E+00  -1.0000000E+00  -1.0000000E+00
	2212	-1	0	0	0	0	0.0000000000E+00	0.0000000000E+00	6.5000000000E+03	6.5000000000E+03	9.3827000000E-01	0.000E+00	0.0
	2212	-1	0	0	0	0	0.0000000000E+00	0.0000000000E+00	-6.5000000000E+03	6.5000000000E+03	9.3827000000E-01	0.000E+00	0.0
	2212	1	0	0	0	0	0.0000000000E+00	0.0000000000E+00	5.9567566264E+03	5.9567566264E+03	9.3827000000E-01	0.000E+00	0.0
	2212	1	0	0	0	0	0.0000000000E+00	0.0000000000E+00	-5.9927784818E+03	5.9927784818E+03	9.3827000000E-01	0.000E+00	0.0
	51	2	1	2	0	0	6.5287450460E+01	7.3353543783E+01	1.3274511473E+02	1.0627527342E+03	1.0498470912E+03	0.000E+00	0.0
	1000022	2	5	5	0	0	-6.5287450460E+01	-7.3353543783E+01	-6.6775512265E+01	8.6104465216E+02	8.5281635210E+02	0.000E+00	0.0
	14	1	6	6	0	0	1.7143595845E+02	-5.5021323647E+01	-2.1835824211E+02	4.3095586294E+02	3.2500000000E+02	0.000E+00	0.0
	-14	1	6	6	0	0	-2.3672340891E+02	-1.8332220137E+01	1.5158272985E+02	4.3008878922E+02	3.2500000000E+02	0.000E+00	0.0
	25	2	5	5	0	0	6.5287450460E+01	7.3353543783E+01	1.0279736769E+02	1.8942023967E+02	1.2517801252E+02	0.000E+00	0.0
	-5	1	9	9	0	501	2.5594597940E+01	-2.2291215370E+01	-1.0595445856E+01	3.5801083772E+01	4.1800000000E+00	0.000E+00	0.0
	5	1	9	9	501	0	3.9692852520E+01	9.5644759153E+01	1.1339281355E+02	1.5361915590E+02	4.1800000000E+00	0.000E+00	0.0
</event>
<event>
    11  -1  1.0000000E+00  1.0000000E+00  -1.0000000E+00  -1.0000000E+00
	2212	-1	0	0	0	0	0.0000000000E+00	0.0000000000E+00	6.5000000000E+03	6.5000000000E+03	9.3827000000E-01	0.000E+00	0.0
	2212	-1	0	0	0	0	0.0000000000E+00	0.0000000000E+00	-6.5000000000E+03	6.5000000000E+03	9.3827000000E-01	0.000E+00	0.0
	2212	1	0	0	0	0	0.0000000000E+00	0.0000000000E+00	5.1484645870E+03	5.1484645870E+03	9.3827000000E-01	0.000E+00	0.0
	2212	1	0	0	0	0	0.0000000000E+00	0.0000000000E+00	-6.2915727556E+03	6.2915727556E+03	9.3827000000E-01	0.000E+00	0.0
	51	2	1	2	0	0	-1.5064131804E+02	-4.8188316536E+01	1.1439570114E+03	1.5685789021E+03	1.0615023351E+03	0.000E+00	0.0
	1000022	2	5	5	0	0	1.5064131804E+02	4.8188316536E+01	9.3752150979E+02	1.2719473530E+03	8.4491926658E+02	0.000E+00	0.0
	14	1	6	6	0	0	3.0248138261E+02	1.4204963371E+02	3.7526851055E+02	5.9843507607E+02	3.2500000000E+02	0.000E+00	0.0
	-14	1	6	6	0	0	-1.5184006458E+02	-9.3861317173E+01	5.6225299924E+02	6.7351227697E+02	3.2500000000E+02	0.000E+00	0.0
	25	2	5	5	0	0	-1.5064131804E+02	-4.8188316536E+01	2.0558665882E+02	2.8801530442E+02	1.2518794167E+02	0.000E+00	0.0
	-5	1	9	9	0	501	1.5087935049E+01	1.5787658124E+01	1.2110937538E+01	2.5318829774E+01	4.1800000000E+00	0.000E+00	0.0
	5	1	9	9	501	0	-1.6572925309E+02	-6.3975974659E+01	1.9347572129E+02	2.6269647464E+02	4.1800000000E+00	0.000E+00	0.0
</event>
<event>
    11  -1  1.0000000E+00  1.0000000E+00  -1.0000000E+00  -1.0000000E+00
	2212	-1	0	0	0	0	0.0000000000E+00	0.0000000000E+00	6.5000000000E+03	6.5000000000E+03	9.3827000000E-01	0.000E+00	0.0
	2212	-1	0	0	0	0	0.0000000000E+00	0.0000000000E+00	-6.5000000000E+03	6.5000000000E+03	9.3827000000E-01	0.000E+00	0.0
	2212	1	0	0	0	0	0.0000000000E+00	0.0000000000E+00	6.3211632317E+03	6.3211632317E+03	9.3827000000E-01	0.000E+00	0.0
	2212	1	0	0	0	0	0.0000000000E+00	0.0000000000E+00	-4.9357432879E+03	4.9357432879E+03	9.3827000000E-01	0.000E+00	0.0
	51	2	1	2	0	0	3.9634562506E+01	-1.3822562387E+02	-1.5046110320E+03	1.8448626073E+03	1.0578215637E+03	0.000E+00	0.0
	1000022	2	5	5	0	0	-3.9634562506E+01	1.3822562387E+02	-1.0183997455E+03	1.3295132611E+03	8.4249050320E+02	0.000E+00	0.0
	14	1	6	6	0	0	-2.6368373844E+02	5.5361702519E+01	-3.4788825913E+02	5.4703315517E+02	3.2500000000E+02	0.000E+00	0.0
	-14	1	6	6	0	0	2.2404917593E+02	8.2863921347E+01	-6.7051148641E+02	7.8248010589E+02	3.2500000000E+02	0.000E+00	0.0
	25	2	5	5	0	0	3.9634562506E+01	-1.3822562387E+02	-3.6702019829E+02	4.1358021932E+02	1.2517008514E+02	0.000E+00	0.0
	-5	1	9	9	0	501	2.9003245266E+01	-5.4583750809E+01	-2.9847847190E+02	3.0484003129E+02	4.1800000000E+00	0.000E+00	0.0
	5	1	9	9	501	0	1.0631317240E+01	-8.3641873057E+01	-6.8541726391E+01	1.0874018802E+02	4.1800000000E+00	0.000E+00	0.0
</event>
<event>
    11  -1  1.0000000E+00  1.0000000E+00  -1.0000000E+00  -1.0000000E+00
	2212	-1	0	0	0	0	0.0000000000E+00	0.0000000000E+00	6.5000000000E+03	6.5000000000E+03	9.3827000000E-01	0.000E+00	0.0
	2212	-1	0	0	0	0	0.0000000000E+00	0.0000000000E+00	-6.5000000000E+03	6.5000000000E+03	9.3827000000E-01	0.000E+00	0.0
	2212	1	0	0	0	0	0.0000000000E+00	0.0000000000E+00	5.5522370345E+03	5.5522370345E+03	9.3827000000E-01	0.000E+00	0.0
	2212	1	0	0	0	0	0.0000000000E+00	0.0000000000E+00	-6.2080400535E+03	6.2080400535E+03	9.3827000000E-01	0.000E+00	0.0
	51	2	1	2	0	0	1.3470811032E+02	-4.2228713327E+01	6.7126017153E+02	1.2559279661E+03	1.0520624025E+03	0.000E+00	0.0
	1000022	2	5	5	0	0	-1.3470811032E+02	4.2228713327E+01	5.2852254851E+02	1.0121282711E+03	8.5155035879E+02	0.000E+00	0.0
	14	1	6	6	0	0	-1.8840889944E+02	2.3145534123E+02	1.2651142314E+02	4.5902029210E+02	3.2500000000E+02	0.000E+00	0.0
	-14	1	6	6	0	0	5.3700789120E+01	-1.8922662790E+02	4.0201112537E+02	5.5310797895E+02	3.2500000000E+02	0.000E+00	0.0
	25	2	5	5	0	0	1.3470811032E+02	-4.2228713327E+01	1.2728047043E+02	2.2759464093E+02	1.2517772649E+02	0.000E+00	0.0
	-5	1	9	9	0	501	8.5541812916E+01	-6.1716924740E-01	1.3774950403E+02	1.6220413347E+02	4.1800000000E+00	0.000E+00	0.0
	5	1	9	9	501	0	4.9166297404E+01	-4.1611544079E+01	-1.0469033596E+01	6.5390507457E+01	4.1800000000E+00	0.000E+00	0.0
</event>
<event>
    11  -1  1.0000000E+00  1.0000000E+00  -1.0000000E+00  -1.0000000E+00
	2212	-1	0	0	0	0	0.0000000000E+00	0.0000000000E+00	6.5000000000E+03	6.5000000000E+03	9.3827000000E-01	0.000E+00	0.0
	2212	-1	0	0	0	0	0.0000000000E+00	0.0000000000E+00	-6.5000000000E+03	6.5000000000E+03	9.3827000000E-01	0.000E+00	0.0
	2212	1	0	0	0	0	0.0000000000E+00	0.0000000000E+00	5.9437538097E+03	5.9437538097E+03	9.3827000000E-01	0.000E+00	0.0
	2212	1	0	0	0	0	0.0000000000E+00	0.0000000000E+00	-6.0166115954E+03	6.0166115954E+03	9.3827000000E-01	0.000E+00	0.0
	51	2	1	2	0	0	1.1420489095E+02	-2.0855916046E+01	1.5301137108E+01	1.0436683789E+03	1.0370785091E+03	0.000E+00	0.0
	1000022	2	5	5	0	0	-1.1420489095E+02	2.0855916046E+01	1.1831577776E+02	8.6296062109E+02	8.4689118778E+02	0.000E+00	0.0
	14	1	6	6	0	0	-1.0920373743E+02	-2.5592070639E+02	5.4151144012E+01	4.3125191086E+02	3.2500000000E+02	0.000E+00	0.0
	-14	1	6	6	0	0	-5.0011535243E+00	2.7677662243E+02	6.4164633746E+01	4.3170871023E+02	3.2500000000E+02	0.000E+00	0.0
	25	2	5	5	0	0	1.1420489095E+02	-2.0855916046E+01	-4.5457992021E+01	1.7667397385E+02	1.2517802381E+02	0.000E+00	0.0
	-5	1	9	9	0	501	4.7716301841E+00	3.4028255798E+01	1.7674483567E+01	3.8865800090E+01	4.1800000000E+00	0.000E+00	0.0
	5	1	9	9	501	0	1.0943326077E+02	-5.4884171844E+01	-6.3132475588E+01	1.3780817376E+02	4.1800000000E+00	0.000E+00	0.0
</event>
<event>
    11  -1  1.0000000E+00  1.0000000E+00  -1.0000000E+00  -1.0000000E+00
	2212	-1	0	0	0	0	0.0000000000E+00	0.0000000000E+00	6.5000000000E+03	6.5000000000E+03	9.3827000000E-01	0.000E+00	0.0
	2212	-1	0	0	0	0	0.0000000000E+00	0.0000000000E+00	-6.5000000000E+03	6.5000000000E+03	9.3827000000E-01	0.000E+00	0.0
	2212	1	0	0	0	0	0.0000000000E+00	0.0000000000E+00	5.7884281745E+03	5.7884281745E+03	9.3827000000E-01	0.000E+00	0.0
	2212	1	0	0	0	0	0.0000000000E+00	0.0000000000E+00	-6.1331922169E+03	6.1331922169E+03	9.3827000000E-01	0.000E+00	0.0
	51	2	1	2	0	0	1.0228790651E+02	7.0539657991E+00	3.0960411983E+02	1.0725705667E+03	1.0217829198E+03	0.000E+00	0.0
	1000022	2	5	5	0	0	-1.0228790651E+02	-7.0539657991E+00	3.2598609731E+02	9.1547762061E+02	8.4930545975E+02	0.000E+00	0.0
	14	1	6	6	0	0	4.7253024767E+01	-2.0403985868E+02	3.2807275550E+02	5.0707183434E+02	3.2500000000E+02	0.000E+00	0.0
	-14	1	6	6	0	0	-1.4954093128E+02	1.9698589288E+02	-2.0866581936E+00	4.0840578628E+02	3.2500000000E+02	0.000E+00	0.0
	25	2	5	5	0	0	1.0228790651E+02	7.0539657991E+00	1.8777945105E+01	1.6290198793E+02	1.2518734839E+02	0.000E+00	0.0
	-5	1	9	9	0	501	2.7689253504E+00	5.0385989833E+01	-7.3879488264E+00	5.1170979148E+01	4.1800000000E+00	0.000E+00	0.0
	5	1	9	9	501	0	9.9518981164E+01	-4.3332024034E+01	2.6165893931E+01	1.1173100878E+02	4.1800000000E+00	0.000E+00	0.0
</event>
<event>
    11  -1  1.0000000E+00  1.0000000E+00  -1.0000000E+00  -1.0000000E+00
	2212	-1	0	0	0	0	0.0000000000E+00	0.0000000000E+00	6.5000000000E+03	6.5000000000E+03	9.3827000000E-01	0.000E+00	0.0
	2212	-1	0	0	0	0	0.0000000000E+00	0.0000000000E+00	-6.5000000000E+03	6.5000000000E+03	9.3827000000E-01	0.000E+00	0.0
	2212	1	0	0	0	0	0.0000000000E+00	0.0000000000E+00	5.6456506202E+03	5.6456506202E+03	9.3827000000E-01	0.000E+00	0.0
	2212	1	0	0	0	0	0.0000000000E+00	0.0000000000E+00	-6.1855256947E+03	6.1855256947E+03	9.3827000000E-01	0.000E+00	0.0
	51	2	1	2	0	0	-8.9028604946E+01	-6.6435159169E+01	5.4472874329E+02	1.1763302416E+03	1.0366695282E+03	0.000E+00	0.0
	1000022	2	5	5	0	0	8.9028604946E+01	6.6435159169E+01	4.5094950007E+02	9.7930236389E+02	8.6217048513E+02	0.000E+00	0.0
	14	1	6	6	0	0	1.8891953688E+02	-5.9806059651E+01	4.8327457588E+02	6.1518019464E+02	3.2500000000E+02	0.000E+00	0.0
	-14	1	6	6	0	0	-9.9890931934E+01	1.2624121882E+02	-3.2325075813E+01	3.6412216925E+02	3.2500000000E+02	0.000E+00	0.0
	25	2	5	5	0	0	-8.9028604946E+01	-6.6435159169E+01	8.8925574456E+01	1.8952132116E+02	1.2518326770E+02	0.000E+00	0.0
	-5	1	9	9	0	501	-8.3397451774E+01	1.5658560218E+01	4.3952001901E+01	9.5653417825E+01	4.1800000000E+00	0.000E+00	0.0
	5	1	9	9	501	0	-5.6311531718E+00	-8.2093719387E+01	4.4973572554E+01	9.3867903338E+01	4.1800000000E+00	0.000E+00	0.0
</event>
<event>
    11  -1  1.0000000E+00  1.0000000E+00  -1.0000000E+00  -1.0000000E+00
	2212	-1	0	0	0	0	0.0000000000E+00	0.0000000000E+00	6.5000000000E+03	6.5000000000E+03	9.3827000000E-01	0.000E+00	0.0
	2212	-1	0	0	0	0	0.0000000000E+00	0.0000000000E+00	-6.5000000000E+03	6.5000000000E+03	9.3827000000E-01	0.000E+00	0.0
	2212	1	0	0	0	0	0.0000000000E+00	0.0000000000E+00	4.9269821025E+03	4.9269821025E+03	9.3827000000E-01	0.000E+00	0.0
	2212	1	0	0	0	0	0.0000000000E+00	0.0000000000E+00	-6.3241381420E+03	6.3241381420E+03	9.3827000000E-01	0.000E+00	0.0
	51	2	1	2	0	0	-9.1144770555E+01	-4.0370597237E+01	1.5396069344E+03	1.8673141318E+03	1.0519198640E+03	0.000E+00	0.0
	1000022	2	5	5	0	0	9.1144770555E+01	4.0370597237E+01	1.0276153522E+03	1.3461874083E+03	8.6388082035E+02	0.000E+00	0.0
	14	1	6	6	0	0	1.3717929579E+02	1.3894725331E+01	9.4192365988E+02	1.0059107334E+03	3.2500000000E+02	0.000E+00	0.0
	-14	1	6	6	0	0	-4.6034525231E+01	2.6475871906E+01	8.5691692325E+01	3.4027667484E+02	3.2500000000E+02	0.000E+00	0.0
	25	2	5	5	0	0	-9.1144770555E+01	-4.0370597237E+01	3.6954068728E+02	4.0269234715E+02	1.2515451480E+02	0.000E+00	0.0
	-5	1	9	9	0	501	2.4577840626E+01	3.6342074791E+00	1.3617151170E+02	1.3848260076E+02	4.1800000000E+00	0.000E+00	0.0
	5	1	9	9	501	0	-1.1572261118E+02	-4.4004804717E+01	2.3336917559E+02	2.6420974640E+02	4.1800000000E+00	0.000E+00	0.0
</event>
<event>
    11  -1  1.0000000E+00  1.0000000E+00  -1.0000000E+00  -1.0000000E+00
	2212	-1	0	0	0	0	0.0000000000E+00	0.0000000000E+00	6.5000000000E+03	6.5000000000E+03	9.3827000000E-01	0.000E+00	0.0
	2212	-1	0	0	0	0	0.0000000000E+00	0.0000000000E+00	-6.5000000000E+03	6.5000000000E+03	9.3827000000E-01	0.000E+00	0.0
	2212	1	0	0	0	0	0.0000000000E+00	0.0000000000E+00	6.1329372062E+03	6.1329372062E+03	9.3827000000E-01	0.000E+00	0.0
	2212	1	0	0	0	0	0.0000000000E+00	0.0000000000E+00	-5.7664583572E+03	5.7664583572E+03	9.3827000000E-01	0.000E+00	0.0
	51	2	1	2	0	0	-8.7013883454E+00	-1.1727428725E+02	-4.5437587084E+02	1.1389950763E+03	1.0377973691E+03	0.000E+00	0.0
	1000022	2	5	5	0	0	8.7013883454E+00	1.1727428725E+02	-2.1514122347E+02	8.7168981446E+02	8.3649770710E+02	0.000E+00	0.0
	14	1	6	6	0	0	-2.2968438060E+02	-6.0831785720E+01	-1.2848377828E+02	4.2259732858E+02	3.2500000000E+02	0.000E+00	0.0
	-14	1	6	6	0	0	2.3838576894E+02	1.7810607297E+02	-8.6657445192E+01	4.4909248588E+02	3.2500000000E+02	0.000E+00	0.0
	25	2	5	5	0	0	-8.7013883454E+00	-1.1727428725E+02	-1.5133762550E+02	2.2891462220E+02	1.2517929044E+02	0.000E+00	0.0
	-5	1	9	9	0	501	2.7119076639E+01	-6.7822720452E+01	-8.6730129542E+00	7.3675364138E+01	4.1800000000E+00	0.000E+00	0.0
	5	1	9	9	501	0	-3.5820464984E+01	-4.9451566797E+01	-1.4266461255E+02	1.5523925806E+02	4.1800000000E+00	0.000E+00	0.0
</event>
<event>
    11  -1  1.0000000E+00  1.0000000E+00  -1.0000000E+00  -1.0000000E+00
	2212	-1	0	0	0	0	0.0000000000E+00	0.0000000000E+00	6.5000000000E+03	6.5000000000E+03	9.3827000000E-01	0.000E+00	0.0
	2212	-1	0	0	0	0	0.0000000000E+00	0.0000000000E+00	-6.5000000000E+03	6.5000000000E+03	9.3827000000E-01	0.000E+00	0.0
	2212	1	0	0	0	0	0.0000000000E+00	0.0000000000E+00	5.3738935168E+03	5.3738935168E+03	9.3827000000E-01	0.000E+00	0.0
	2212	1	0	0	0	0	0.0000000000E+00	0.0000000000E+00	-6.2500854509E+03	6.2500854509E+03	9.3827000000E-01	0.000E+00	0.0
	51	2	1	2	0	0	-6.5751122314E+01	1.2699817794E+02	8.3700701152E+02	1.3589532959E+03	1.0610002713E+03	0.000E+00	0.0
	1000022	2	5	5	0	0	6.5751122314E+01	-1.2699817794E+02	7.6395763720E+02	1.1552915205E+03	8.5476048028E+02	0.000E+00	0.0
	14	1	6	6	0	0	2.3296951690E+02	2.5198355068E+01	1.5638644427E+02	4.3010635063E+02	3.2500000000E+02	0.000E+00	0.0
	-14	1	6	6	0	0	-1.6721839458E+02	-1.5219653301E+02	6.0757119292E+02	7.2518516988E+02	3.2500000000E+02	0.000E+00	0.0
	25	2	5	5	0	0	-6.5751122314E+01	1.2699817794E+02	1.1223429691E+02	2.2072951171E+02	1.2519278195E+02	0.000E+00	0.0
	-5	1	9	9	0	501	-8.0303270202E+01	1.1792542244E+02	1.3187116175E+02	1.9432574756E+02	4.1800000000E+00	0.000E+00	0.0
	5	1	9	9	501	0	1.4552147888E+01	9.0727555017E+00	-1.9636864844E+01	2.6403764153E+01	4.1800000000E+00	0.000E+00	0.0
</event>
<event>
    11  -1  1.0000000E+00  1.0000000E+00  -1.0000000E+00  -1.0000000E+00
	2212	-1	0	0	0	0	0.0000000000E+00	0.0000000000E+00	6.5000000000E+03	6.5000000000E+03	9.3827000000E-01	0.000E+00	0.0
	2212	-1	0	0	0	0	0.0000000000E+00	0.0000000000E+00	-6.5000000000E+03	6.5000000000E+03	9.3827000000E-01	0.000E+00	0.0
	2212	1	0	0	0	0	0.0000000000E+00	0.0000000000E+00	6.0573370568E+03	6.0573370568E+03	9.3827000000E-01	0.000E+00	0.0
	2212	1	0	0	0	0	0.0000000000E+00	0.0000000000E+00	-5.8817365157E+03	5.8817365157E+03	9.3827000000E-01	0.000E+00	0.0
	51	2	1	2	0	0	-8.7543671911E+01	-7.5367997450E+01	-1.5886968124E+02	1.0645718105E+03	1.0462931399E+03	0.000E+00	0.0
	1000022	2	5	5	0	0	8.7543671911E+01	7.5367997450E+01	-1.6468365906E+02	8.9024158226E+02	8.6721689196E+02	0.000E+00	0.0
	14	1	6	6	0	0	1.6051775381E+02	-2.2465966726E+02	-7.2625831687E+01	4.3259383584E+02	3.2500000000E+02	0.000E+00	0.0
	-14	1	6	6	0	0	-7.2974081894E+01	3.0002766471E+02	-9.2057827369E+01	4.5764774642E+02	3.2500000000E+02	0.000E+00	0.0
	25	2	5	5	0	0	-8.7543671911E+01	-7.5367997450E+01	-1.0916882001E+01	1.7068484528E+02	1.2517950537E+02	0.000E+00	0.0
	-5	1	9	9	0	501	-1.1473429920E+02	-3.5060963072E+01	2.5113200600E+00	1.2007085272E+02	4.1800000000E+00	0.000E+00	0.0
	5	1	9	9	501	0	2.7190627289E+01	-4.0307034378E+01	-1.3428202061E+01	5.0613992564E+01	4.1800000000E+00	0.000E+00	0.0
</event>
<event>
    11  -1  1.0000000E+00  1.0000000E+00  -1.0000000E+00  -1.0000000E+00
	2212	-1	0	0	0	0	0.0000000000E+00	0.0000000000E+00	6.5000000000E+03	6.5000000000E+03	9.3827000000E-01	0.000E+00	0.0
	2212	-1	0	0	0	0	0.0000000000E+00	0.0000000000E+00	-6.5000000000E+03	6.5000000000E+03	9.3827000000E-01	0.000E+00	0.0
	2212	1	0	0	0	0	0.0000000000E+00	0.0000000000E+00	6.0568716943E+03	6.0568716943E+03	9.3827000000E-01	0.000E+00	0.0
	2212	1	0	0	0	0	0.0000000000E+00	0.0000000000E+00	-5.8690163323E+03	5.8690163323E+03	9.3827000000E-01	0.000E+00	0.0
	51	2	1	2	0	0	2.9665709602E+02	1.6676131673E+02	7.4940697475E+01	1.1134890085E+03	1.0575570408E+03	0.000E+00	0.0
	1000022	2	5	5	0	0	-2.9665709602E+02	-1.6676131673E+02	-3.8532795261E+02	6.6123098708E+02	4.1585336098E+02	0.000E+00	0.0
	14	1	6	6	0	0	0.0000000000E+00	0.0000000000E+00	0.0000000000E+00	0.0000000000E+00	0.0000000000E+00	0.000E+00	0.0
	-14	1	6	6	0	0	0.0000000000E+00	0.0000000000E+00	0.0000000000E+00	0.0000000000E+00	0.0000000000E+00	0.000E+00	0.0
	25	2	5	5	0	0	2.9665709602E+02	1.6676131673E+02	1.9747259065E+02	4.1288098635E+02	1.2514198119E+02	0.000E+00	0.0
	-5	1	9	9	0	501	2.7199276334E+01	6.1636559275E+01	1.0157335084E+01	6.8260603047E+01	4.1800000000E+00	0.000E+00	0.0
	5	1	9	9	501	0	2.6945781968E+02	1.0512475745E+02	1.8731525557E+02	3.4462038330E+02	4.1800000000E+00	0.000E+00	0.0
</event>
<event>
    11  -1  1.0000000E+00  1.0000000E+00  -1.0000000E+00  -1.0000000E+00
	2212	-1	0	0	0	0	0.0000000000E+00	0.0000000000E+00	6.5000000000E+03	6.5000000000E+03	9.3827000000E-01	0.000E+00	0.0
	2212	-1	0	0	0	0	0.0000000000E+00	0.0000000000E+00	-6.5000000000E+03	6.5000000000E+03	9.3827000000E-01	0.000E+00	0.0
	2212	1	0	0	0	0	0.0000000000E+00	0.0000000000E+00	6.2127156785E+03	6.2127156785E+03	9.3827000000E-01	0.000E+00	0.0
	2212	1	0	0	0	0	0.0000000000E+00	0.0000000000E+00	-5.5190999462E+03	5.5190999462E+03	9.3827000000E-01	0.000E+00	0.0
	51	2	1	2	0	0	-1.0546427435E+02	-1.0088951652E+02	-6.7269652254E+02	1.2653105725E+03	1.0616914927E+03	0.000E+00	0.0
	1000022	2	5	5	0	0	1.0546427435E+02	1.0088951652E+02	-5.9469938724E+02	1.0519547596E+03	8.5535960113E+02	0.000E+00	0.0
	14	1	6	6	0	0	2.5877164284E+02	-5.3083013504E+01	-1.1734402901E+02	4.3494274405E+02	3.2500000000E+02	0.000E+00	0.0
	-14	1	6	6	0	0	-1.5330736849E+02	1.5397253003E+02	-4.7735535823E+02	6.1701201550E+02	3.2500000000E+02	0.000E+00	0.0
	25	2	5	5	0	0	-1.0546427435E+02	-1.0088951652E+02	-9.8916345004E+01	2.1622961574E+02	1.2517745685E+02	0.000E+00	0.0
	-5	1	9	9	0	501	-6.7385507721E+01	-1.2552799709E+02	-9.3262022828E+01	1.7033309134E+02	4.1800000000E+00	0.000E+00	0.0
	5	1	9	9	501	0	-3.8078766632E+01	2.4638480563E+01	-5.6543221764E+00	4.5896524400E+01	4.1800000000E+00	0.000E+00	0.0
</event>
<event>
    11  -1  1.0000000E+00  1.0000000E+00  -1.0000000E+00  -1.0000000E+00
	2212	-1	0	0	0	0	0.0000000000E+00	0.0000000000E+00	6.5000000000E+03	6.5000000000E+03	9.3827000000E-01	0.000E+00	0.0
	2212	-1	0	0	0	0	0.0000000000E+00	0.0000000000E+00	-6.5000000000E+03	6.5000000000E+03	9.3827000000E-01	0.000E+00	0.0
	2212	1	0	0	0	0	0.0000000000E+00	0.0000000000E+00	5.5305535480E+03	5.5305535480E+03	9.3827000000E-01	0.000E+00	0.0
	2212	1	0	0	0	0	0.0000000000E+00	0.0000000000E+00	-6.2165179256E+03	6.2165179256E+03	9.3827000000E-01	0.000E+00	0.0
	51	2	1	2	0	0	1.3738828253E+02	3.0998154500E+01	6.6528497960E+02	1.2496892794E+03	1.0484668641E+03	0.000E+00	0.0
	1000022	2	5	5	0	0	-1.3738828253E+02	-3.0998154500E+01	5.8879486907E+02	1.0409142391E+03	8.4675063012E+02	0.000E+00	0.0
	14	1	6	6	0	0	-1.4900003266E+02	4.0546143258E+01	-5.3081792109E+00	3.5985855031E+02	3.2500000000E+02	0.000E+00	0.0
	-14	1	6	6	0	0	1.1611750134E+01	-7.1544297758E+01	5.9410304828E+02	6.8105568881E+02	3.2500000000E+02	0.000E+00	0.0
	25	2	5	5	0	0	1.3738828253E+02	3.0998154500E+01	9.7169508532E+01	2.1201428737E+02	1.2518673612E+02	0.000E+00	0.0
	-5	1	9	9	0	501	6.1494347533E+01	-4.6946072527E+01	2.5065972108E+01	8.1432572487E+01	4.1800000000E+00	0.000E+00	0.0
	5	1	9	9	501	0	7.5893934997E+01	7.7944227027E+01	7.2103536424E+01	1.3058171488E+02	4.1800000000E+00	0.000E+00	0.0
</event>
<event>
    11  -1  1.0000000E+00  1.0000000E+00  -1.0000000E+00  -1.0000000E+00
	2212	-1	0	0	0	0	0.0000000000E+00	0.0000000000E+00	6.5000000000E+03	6.5000000000E+03	9.3827000000E-01	0.000E+00	0.0
	2212	-1	0	0	0	0	0.0000000000E+00	0.0000000000E+00	-6.5000000000E+03	6.5000000000E+03	9.3827000000E-01	0.000E+00	0.0
	2212	1	0	0	0	0	0.0000000000E+00	0.0000000000E+00	5.2360445994E+03	5.2360445994E+03	9.3827000000E-01	0.000E+00	0.0
	2212	1	0	0	0	0	0.0000000000E+00	0.0000000000E+00	-6.2848665609E+03	6.2848665609E+03	9.3827000000E-01	0.000E+00	0.0
	51	2	1	2	0	0	6.7521303430E+01	-7.9580065775E+01	9.2422097462E+02	1.3974093215E+03	1.0429172012E+03	0.000E+00	0.0
	1000022	2	5	5	0	0	-6.7521303430E+01	7.9580065775E+01	9.9345117853E+02	1.3069652854E+03	8.4280537476E+02	0.000E+00	0.0
	14	1	6	6	0	0	2.0687447886E+02	8.2485585385E+01	6.5078456376E+02	7.6075388283E+02	3.2500000000E+02	0.000E+00	0.0
	-14	1	6	6	0	0	-2.7439578229E+02	-2.9055196095E+00	3.4266661476E+02	5.4621140253E+02	3.2500000000E+02	0.000E+00	0.0
	25	2	5	5	0	0	6.7521303430E+01	-7.9580065775E+01	5.5370782980E+01	1.7212355429E+02	1.2517380336E+02	0.000E+00	0.0
	-5	1	9	9	0	501	5.4788115909E+01	-6.0979875954E+01	9.5487019234E+01	1.2591872839E+02	4.1800000000E+00	0.000E+00	0.0
	5	1	9	9	501	0	1.2733187521E+01	-1.8600189821E+01	-4.0116236254E+01	4.6204825906E+01	4.1800000000E+00	0.000E+00	0.0
</event>
<event>
    11  -1  1.0000000E+00  1.0000000E+00  -1.0000000E+00  -1.0000000E+00
	2212	-1	0	0	0	0	0.0000000000E+00	0.0000000000E+00	6.5000000000E+03	6.5000000000E+03	9.3827000000E-01	0.000E+00	0.0
	2212	-1	0	0	0	0	0.0000000000E+00	0.0000000000E+00	-6.5000000000E+03	6.5000000000E+03	9.3827000000E-01	0.000E+00	0.0
	2212	1	0	0	0	0	0.0000000000E+00	0.0000000000E+00	6.0515663003E+03	6.0515663003E+03	9.3827000000E-01	0.000E+00	0.0
	2212	1	0	0	0	0	0.0000000000E+00	0.0000000000E+00	-5.8774981827E+03	5.8774981827E+03	9.3827000000E-01	0.000E+00	0.0
	51	2	1	2	0	0	-6.5546701078E+01	-3.0642123725E+01	-2.9513277775E+02	1.0995189122E+03	1.0566944554E+03	0.000E+00	0.0
	1000022	2	5	5	0	0	6.5546701078E+01	3.0642123725E+01	-2.3749709499E+01	8.6237156046E+02	8.5900253191E+02	0.000E+00	0.0
	14	1	6	6	0	0	-5.2100918697E+01	-2.4685113624E+02	4.4770078815E+01	4.1385909335E+02	3.2500000000E+02	0.000E+00	0.0
	-14	1	6	6	0	0	1.1764761978E+02	2.7749325996E+02	-6.8519788314E+01	4.4851246711E+02	3.2500000000E+02	0.000E+00	0.0
	25	2	5	5	0	0	-6.5546701078E+01	-3.0642123725E+01	-1.5031840802E+02	2.0856395655E+02	1.2517184354E+02	0.000E+00	0.0
	-5	1	9	9	0	501	-8.1405709876E+01	-5.3034502815E+01	-1.5234125533E+02	1.8073427612E+02	4.1800000000E+00	0.000E+00	0.0
	5	1	9	9	501	0	1.5859008798E+01	2.2392379090E+01	2.0228473165E+00	2.7829680426E+01	4.1800000000E+00	0.000E+00	0.0
</event>
<event>
    11  -1  1.0000000E+00  1.0000000E+00  -1.0000000E+00  -1.0000000E+00
	2212	-1	0	0	0	0	0.0000000000E+00	0.0000000000E+00	6.5000000000E+03	6.5000000000E+03	9.3827000000E-01	0.000E+00	0.0
	2212	-1	0	0	0	0	0.0000000000E+00	0.0000000000E+00	-6.5000000000E+03	6.5000000000E+03	9.3827000000E-01	0.000E+00	0.0
	2212	1	0	0	0	0	0.0000000000E+00	0.0000000000E+00	6.0181417523E+03	6.0181417523E+03	9.3827000000E-01	0.000E+00	0.0
	2212	1	0	0	0	0	0.0000000000E+00	0.0000000000E+00	-5.9421213313E+03	5.9421213313E+03	9.3827000000E-01	0.000E+00	0.0
	51	2	1	2	0	0	-8.4947457693E+00	8.7900422043E+01	2.1422193307E+01	1.0409280984E+03	1.0369540736E+03	0.000E+00	0.0
	1000022	2	5	5	0	0	8.4947457693E+00	-8.7900422043E+01	-1.6074889337E+02	8.6465347553E+02	8.4497738498E+02	0.000E+00	0.0
	14	1	6	6	0	0	-6.6153178034E+01	-2.0425816015E+02	1.2635717022E+02	4.0949819709E+02	3.2500000000E+02	0.000E+00	0.0
	-14	1	6	6	0	0	7.4647923803E+01	1.1635773810E+02	-2.8710606359E+02	4.5515527845E+02	3.2500000000E+02	0.000E+00	0.0
	25	2	5	5	0	0	-8.4947457693E+00	8.7900422043E+01	8.4728472377E+01	1.7508344082E+02	1.2520643880E+02	0.000E+00	0.0
	-5	1	9	9	0	501	-4.8938373666E+00	5.8509171675E+01	1.1707013955E+02	1.3103496781E+02	4.1800000000E+00	0.000E+00	0.0
	5	1	9	9	501	0	-3.6009084027E+00	2.9391250367E+01	-3.2341667172E+01	4.4048473015E+01	4.1800000000E+00	0.000E+00	0.0
</event>
<event>
    11  -1  1.0000000E+00  1.0000000E+00  -1.0000000E+00  -1.0000000E+00
	2212	-1	0	0	0	0	0.0000000000E+00	0.0000000000E+00	6.5000000000E+03	6.5000000000E+03	9.3827000000E-01	0.000E+00	0.0
	2212	-1	0	0	0	0	0.0000000000E+00	0.0000000000E+00	-6.5000000000E+03	6.5000000000E+03	9.3827000000E-01	0.000E+00	0.0
	2212	1	0	0	0	0	0.0000000000E+00	0.0000000000E+00	6.1955305480E+03	6.1955305480E+03	9.3827000000E-01	0.000E+00	0.0
	2212	1	0	0	0	0	0.0000000000E+00	0.0000000000E+00	-5.6866260112E+03	5.6866260112E+03	9.3827000000E-01	0.000E+00	0.0
	51	2	1	2	0	0	-7.5579577824E+01	3.1789491581E+01	-6.1243774126E+02	1.1714917678E+03	9.9528394474E+02	0.000E+00	0.0
	1000022	2	5	5	0	0	7.5579577824E+01	-3.1789491581E+01	-3.2012656293E+02	8.7694917812E+02	8.1230289938E+02	0.000E+00	0.0
	14	1	6	6	0	0	2.0870347222E+02	-1.1590919210E+02	-1.3971383055E+01	4.0350003677E+02	3.2500000000E+02	0.000E+00	0.0
	-14	1	6	6	0	0	-1.3312389440E+02	8.4119700521E+01	-3.0615517987E+02	4.7344914134E+02	3.2500000000E+02	0.000E+00	0.0
	25	2	5	5	0	0	-7.5579577824E+01	3.1789491581E+01	-1.8877797379E+02	2.4089426269E+02	1.2518018233E+02	0.000E+00	0.0
	-5	1	9	9	0	501	7.8919935604E+00	-3.8987207739E+01	-4.6179501060E+01	6.1092590776E+01	4.1800000000E+00	0.000E+00	0.0
	5	1	9	9	501	0	-8.3471571384E+01	7.0776699320E+01	-1.4259847273E+02	1.7980167191E+02	4.1800000000E+00	0.000E+00	0.0
</event>
<event>
    11  -1  1.0000000E+00  1.0000000E+00  -1.0000000E+00  -1.0000000E+00
	2212	-1	0	0	0	0	0.0000000000E+00	0.0000000000E+00	6.5000000000E+03	6.5000000000E+03	9.3827000000E-01	0.000E+00	0.0
	2212	-1	0	0	0	0	0.0000000000E+00	0.0000000000E+00	-6.5000000000E+03	6.5000000000E+03	9.3827000000E-01	0.000E+00	0.0
	2212	1	0	0	0	0	0.0000000000E+00	0.0000000000E+00	5.9084337003E+03	5.9084337003E+03	9.3827000000E-01	0.000E+00	0.0
	2212	1	0	0	0	0	0.0000000000E+00	0.0000000000E+00	-6.0758984958E+03	6.0758984958E+03	9.3827000000E-01	0.000E+00	0.0
	51	2	1	2	0	0	-4.6925747734E+01	5.3658864331E+01	1.8874139870E+02	1.0218812285E+03	1.0017667543E+03	0.000E+00	0.0
	1000022	2	5	5	0	0	4.6925747734E+01	-5.3658864331E+01	1.2232305519E+02	8.6471320320E+02	8.5304436839E+02	0.000E+00	0.0
	14	1	6	6	0	0	-1.5599132321E+02	1.0811482674E+02	-1.0501494370E+02	3.9073680026E+02	3.2500000000E+02	0.000E+00	0.0
	-14	1	6	6	0	0	2.0291707095E+02	-1.6177369107E+02	2.2733799889E+02	4.7397640294E+02	3.2500000000E+02	0.000E+00	0.0
	25	2	5	5	0	0	-4.6925747734E+01	5.3658864331E+01	4.5141740337E+01	1.5095460068E+02	1.2517274154E+02	0.000E+00	0.0
	-5	1	9	9	0	501	-2.7706238344E+01	8.0599431479E+01	-1.0607939503E+01	8.5987817616E+01	4.1800000000E+00	0.000E+00	0.0
	5	1	9	9	501	0	-1.9219509390E+01	-2.6940567149E+01	5.5749679840E+01	6.4966783064E+01	4.1800000000E+00	0.000E+00	0.0
</event>
<event>
    11  -1  1.0000000E+00  1.0000000E+00  -1.0000000E+00  -1.0000000E+00
	2212	-1	0	0	0	0	0.0000000000E+00	0.0000000000E+00	6.5000000000E+03	6.5000000000E+03	9.3827000000E-01	0.000E+00	0.0
	2212	-1	0	0	0	0	0.0000000000E+00	0.0000000000E+00	-6.5000000000E+03	6.5000000000E+03	9.3827000000E-01	0.000E+00	0.0
	2212	1	0	0	0	0	0.0000000000E+00	0.0000000000E+00	5.9633206669E+03	5.9633206669E+03	9.3827000000E-01	0.000E+00	0.0
	2212	1	0	0	0	0	0.0000000000E+00	0.0000000000E+00	-5.9970239783E+03	5.9970239783E+03	9.3827000000E-01	0.000E+00	0.0
	51	2	1	2	0	0	-6.5358491156E+01	3.2289085411E+00	1.5185557463E+02	1.0521832622E+03	1.0391089180E+03	0.000E+00	0.0
	1000022	2	5	5	0	0	6.5358491156E+01	-3.2289085411E+00	-9.0132392812E+01	8.5180877677E+02	8.4449522541E+02	0.000E+00	0.0
	14	1	6	6	0	0	3.7939686142E+01	1.6337925208E+02	1.6927452474E+02	4.0300256143E+02	3.2500000000E+02	0.000E+00	0.0
	-14	1	6	6	0	0	2.7418805013E+01	-1.6660816062E+02	-2.5940691755E+02	4.4880621534E+02	3.2500000000E+02	0.000E+00	0.0
	25	2	5	5	0	0	-6.5358491156E+01	3.2289085411E+00	1.2383570416E+02	1.8784657799E+02	1.2517546493E+02	0.000E+00	0.0
	-5	1	9	9	0	501	-2.5615087262E+01	-2.4733550587E+01	-1.6360540703E+01	3.9408386317E+01	4.1800000000E+00	0.000E+00	0.0
	5	1	9	9	501	0	-3.9743403894E+01	2.7962459128E+01	1.4019624486E+02	1.4843819167E+02	4.1800000000E+00	0.000E+00	0.0
</event>
<event>
    11  -1  1.0000000E+00  1.0000000E+00  -1.0000000E+00  -1.0000000E+00
	2212	-1	0	0	0	0	0.0000000000E+00	0.0000000000E+00	6.5000000000E+03	6.5000000000E+03	9.3827000000E-01	0.000E+00	0.0
	2212	-1	0	0	0	0	0.0000000000E+00	0.0000000000E+00	-6.5000000000E+03	6.5000000000E+03	9.3827000000E-01	0.000E+00	0.0
	2212	1	0	0	0	0	0.0000000000E+00	0.0000000000E+00	6.2818409414E+03	6.2818409414E+03	9.3827000000E-01	0.000E+00	0.0
	2212	1	0	0	0	0	0.0000000000E+00	0.0000000000E+00	-5.2585033896E+03	5.2585033896E+03	9.3827000000E-01	0.000E+00	0.0
	51	2	1	2	0	0	-9.7327807742E+00	8.0890929651E+01	-8.8773475369E+02	1.3704327745E+03	1.0408529805E+03	0.000E+00	0.0
	1000022	2	5	5	0	0	9.7327807742E+00	-8.0890929651E+01	-9.8893057925E+02	1.3063821114E+03	8.4971316382E+02	0.000E+00	0.0
	14	1	6	6	0	0	-4.8903274472E+01	-2.6045306831E+02	-7.5496613664E+02	8.6361229641E+02	3.2500000000E+02	0.000E+00	0.0
	-14	1	6	6	0	0	5.8636055246E+01	1.7956213866E+02	-2.3396444262E+02	4.4276981494E+02	3.2500000000E+02	0.000E+00	0.0
	25	2	5	5	0	0	-9.7327807742E+00	8.0890929651E+01	-3.4406972604E+01	1.5327355767E+02	1.2518336230E+02	0.000E+00	0.0
	-5	1	9	9	0	501	3.9779470378E+01	-5.7036815536E-02	-4.1987476930E+01	5.7989914087E+01	4.1800000000E+00	0.000E+00	0.0
	5	1	9	9	501	0	-4.9512251152E+01	8.0947966466E+01	7.5805043269E+00	9.5283643586E+01	4.1800000000E+00	0.000E+00	0.0
</event>
<event>
    11  -1  1.0000000E+00  1.0000000E+00  -1.0000000E+00  -1.0000000E+00
	2212	-1	0	0	0	0	0.0000000000E+00	0.0000000000E+00	6.5000000000E+03	6.5000000000E+03	9.3827000000E-01	0.000E+00	0.0
	2212	-1	0	0	0	0	0.0000000000E+00	0.0000000000E+00	-6.5000000000E+03	6.5000000000E+03	9.3827000000E-01	0.000E+00	0.0
	2212	1	0	0	0	0	0.0000000000E+00	0.0000000000E+00	5.4738132729E+03	5.4738132729E+03	9.3827000000E-01	0.000E+00	0.0
	2212	1	0	0	0	0	0.0000000000E+00	0.0000000000E+00	-6.2318399608E+03	6.2318399608E+03	9.3827000000E-01	0.000E+00	0.0
	51	2	1	2	0	0	-8.4196223203E+00	4.7146472904E+01	9.3193045660E+02	1.4041072422E+03	1.0491563715E+03	0.000E+00	0.0
	1000022	2	5	5	0	0	8.4196223203E+00	-4.7146472904E+01	4.5362018803E+02	9.6175008842E+02	8.4669845733E+02	0.000E+00	0.0
	14	1	6	6	0	0	2.6489703319E+00	4.6475331769E+01	5.2197841274E+02	6.1664693048E+02	3.2500000000E+02	0.000E+00	0.0
	-14	1	6	6	0	0	5.7706519885E+00	-9.3621804674E+01	-6.8358224714E+01	3.4510315794E+02	3.2500000000E+02	0.000E+00	0.0
	25	2	5	5	0	0	-8.4196223203E+00	4.7146472904E+01	3.0440649987E+02	3.3259667785E+02	1.2515411704E+02	0.000E+00	0.0
	-5	1	9	9	0	501	8.4981908439E+00	-4.1143768832E+01	7.3347249821E+01	8.4630493426E+01	4.1800000000E+00	0.000E+00	0.0
	5	1	9	9	501	0	-1.6917813164E+01	8.8290241736E+01	2.3105925005E+02	2.4796618443E+02	4.1800000000E+00	0.000E+00	0.0
</event>
<event>
    11  -1  1.0000000E+00  1.0000000E+00  -1.0000000E+00  -1.0000000E+00
	2212	-1	0	0	0	0	0.0000000000E+00	0.0000000000E+00	6.5000000000E+03	6.5000000000E+03	9.3827000000E-01	0.000E+00	0.0
	2212	-1	0	0	0	0	0.0000000000E+00	0.0000000000E+00	-6.5000000000E+03	6.5000000000E+03	9.3827000000E-01	0.000E+00	0.0
	2212	1	0	0	0	0	0.0000000000E+00	0.0000000000E+00	6.0449353299E+03	6.0449353299E+03	9.3827000000E-01	0.000E+00	0.0
	2212	1	0	0	0	0	0.0000000000E+00	0.0000000000E+00	-5.8796628847E+03	5.8796628847E+03	9.3827000000E-01	0.000E+00	0.0
	51	2	1	2	0	0	2.1059293040E+01	-5.0270778385E+01	-3.0317538864E+02	1.1063724419E+03	1.0626260015E+03	0.000E+00	0.0
	1000022	2	5	5	0	0	-2.1059293040E+01	5.0270778385E+01	9.2551213262E-01	8.6031992767E+02	8.5859121612E+02	0.000E+00	0.0
	14	1	6	6	0	0	2.3137729017E+02	-1.0790373991E+02	5.1818332260E+01	4.1651987594E+02	3.2500000000E+02	0.000E+00	0.0
	-14	1	6	6	0	0	-2.5243658321E+02	1.5817451830E+02	-5.0892820127E+01	4.4380005174E+02	3.2500000000E+02	0.000E+00	0.0
	25	2	5	5	0	0	2.1059293040E+01	-5.0270778385E+01	-1.6619795732E+02	2.1508185777E+02	1.2517108110E+02	0.000E+00	0.0
	-5	1	9	9	0	501	4.9890330990E+01	-4.9276283482E+01	-3.1010565942E+01	7.6787530499E+01	4.1800000000E+00	0.000E+00	0.0
	5	1	9	9	501	0	-2.8831037950E+01	-9.9449490378E-01	-1.3518739138E+02	1.3829432727E+02	4.1800000000E+00	0.000E+00	0.0
</event>
<event>
    11  -1  1.0000000E+00  1.0000000E+00  -1.0000000E+00  -1.0000000E+00
	2212	-1	0	0	0	0	0.0000000000E+00	0.0000000000E+00	6.5000000000E+03	6.5000000000E+03	9.3827000000E-01	0.000E+00	0.0
	2212	-1	0	0	0	0	0.0000000000E+00	0.0000000000E+00	-6.5000000000E+03	6.5000000000E+03	9.3827000000E-01	0.000E+00	0.0
	2212	1	0	0	0	0	0.0000000000E+00	0.0000000000E+00	5.1221614083E+03	5.1221614083E+03	9.3827000000E-01	0.000E+00	0.0
	2212	1	0	0	0	0	0.0000000000E+00	0.0000000000E+00	-6.2965217403E+03	6.2965217403E+03	9.3827000000E-01	0.000E+00	0.0
	51	2	1	2	0	0	4.1381580548E+01	-7.9871420352E+01	1.0089741464E+03	1.4654560730E+03	1.0589810173E+03	0.000E+00	0.0
	1000022	2	5	5	0	0	-4.1381580548E+01	7.9871420352E+01	1.1356722733E+03	1.4223845932E+03	8.5166574401E+02	0.000E+00	0.0
	14	1	6	6	0	0	8.5326587261E+01	1.3989650344E+02	9.6112264055E+02	1.0277321579E+03	3.2500000000E+02	0.000E+00	0.0
	-14	1	6	6	0	0	-1.2670816781E+02	-6.0025083087E+01	1.7454963279E+02	3.9465243531E+02	3.2500000000E+02	0.000E+00	0.0
	25	2	5	5	0	0	4.1381580548E+01	-7.9871420352E+01	3.8688058735E+01	1.5893225821E+02	1.2518313710E+02	0.000E+00	0.0
	-5	1	9	9	0	501	8.4036975247E+01	-6.3805921395E+01	4.0567103136E+01	1.1312193010E+02	4.1800000000E+00	0.000E+00	0.0
	5	1	9	9	501	0	-4.2655394698E+01	-1.6065498957E+01	-1.8790444018E+00	4.5810328109E+01	4.1800000000E+00	0.000E+00	0.0
</event>
<event>
    11  -1  1.0000000E+00  1.0000000E+00  -1.0000000E+00  -1.0000000E+00
	2212	-1	0	0	0	0	0.0000000000E+00	0.0000000000E+00	6.5000000000E+03	6.5000000000E+03	9.3827000000E-01	0.000E+00	0.0
	2212	-1	0	0	0	0	0.0000000000E+00	0.0000000000E+00	-6.5000000000E+03	6.5000000000E+03	9.3827000000E-01	0.000E+00	0.0
	2212	1	0	0	0	0	0.0000000000E+00	0.0000000000E+00	5.2647260901E+03	5.2647260901E+03	9.3827000000E-01	0.000E+00	0.0
	2212	1	0	0	0	0	0.0000000000E+00	0.0000000000E+00	-6.2753551785E+03	6.2753551785E+03	9.3827000000E-01	0.000E+00	0.0
	51	2	1	2	0	0	-7.2613974218E+01	1.3052120676E+02	1.0135193994E+03	1.4695311142E+03	1.0535613642E+03	0.000E+00	0.0
	1000022	2	5	5	0	0	7.2613974218E+01	-1.3052120676E+02	8.3084325753E+02	1.1947693906E+03	8.4549677907E+02	0.000E+00	0.0
	14	1	6	6	0	0	-7.3765682146E+01	1.8460368124E+02	4.0851302628E+02	5.5859447512E+02	3.2500000000E+02	0.000E+00	0.0
	-14	1	6	6	0	0	1.4637965636E+02	-3.1512488801E+02	4.2233023125E+02	6.3617491546E+02	3.2500000000E+02	0.000E+00	0.0
	25	2	5	5	0	0	-7.2613974218E+01	1.3052120676E+02	1.7978583085E+02	2.6514934084E+02	1.2519046811E+02	0.000E+00	0.0
	-5	1	9	9	0	501	-6.1988575490E+01	3.8178980698E+01	1.2867011439E+01	7.4048973266E+01	4.1800000000E+00	0.000E+00	0.0
	5	1	9	9	501	0	-1.0625398728E+01	9.2342226064E+01	1.6691881941E+02	1.9110036757E+02	4.1800000000E+00	0.000E+00	0.0
</event>
<event>
    11  -1  1.0000000E+00  1.0000000E+00  -1.0000000E+00  -1.0000000E+00
	2212	-1	0	0	0	0	0.0000000000E+00	0.0000000000E+00	6.5000000000E+03	6.5000000000E+03	9.3827000000E-01	0.000E+00	0.0
	2212	-1	0	0	0	0	0.0000000000E+00	0.0000000000E+00	-6.5000000000E+03	6.5000000000E+03	9.3827000000E-01	0.000E+00	0.0
	2212	1	0	0	0	0	0.0000000000E+00	0.0000000000E+00	5.0550572432E+03	5.0550572432E+03	9.3827000000E-01	0.000E+00	0.0
	2212	1	0	0	0	0	0.0000000000E+00	0.0000000000E+00	-6.3295240397E+03	6.3295240397E+03	9.3827000000E-01	0.000E+00	0.0
	51	2	1	2	0	0	-4.6712912237E+01	-4.1334708654E+01	1.2583464507E+03	1.6039446562E+03	9.9262884102E+02	0.000E+00	0.0
	1000022	2	5	5	0	0	4.6712912237E+01	4.1334708654E+01	1.1130076682E+03	1.4018063283E+03	8.4993191395E+02	0.000E+00	0.0
	14	1	6	6	0	0	5.3136120583E+01	1.5138659730E+02	9.5983634335E+02	1.0259883796E+03	3.2500000000E+02	0.000E+00	0.0
	-14	1	6	6	0	0	-6.4232083459E+00	-1.1005188865E+02	1.5317132487E+02	3.7581794870E+02	3.2500000000E+02	0.000E+00	0.0
	25	2	5	5	0	0	-4.6712912237E+01	-4.1334708654E+01	1.6145912832E+02	2.1361238875E+02	1.2518206021E+02	0.000E+00	0.0
	-5	1	9	9	0	501	-7.7490301107E+01	-2.2864991137E+01	4.6952731313E+01	9.3539221523E+01	4.1800000000E+00	0.000E+00	0.0
	5	1	9	9	501	0	3.0777388870E+01	-1.8469717517E+01	1.1450639701E+02	1.2007316722E+02	4.1800000000E+00	0.000E+00	0.0
</event>
<event>
    11  -1  1.0000000E+00  1.0000000E+00  -1.0000000E+00  -1.0000000E+00
	2212	-1	0	0	0	0	0.0000000000E+00	0.0000000000E+00	6.5000000000E+03	6.5000000000E+03	9.3827000000E-01	0.000E+00	0.0
	2212	-1	0	0	0	0	0.0000000000E+00	0.0000000000E+00	-6.5000000000E+03	6.5000000000E+03	9.3827000000E-01	0.000E+00	0.0
	2212	1	0	0	0	0	0.0000000000E+00	0.0000000000E+00	6.1273776698E+03	6.1273776698E+03	9.3827000000E-01	0.000E+00	0.0
	2212	1	0	0	0	0	0.0000000000E+00	0.0000000000E+00	-5.7645955880E+03	5.7645955880E+03	9.3827000000E-01	0.000E+00	0.0
	51	2	1	2	0	0	-9.5347953197E+01	-1.4865669728E+01	-2.0163688718E+02	1.0705522299E+03	1.0469538779E+03	0.000E+00	0.0
	1000022	2	5	5	0	0	9.5347953197E+01	1.4865669728E+01	-4.5220195361E+02	9.2643427229E+02	8.0279613459E+02	0.000E+00	0.0
	14	1	6	6	0	0	1.8965647204E+02	-1.6984904551E+02	-3.0691053649E+02	5.1442915261E+02	3.2500000000E+02	0.000E+00	0.0
	-14	1	6	6	0	0	-9.4308518841E+01	1.8471471524E+02	-1.4529141711E+02	4.1200511967E+02	3.2500000000E+02	0.000E+00	0.0
	25	2	5	5	0	0	-9.5347953197E+01	-1.4865669728E+01	8.9419871784E+01	1.8159246986E+02	1.2517064881E+02	0.000E+00	0.0
	-5	1	9	9	0	501	-1.1207595722E+02	-3.5912727685E+01	3.8565911192E+01	1.2391749716E+02	4.1800000000E+00	0.000E+00	0.0
	5	1	9	9	501	0	1.6728004025E+01	2.1047057957E+01	5.0853960592E+01	5.7674972694E+01	4.1800000000E+00	0.000E+00	0.0
</event>
<event>
    11  -1  1.0000000E+00  1.0000000E+00  -1.0000000E+00  -1.0000000E+00
	2212	-1	0	0	0	0	0.0000000000E+00	0.0000000000E+00	6.5000000000E+03	6.5000000000E+03	9.3827000000E-01	0.000E+00	0.0
	2212	-1	0	0	0	0	0.0000000000E+00	0.0000000000E+00	-6.5000000000E+03	6.5000000000E+03	9.3827000000E-01	0.000E+00	0.0
	2212	1	0	0	0	0	0.0000000000E+00	0.0000000000E+00	5.8162947510E+03	5.8162947510E+03	9.3827000000E-01	0.000E+00	0.0
	2212	1	0	0	0	0	0.0000000000E+00	0.0000000000E+00	-6.0953869530E+03	6.0953869530E+03	9.3827000000E-01	0.000E+00	0.0
	51	2	1	2	0	0	-1.3049023964E+02	-6.2036136542E+01	2.8636925473E+02	1.0997398743E+03	1.0519240734E+03	0.000E+00	0.0
	1000022	2	5	5	0	0	1.3049023964E+02	6.2036136542E+01	2.2370581845E+02	8.8929468336E+02	8.4848368032E+02	0.000E+00	0.0
	14	1	6	6	0	0	6.6468644951E+01	2.9912455959E+02	6.1724154738E+01	4.5091956510E+02	3.2500000000E+02	0.000E+00	0.0
	-14	1	6	6	0	0	6.4021594685E+01	-2.3708842305E+02	1.6198166372E+02	4.3837511826E+02	3.2500000000E+02	0.000E+00	0.0
	25	2	5	5	0	0	-1.3049023964E+02	-6.2036136542E+01	5.5386383508E+01	1.9902361263E+02	1.2516613770E+02	0.000E+00	0.0
	-5	1	9	9	0	501	-5.1913216489E+00	1.8438258903E+00	5.7884663805E+01	5.8296279626E+01	4.1800000000E+00	0.000E+00	0.0
	5	1	9	9	501	0	-1.2529891799E+02	-6.3879962432E+01	-2.4982802969E+00	1.4072733300E+02	4.1800000000E+00	0.000E+00	0.0
</event>
<event>
    11  -1  1.0000000E+00  1.0000000E+00  -1.0000000E+00  -1.0000000E+00
	2212	-1	0	0	0	0	0.0000000000E+00	0.0000000000E+00	6.5000000000E+03	6.5000000000E+03	9.3827000000E-01	0.000E+00	0.0
	2212	-1	0	0	0	0	0.0000000000E+00	0.0000000000E+00	-6.5000000000E+03	6.5000000000E+03	9.3827000000E-01	0.000E+00	0.0
	2212	1	0	0	0	0	0.0000000000E+00	0.0000000000E+00	5.0738926964E+03	5.0738926964E+03	9.3827000000E-01	0.000E+00	0.0
	2212	1	0	0	0	0	0.0000000000E+00	0.0000000000E+00	-6.3040899314E+03	6.3040899314E+03	9.3827000000E-01	0.000E+00	0.0
	51	2	1	2	0	0	1.7281036512E+01	1.0031023783E+02	1.1160545761E+03	1.5406147195E+03	1.0571447957E+03	0.000E+00	0.0
	1000022	2	5	5	0	0	-1.7281036512E+01	-1.0031023783E+02	1.1437917917E+03	1.4389969745E+03	8.6723229403E+02	0.000E+00	0.0
	14	1	6	6	0	0	-1.4868225069E+01	-1.1869285347E+02	1.0418183016E+03	1.0978704072E+03	3.2500000000E+02	0.000E+00	0.0
	-14	1	6	6	0	0	-2.4128114434E+00	1.8382615641E+01	1.0197349017E+02	3.4112656729E+02	3.2500000000E+02	0.000E+00	0.0
	25	2	5	5	0	0	1.7281036512E+01	1.0031023783E+02	8.6405443281E+01	1.8302039777E+02	1.2517902114E+02	0.000E+00	0.0
	-5	1	9	9	0	501	6.1236865077E+01	8.8297296605E+01	3.2557738704E+01	1.1235588539E+02	4.1800000000E+00	0.000E+00	0.0
	5	1	9	9	501	0	-4.3955828565E+01	1.2012941228E+01	5.3847704577E+01	7.0664512381E+01	4.1800000000E+00	0.000E+00	0.0
</event>
<event>
    11  -1  1.0000000E+00  1.0000000E+00  -1.0000000E+00  -1.0000000E+00
	2212	-1	0	0	0	0	0.0000000000E+00	0.0000000000E+00	6.5000000000E+03	6.5000000000E+03	9.3827000000E-01	0.000E+00	0.0
	2212	-1	0	0	0	0	0.0000000000E+00	0.0000000000E+00	-6.5000000000E+03	6.5000000000E+03	9.3827000000E-01	0.000E+00	0.0
	2212	1	0	0	0	0	0.0000000000E+00	0.0000000000E+00	5.8786757942E+03	5.8786757942E+03	9.3827000000E-01	0.000E+00	0.0
	2212	1	0	0	0	0	0.0000000000E+00	0.0000000000E+00	-6.0533273055E+03	6.0533273055E+03	9.3827000000E-01	0.000E+00	0.0
	51	2	1	2	0	0	8.6252150565E+01	1.0529042526E+02	1.0424614449E+02	1.0674769293E+03	1.0536195845E+03	0.000E+00	0.0
	1000022	2	5	5	0	0	-8.6252150565E+01	-1.0529042526E+02	2.1405286423E+02	8.7892681076E+02	8.4152730369E+02	0.000E+00	0.0
	14	1	6	6	0	0	1.2374148287E+02	-1.7692029681E+02	2.7956886727E+02	4.7999635161E+02	3.2500000000E+02	0.000E+00	0.0
	-14	1	6	6	0	0	-2.0999363344E+02	7.1629871547E+01	-6.5516003043E+01	3.9893045915E+02	3.2500000000E+02	0.000E+00	0.0
	25	2	5	5	0	0	8.6252150565E+01	1.0529042526E+02	-3.9401352986E+01	1.8907008958E+02	1.2517797341E+02	0.000E+00	0.0
	-5	1	9	9	0	501	4.8786875301E+01	1.2500997485E+02	-4.9880675610E+00	1.3435031162E+02	4.1800000000E+00	0.000E+00	0.0
	5	1	9	9	501	0	3.7465275264E+01	-1.9719549585E+01	-3.4413285425E+01	5.4719777962E+01	4.1800000000E+00	0.000E+00	0.0
</event>
<event>
    11  -1  1.0000000E+00  1.0000000E+00  -1.0000000E+00  -1.0000000E+00
	2212	-1	0	0	0	0	0.0000000000E+00	0.0000000000E+00	6.5000000000E+03	6.5000000000E+03	9.3827000000E-01	0.000E+00	0.0
	2212	-1	0	0	0	0	0.0000000000E+00	0.0000000000E+00	-6.5000000000E+03	6.5000000000E+03	9.3827000000E-01	0.000E+00	0.0
	2212	1	0	0	0	0	0.0000000000E+00	0.0000000000E+00	5.0953237989E+03	5.0953237989E+03	9.3827000000E-01	0.000E+00	0.0
	2212	1	0	0	0	0	0.0000000000E+00	0.0000000000E+00	-6.3009329395E+03	6.3009329395E+03	9.3827000000E-01	0.000E+00	0.0
	51	2	1	2	0	0	3.5697893119E+01	-1.1872646695E+02	1.3196839473E+03	1.6957107900E+03	1.0575911540E+03	0.000E+00	0.0
	1000022	2	5	5	0	0	-3.5697893119E+01	1.1872646695E+02	8.8692335272E+02	1.2395950807E+03	8.5708378645E+02	0.000E+00	0.0
	14	1	6	6	0	0	-2.8493591753E+02	-2.2411264792E+01	4.4207846179E+02	6.1866720316E+02	3.2500000000E+02	0.000E+00	0.0
	-14	1	6	6	0	0	2.4923802441E+02	1.4113773174E+02	4.4484489093E+02	6.2092787755E+02	3.2500000000E+02	0.000E+00	0.0
	25	2	5	5	0	0	3.5697893119E+01	-1.1872646695E+02	3.1868578797E+02	3.6414818090E+02	1.2519166376E+02	0.000E+00	0.0
	-5	1	9	9	0	501	5.7126609734E+01	-1.6674584846E+01	5.7381286814E+01	8.2774245971E+01	4.1800000000E+00	0.000E+00	0.0
	5	1	9	9	501	0	-2.1428716615E+01	-1.0205188210E+02	2.6130450115E+02	2.8137393493E+02	4.1800000000E+00	0.000E+00	0.0
</event>
<event>
    11  -1  1.0000000E+00  1.0000000E+00  -1.0000000E+00  -1.0000000E+00
	2212	-1	0	0	0	0	0.0000000000E+00	0.0000000000E+00	6.5000000000E+03	6.5000000000E+03	9.3827000000E-01	0.000E+00	0.0
	2212	-1	0	0	0	0	0.0000000000E+00	0.0000000000E+00	-6.5000000000E+03	6.5000000000E+03	9.3827000000E-01	0.000E+00	0.0
	2212	1	0	0	0	0	0.0000000000E+00	0.0000000000E+00	6.1978179775E+03	6.1978179775E+03	9.3827000000E-01	0.000E+00	0.0
	2212	1	0	0	0	0	0.0000000000E+00	0.0000000000E+00	-5.5741643383E+03	5.5741643383E+03	9.3827000000E-01	0.000E+00	0.0
	51	2	1	2	0	0	-5.3725890923E+01	-1.4022871924E+02	-6.1719748819E+02	1.2339233670E+03	1.0578674639E+03	0.000E+00	0.0
	1000022	2	5	5	0	0	5.3725890923E+01	1.4022871924E+02	-5.2095689458E+02	1.0071823073E+03	8.4880477677E+02	0.000E+00	0.0
	14	1	6	6	0	0	2.3664522447E+02	2.0590661311E+01	-6.7796864000E+01	4.0822340987E+02	3.2500000000E+02	0.000E+00	0.0
	-14	1	6	6	0	0	-1.8291933355E+02	1.1963805793E+02	-4.5316003058E+02	5.9895889742E+02	3.2500000000E+02	0.000E+00	0.0
	25	2	5	5	0	0	-5.3725890923E+01	-1.4022871924E+02	-1.0269674453E+02	2.2083537691E+02	1.2518417354E+02	0.000E+00	0.0
	-5	1	9	9	0	501	-2.1824296436E+00	-4.9382130790E+01	2.5210979567E+01	5.5645518519E+01	4.1800000000E+00	0.000E+00	0.0
	5	1	9	9	501	0	-5.1543461280E+01	-9.0846588449E+01	-1.2790772409E+02	1.6518985840E+02	4.1800000000E+00	0.000E+00	0.0
</event>
<event>
    11  -1  1.0000000E+00  1.0000000E+00  -1.0000000E+00  -1.0000000E+00
	2212	-1	0	0	0	0	0.0000000000E+00	0.0000000000E+00	6.5000000000E+03	6.5000000000E+03	9.3827000000E-01	0.000E+00	0.0
	2212	-1	0	0	0	0	0.0000000000E+00	0.0000000000E+00	-6.5000000000E+03	6.5000000000E+03	9.3827000000E-01	0.000E+00	0.0
	2212	1	0	0	0	0	0.0000000000E+00	0.0000000000E+00	6.2853277302E+03	6.2853277302E+03	9.3827000000E-01	0.000E+00	0.0
	2212	1	0	0	0	0	0.0000000000E+00	0.0000000000E+00	-5.2176485115E+03	5.2176485115E+03	9.3827000000E-01	0.000E+00	0.0
	51	2	1	2	0	0	-7.1916119401E+01	5.5491338702E+01	-1.2233952465E+03	1.6143383676E+03	1.0493527620E+03	0.000E+00	0.0
	1000022	2	5	5	0	0	7.1916119401E+01	-5.5491338702E+01	-7.3215657204E+02	1.1275971143E+03	8.5274309688E+02	0.000E+00	0.0
	14	1	6	6	0	0	7.3506908371E+00	-2.8750598236E+02	-2.6017646780E+02	5.0599458193E+02	3.2500000000E+02	0.000E+00	0.0
	-14	1	6	6	0	0	6.4565428564E+01	2.3201464366E+02	-4.7198010424E+02	6.2160253236E+02	3.2500000000E+02	0.000E+00	0.0
	25	2	5	5	0	0	-7.1916119401E+01	5.5491338702E+01	-3.3552264668E+02	3.6942664409E+02	1.2509749008E+02	0.000E+00	0.0
	-5	1	9	9	0	501	-4.6274602280E+01	5.2253401941E+01	-5.8493583812E+01	9.1163197496E+01	4.1800000000E+00	0.000E+00	0.0
	5	1	9	9	501	0	-2.5641517121E+01	3.2379367609E+00	-2.7702906287E+02	2.7826344659E+02	4.1800000000E+00	0.000E+00	0.0
</event>
<event>
    11  -1  1.0000000E+00  1.0000000E+00  -1.0000000E+00  -1.0000000E+00
	2212	-1	0	0	0	0	0.0000000000E+00	0.0000000000E+00	6.5000000000E+03	6.5000000000E+03	9.3827000000E-01	0.000E+00	0.0
	2212	-1	0	0	0	0	0.0000000000E+00	0.0000000000E+00	-6.5000000000E+03	6.5000000000E+03	9.3827000000E-01	0.000E+00	0.0
	2212	1	0	0	0	0	0.0000000000E+00	0.0000000000E+00	6.2750528615E+03	6.2750528615E+03	9.3827000000E-01	0.000E+00	0.0
	2212	1	0	0	0	0	0.0000000000E+00	0.0000000000E+00	-5.2709909650E+03	5.2709909650E+03	9.3827000000E-01	0.000E+00	0.0
	51	2	1	2	0	0	3.1403562757E+01	-1.0972166088E+02	-8.9910497909E+02	1.3882590005E+03	1.0515932019E+03	0.000E+00	0.0
	1000022	2	5	5	0	0	-3.1403562757E+01	1.0972166088E+02	-9.3812425921E+02	1.2721853429E+03	8.5167681335E+02	0.000E+00	0.0
	14	1	6	6	0	0	-1.6202798819E+02	-1.7341363310E+02	-5.2084668837E+02	6.5820333476E+02	3.2500000000E+02	0.000E+00	0.0
	-14	1	6	6	0	0	1.3062442544E+02	2.8313529398E+02	-4.1727757085E+02	6.1398200816E+02	3.2500000000E+02	0.000E+00	0.0
	25	2	5	5	0	0	3.1403562757E+01	-1.0972166088E+02	-6.5937637376E+01	1.8177083058E+02	1.2517122756E+02	0.000E+00	0.0
	-5	1	9	9	0	501	2.9448351973E+01	1.4273323598E+01	-4.5215050394E+01	5.5971478296E+01	4.1800000000E+00	0.000E+00	0.0
	5	1	9	9	501	0	1.9552107844E+00	-1.2399498448E+02	-2.0722586982E+01	1.2579935229E+02	4.1800000000E+00	0.000E+00	0.0
</event>
<event>
    11  -1  1.0000000E+00  1.0000000E+00  -1.0000000E+00  -1.0000000E+00
	2212	-1	0	0	0	0	0.0000000000E+00	0.0000000000E+00	6.5000000000E+03	6.5000000000E+03	9.3827000000E-01	0.000E+00	0.0
	2212	-1	0	0	0	0	0.0000000000E+00	0.0000000000E+00	-6.5000000000E+03	6.5000000000E+03	9.3827000000E-01	0.000E+00	0.0
	2212	1	0	0	0	0	0.0000000000E+00	0.0000000000E+00	5.3174341688E+03	5.3174341688E+03	9.3827000000E-01	0.000E+00	0.0
	2212	1	0	0	0	0	0.0000000000E+00	0.0000000000E+00	-6.2657789531E+03	6.2657789531E+03	9.3827000000E-01	0.000E+00	0.0
	51	2	1	2	0	0	-1.4218412052E+02	-5.4053032513E+00	1.0263017107E+03	1.4769793400E+03	1.0525812216E+03	0.000E+00	0.0
	1000022	2	5	5	0	0	1.4218412052E+02	5.4053032513E+00	7.0335364558E+02	1.1070523887E+03	8.4297870621E+02	0.000E+00	0.0
	14	1	6	6	0	0	-1.7876409192E+02	8.0816299472E+01	4.1113475581E+02	5.5959330076E+02	3.2500000000E+02	0.000E+00	0.0
	-14	1	6	6	0	0	3.2094821244E+02	-7.5410996220E+01	2.9221888977E+02	5.4745908793E+02	3.2500000000E+02	0.000E+00	0.0
	25	2	5	5	0	0	-1.4218412052E+02	-5.4053032513E+00	2.4499113874E+02	3.0973448941E+02	1.2517689258E+02	0.000E+00	0.0
	-5	1	9	9	0	501	5.5488038746E+00	-5.0467420142E+00	1.0760969388E+02	1.0795173666E+02	4.1800000000E+00	0.000E+00	0.0
	5	1	9	9	501	0	-1.4773292440E+02	-3.5856123708E-01	1.3738144486E+02	2.0178275275E+02	4.1800000000E+00	0.000E+00	0.0
</event>
<event>
    11  -1  1.0000000E+00  1.0000000E+00  -1.0000000E+00  -1.0000000E+00
	2212	-1	0	0	0	0	0.0000000000E+00	0.0000000000E+00	6.5000000000E+03	6.5000000000E+03	9.3827000000E-01	0.000E+00	0.0
	2212	-1	0	0	0	0	0.0000000000E+00	0.0000000000E+00	-6.5000000000E+03	6.5000000000E+03	9.3827000000E-01	0.000E+00	0.0
	2212	1	0	0	0	0	0.0000000000E+00	0.0000000000E+00	5.2924981333E+03	5.2924981333E+03	9.3827000000E-01	0.000E+00	0.0
	2212	1	0	0	0	0	0.0000000000E+00	0.0000000000E+00	-6.2143412425E+03	6.2143412425E+03	9.3827000000E-01	0.000E+00	0.0
	51	2	1	2	0	0	6.3724692213E+01	-1.0452359447E+02	1.3297318082E+03	1.7784562496E+03	1.1746207609E+03	0.000E+00	0.0
	1000022	2	5	5	0	0	-6.3724692213E+01	1.0452359447E+02	2.7839712688E+02	8.2631974820E+02	7.6831851976E+02	0.000E+00	0.0
	14	1	6	6	0	0	1.3468902537E+02	8.1699201383E+01	2.5886765968E+02	4.4435724175E+02	3.2500000000E+02	0.000E+00	0.0
	-14	1	6	6	0	0	-1.9841371759E+02	2.2824393085E+01	1.9529467197E+01	3.8196250645E+02	3.2500000000E+02	0.000E+00	0.0
	25	2	5	5	0	0	6.3724692213E+01	-1.0452359447E+02	6.4344598231E+02	6.6684087607E+02	1.2517189644E+02	0.000E+00	0.0
	-5	1	9	9	0	501	7.1156026729E+01	-9.2914205240E+01	6.4173875857E+02	6.5233606088E+02	4.1800000000E+00	0.000E+00	0.0
	5	1	9	9	501	0	-7.4313345153E+00	-1.1609389227E+01	1.7072237375E+00	1.4504815194E+01	4.1800000000E+00	0.000E+00	0.0
</event>
<event>
    11  -1  1.0000000E+00  1.0000000E+00  -1.0000000E+00  -1.0000000E+00
	2212	-1	0	0	0	0	0.0000000000E+00	0.0000000000E+00	6.5000000000E+03	6.5000000000E+03	9.3827000000E-01	0.000E+00	0.0
	2212	-1	0	0	0	0	0.0000000000E+00	0.0000000000E+00	-6.5000000000E+03	6.5000000000E+03	9.3827000000E-01	0.000E+00	0.0
	2212	1	0	0	0	0	0.0000000000E+00	0.0000000000E+00	5.3885041175E+03	5.3885041175E+03	9.3827000000E-01	0.000E+00	0.0
	2212	1	0	0	0	0	0.0000000000E+00	0.0000000000E+00	-6.1946602760E+03	6.1946602760E+03	9.3827000000E-01	0.000E+00	0.0
	51	2	1	2	0	0	-3.2604772508E+01	1.6474818785E+02	1.0563044195E+03	1.5816192485E+03	1.1651332044E+03	0.000E+00	0.0
	1000022	2	5	5	0	0	3.2604772508E+01	-1.6474818785E+02	3.7914576624E+02	9.4121322405E+02	8.4494129055E+02	0.000E+00	0.0
	14	1	6	6	0	0	-2.3780207501E+02	5.3293896653E+00	2.1722829380E+02	4.5759300793E+02	3.2500000000E+02	0.000E+00	0.0
	-14	1	6	6	0	0	2.7040684752E+02	-1.7007757751E+02	1.6191747244E+02	4.8362021612E+02	3.2500000000E+02	0.000E+00	0.0
	25	2	5	5	0	0	-3.2604772508E+01	1.6474818785E+02	4.2701039221E+02	4.7562238243E+02	1.2519480431E+02	0.000E+00	0.0
	-5	1	9	9	0	501	2.4681707135E+01	1.4733141003E+02	3.0656242295E+02	3.4104797700E+02	4.1800000000E+00	0.000E+00	0.0
	5	1	9	9	501	0	-5.7286479643E+01	1.7416777818E+01	1.2044796926E+02	1.3457440543E+02	4.1800000000E+00	0.000E+00	0.0
</event>
<event>
    11  -1  1.0000000E+00  1.0000000E+00  -1.0000000E+00  -1.0000000E+00
	2212	-1	0	0	0	0	0.0000000000E+00	0.0000000000E+00	6.5000000000E+03	6.5000000000E+03	9.3827000000E-01	0.000E+00	0.0
	2212	-1	0	0	0	0	0.0000000000E+00	0.0000000000E+00	-6.5000000000E+03	6.5000000000E+03	9.3827000000E-01	0.000E+00	0.0
	2212	1	0	0	0	0	0.0000000000E+00	0.0000000000E+00	6.1594725245E+03	6.1594725245E+03	9.3827000000E-01	0.000E+00	0.0
	2212	1	0	0	0	0	0.0000000000E+00	0.0000000000E+00	-5.6947084464E+03	5.6947084464E+03	9.3827000000E-01	0.000E+00	0.0
	51	2	1	2	0	0	1.3625836773E+01	-1.0625516277E+02	-5.6244975893E+02	1.1936168369E+03	1.0473278374E+03	0.000E+00	0.0
	1000022	2	5	5	0	0	-1.3625836773E+01	1.0625516277E+02	-2.8864494093E+02	9.0465312087E+02	8.5065007149E+02	0.000E+00	0.0
	14	1	6	6	0	0	2.1368649484E+02	2.9168796769E+01	2.8400977640E+01	3.9108100480E+02	3.2500000000E+02	0.000E+00	0.0
	-14	1	6	6	0	0	-2.2731233161E+02	7.7086366004E+01	-3.1704591857E+02	5.1357211607E+02	3.2500000000E+02	0.000E+00	0.0
	25	2	5	5	0	0	1.3625836773E+01	-1.0625516277E+02	-1.7611913722E+02	2.4116590821E+02	1.2516877303E+02	0.000E+00	0.0
	-5	1	9	9	0	501	5.5966527513E+00	2.1515268010E+01	-7.3910123134E+01	7.7294294623E+01	4.1800000000E+00	0.000E+00	0.0
	5	1	9	9	501	0	8.0291840220E+00	-1.2777043078E+02	-1.0220901409E+02	1.6387161359E+02	4.1800000000E+00	0.000E+00	0.0
</event>
<event>
    11  -1  1.0000000E+00  1.0000000E+00  -1.0000000E+00  -1.0000000E+00
	2212	-1	0	0	0	0	0.0000000000E+00	0.0000000000E+00	6.5000000000E+03	6.5000000000E+03	9.3827000000E-01	0.000E+00	0.0
	2212	-1	0	0	0	0	0.0000000000E+00	0.0000000000E+00	-6.5000000000E+03	6.5000000000E+03	9.3827000000E-01	0.000E+00	0.0
	2212	1	0	0	0	0	0.0000000000E+00	0.0000000000E+00	5.4859884876E+03	5.4859884876E+03	9.3827000000E-01	0.000E+00	0.0
	2212	1	0	0	0	0	0.0000000000E+00	0.0000000000E+00	-6.2248295369E+03	6.2248295369E+03	9.3827000000E-01	0.000E+00	0.0
	51	2	1	2	0	0	-7.8384277647E+01	5.5204268686E+01	8.8509087424E+02	1.3815504086E+03	1.0564582669E+03	0.000E+00	0.0
	1000022	2	5	5	0	0	7.8384277647E+01	-5.5204268686E+01	4.6386496223E+02	9.7220288048E+02	8.4900891124E+02	0.000E+00	0.0
	14	1	6	6	0	0	1.5799559272E+02	2.1452624600E+02	1.8026757655E+02	4.5728056672E+02	3.2500000000E+02	0.000E+00	0.0
	-14	1	6	6	0	0	-7.9611315078E+01	-2.6973051469E+02	2.8359738568E+02	5.1492231376E+02	3.2500000000E+02	0.000E+00	0.0
	25	2	5	5	0	0	-7.8384277647E+01	5.5204268686E+01	2.7497608714E+02	3.1697909500E+02	1.2518902469E+02	0.000E+00	0.0
	-5	1	9	9	0	501	-1.2115550907E+01	1.6481601812E+01	-9.0354710372E+00	2.2749547445E+01	4.1800000000E+00	0.000E+00	0.0
	5	1	9	9	501	0	-6.6268726740E+01	3.8722666873E+01	2.8401155818E+02	2.9422954756E+02	4.1800000000E+00	0.000E+00	0.0
</event>
<event>
    11  -1  1.0000000E+00  1.0000000E+00  -1.0000000E+00  -1.0000000E+00
	2212	-1	0	0	0	0	0.0000000000E+00	0.0000000000E+00	6.5000000000E+03	6.5000000000E+03	9.3827000000E-01	0.000E+00	0.0
	2212	-1	0	0	0	0	0.0000000000E+00	0.0000000000E+00	-6.5000000000E+03	6.5000000000E+03	9.3827000000E-01	0.000E+00	0.0
	2212	1	0	0	0	0	0.0000000000E+00	0.0000000000E+00	4.9205037546E+03	4.9205037546E+03	9.3827000000E-01	0.000E+00	0.0
	2212	1	0	0	0	0	0.0000000000E+00	0.0000000000E+00	-6.3232819263E+03	6.3232819263E+03	9.3827000000E-01	0.000E+00	0.0
	51	2	1	2	0	0	8.4979742235E+01	-2.0302078839E+02	1.4010412882E+03	1.7685750829E+03	1.0566466466E+03	0.000E+00	0.0
	1000022	2	5	5	0	0	-8.4979742235E+01	2.0302078839E+02	1.0977624560E+03	1.3598132857E+03	7.7173231446E+02	0.000E+00	0.0
	14	1	6	6	0	0	1.3043211224E+02	1.0519275095E+02	7.2310733596E+02	8.1030072817E+02	3.2500000000E+02	0.000E+00	0.0
	-14	1	6	6	0	0	-2.1541185447E+02	9.7828037438E+01	3.7465512001E+02	5.4951255755E+02	3.2500000000E+02	0.000E+00	0.0
	25	2	5	5	0	0	8.4979742235E+01	-2.0302078839E+02	3.0501571574E+02	3.9640103341E+02	1.2514070215E+02	0.000E+00	0.0
	-5	1	9	9	0	501	9.2549848515E+00	-3.8561354282E+01	-2.0261644389E+00	3.9927566054E+01	4.1800000000E+00	0.000E+00	0.0
	5	1	9	9	501	0	7.5724757384E+01	-1.6445943410E+02	3.0704188018E+02	3.5647346736E+02	4.1800000000E+00	0.000E+00	0.0
</event>
<event>
    11  -1  1.0000000E+00  1.0000000E+00  -1.0000000E+00  -1.0000000E+00
	2212	-1	0	0	0	0	0.0000000000E+00	0.0000000000E+00	6.5000000000E+03	6.5000000000E+03	9.3827000000E-01	0.000E+00	0.0
	2212	-1	0	0	0	0	0.0000000000E+00	0.0000000000E+00	-6.5000000000E+03	6.5000000000E+03	9.3827000000E-01	0.000E+00	0.0
	2212	1	0	0	0	0	0.0000000000E+00	0.0000000000E+00	6.2080577597E+03	6.2080577597E+03	9.3827000000E-01	0.000E+00	0.0
	2212	1	0	0	0	0	0.0000000000E+00	0.0000000000E+00	-5.5627417247E+03	5.5627417247E+03	9.3827000000E-01	0.000E+00	0.0
	51	2	1	2	0	0	-5.3374968925E+01	-6.3009764839E+01	-6.6816624031E+02	1.2440925869E+03	1.0461840767E+03	0.000E+00	0.0
	1000022	2	5	5	0	0	5.3374968925E+01	6.3009764839E+01	-5.3142397136E+02	1.0408915551E+03	8.9119283793E+02	0.000E+00	0.0
	14	1	6	6	0	0	-2.5114924872E+02	-6.3728556020E+01	-1.5313997552E+02	4.4296063717E+02	3.2500000000E+02	0.000E+00	0.0
	-14	1	6	6	0	0	3.0452421764E+02	1.2673832086E+02	-3.7828399584E+02	5.9793091793E+02	3.2500000000E+02	0.000E+00	0.0
	25	2	5	5	0	0	-5.3374968925E+01	-6.3009764839E+01	-1.1389206366E+02	1.8830896043E+02	1.2517885061E+02	0.000E+00	0.0
	-5	1	9	9	0	501	-2.7852976035E+01	3.5951161811E+01	-4.9957010491E+01	6.7686406366E+01	4.1800000000E+00	0.000E+00	0.0
	5	1	9	9	501	0	-2.5521992890E+01	-9.8960926650E+01	-6.3935053171E+01	1.2062255406E+02	4.1800000000E+00	0.000E+00	0.0
</event>
<event>
    11  -1  1.0000000E+00  1.0000000E+00  -1.0000000E+00  -1.0000000E+00
	2212	-1	0	0	0	0	0.0000000000E+00	0.0000000000E+00	6.5000000000E+03	6.5000000000E+03	9.3827000000E-01	0.000E+00	0.0
	2212	-1	0	0	0	0	0.0000000000E+00	0.0000000000E+00	-6.5000000000E+03	6.5000000000E+03	9.3827000000E-01	0.000E+00	0.0
	2212	1	0	0	0	0	0.0000000000E+00	0.0000000000E+00	6.2943959862E+03	6.2943959862E+03	9.3827000000E-01	0.000E+00	0.0
	2212	1	0	0	0	0	0.0000000000E+00	0.0000000000E+00	-5.1616054927E+03	5.1616054927E+03	9.3827000000E-01	0.000E+00	0.0
	51	2	1	2	0	0	-2.3990800431E+01	-2.6921978040E+01	-9.4978129023E+02	1.4156630890E+03	1.0491506711E+03	0.000E+00	0.0
	1000022	2	5	5	0	0	2.3990800431E+01	2.6921978040E+01	-1.1259341491E+03	1.4135463605E+03	8.5386489184E+02	0.000E+00	0.0
	14	1	6	6	0	0	-4.4117862258E+01	4.5848253691E+01	-1.1704111960E+02	3.5124360751E+02	3.2500000000E+02	0.000E+00	0.0
	-14	1	6	6	0	0	6.8108662690E+01	-1.8926275651E+01	-1.0088930295E+03	1.0623027529E+03	3.2500000000E+02	0.000E+00	0.0
	25	2	5	5	0	0	-2.3990800431E+01	-2.6921978040E+01	-6.8563443976E+00	1.3045216061E+02	1.2518148961E+02	0.000E+00	0.0
	-5	1	9	9	0	501	2.9712703229E+01	-1.9833862421E+01	4.3451730891E+01	5.6407022162E+01	4.1800000000E+00	0.000E+00	0.0
	5	1	9	9	501	0	-5.3703503661E+01	-7.0881156190E+00	-5.0308075288E+01	7.4045138447E+01	4.1800000000E+00	0.000E+00	0.0
</event>
<event>
    11  -1  1.0000000E+00  1.0000000E+00  -1.0000000E+00  -1.0000000E+00
	2212	-1	0	0	0	0	0.0000000000E+00	0.0000000000E+00	6.5000000000E+03	6.5000000000E+03	9.3827000000E-01	0.000E+00	0.0
	2212	-1	0	0	0	0	0.0000000000E+00	0.0000000000E+00	-6.5000000000E+03	6.5000000000E+03	9.3827000000E-01	0.000E+00	0.0
	2212	1	0	0	0	0	0.0000000000E+00	0.0000000000E+00	6.2473905326E+03	6.2473905326E+03	9.3827000000E-01	0.000E+00	0.0
	2212	1	0	0	0	0	0.0000000000E+00	0.0000000000E+00	-5.4305572139E+03	5.4305572139E+03	9.3827000000E-01	0.000E+00	0.0
	51	2	1	2	0	0	8.7343356777E+01	-2.9305808532E+01	-9.1192025140E+02	1.3858902294E+03	1.0395217605E+03	0.000E+00	0.0
	1000022	2	5	5	0	0	-8.7343356777E+01	2.9305808532E+01	-5.9263657395E+02	1.0492488572E+03	8.6093981389E+02	0.000E+00	0.0
	14	1	6	6	0	0	-3.6849074412E+00	2.4424546422E+02	-4.9193647310E+02	6.3819739807E+02	3.2500000000E+02	0.000E+00	0.0
	-14	1	6	6	0	0	-8.3658449336E+01	-2.1493965568E+02	-1.0070010085E+02	4.1105145912E+02	3.2500000000E+02	0.000E+00	0.0
	25	2	5	5	0	0	8.7343356777E+01	-2.9305808532E+01	-2.2419674473E+02	2.7280339635E+02	1.2517915291E+02	0.000E+00	0.0
	-5	1	9	9	0	501	-1.8668492758E+01	-4.4121927215E+01	-6.2988125626E+01	7.9247923966E+01	4.1800000000E+00	0.000E+00	0.0
	5	1	9	9	501	0	1.0601184953E+02	1.4816118683E+01	-1.6120861910E+02	1.9355547238E+02	4.1800000000E+00	0.000E+00	0.0
</event>
<event>
    11  -1  1.0000000E+00  1.0000000E+00  -1.0000000E+00  -1.0000000E+00
	2212	-1	0	0	0	0	0.0000000000E+00	0.0000000000E+00	6.5000000000E+03	6.5000000000E+03	9.3827000000E-01	0.000E+00	0.0
	2212	-1	0	0	0	0	0.0000000000E+00	0.0000000000E+00	-6.5000000000E+03	6.5000000000E+03	9.3827000000E-01	0.000E+00	0.0
	2212	1	0	0	0	0	0.0000000000E+00	0.0000000000E+00	6.2225798891E+03	6.2225798891E+03	9.3827000000E-01	0.000E+00	0.0
	2212	1	0	0	0	0	0.0000000000E+00	0.0000000000E+00	-5.4322765597E+03	5.4322765597E+03	9.3827000000E-01	0.000E+00	0.0
	51	2	1	2	0	0	9.8522316464E+01	2.9439559806E+01	-9.9991329804E+02	1.4816314518E+03	1.0884998029E+03	0.000E+00	0.0
	1000022	2	5	5	0	0	-9.8522316464E+01	-2.9439559806E+01	-4.2737674162E+02	9.4770159158E+02	8.3959162269E+02	0.000E+00	0.0
	14	1	6	6	0	0	2.0056319895E+02	-4.1894641045E+01	-3.0120064398E+02	4.8818806382E+02	3.2500000000E+02	0.000E+00	0.0
	-14	1	6	6	0	0	-2.9908551542E+02	1.2455081240E+01	-1.2617609764E+02	4.5951352776E+02	3.2500000000E+02	0.000E+00	0.0
	25	2	5	5	0	0	9.8522316464E+01	2.9439559806E+01	-3.6292658785E+02	3.9744195964E+02	1.2518413874E+02	0.000E+00	0.0
	-5	1	9	9	0	501	7.6927407792E+01	3.5585052865E+01	-3.6478727527E+02	3.7452817071E+02	4.1800000000E+00	0.000E+00	0.0
	5	1	9	9	501	0	2.1594908673E+01	-6.1454930591E+00	1.8606874182E+00	2.2913788931E+01	4.1800000000E+00	0.000E+00	0.0
</event>
<event>
    11  -1  1.0000000E+00  1.0000000E+00  -1.0000000E+00  -1.0000000E+00
	2212	-1	0	0	0	0	0.0000000000E+00	0.0000000000E+00	6.5000000000E+03	6.5000000000E+03	9.3827000000E-01	0.000E+00	0.0
	2212	-1	0	0	0	0	0.0000000000E+00	0.0000000000E+00	-6.5000000000E+03	6.5000000000E+03	9.3827000000E-01	0.000E+00	0.0
	2212	1	0	0	0	0	0.0000000000E+00	0.0000000000E+00	5.9721679041E+03	5.9721679041E+03	9.3827000000E-01	0.000E+00	0.0
	2212	1	0	0	0	0	0.0000000000E+00	0.0000000000E+00	-5.9832250510E+03	5.9832250510E+03	9.3827000000E-01	0.000E+00	0.0
	51	2	1	2	0	0	1.2785086181E+02	3.7511722061E+01	-1.3232325144E+02	1.0612935658E+03	1.0445485234E+03	0.000E+00	0.0
	1000022	2	5	5	0	0	-1.2785086181E+02	-3.7511722061E+01	1.5216960782E+02	8.1366061733E+02	7.8812120799E+02	0.000E+00	0.0
	14	1	6	6	0	0	1.2123199511E+02	-6.2889804775E+01	1.9208679476E+02	4.0146564100E+02	3.2500000000E+02	0.000E+00	0.0
	-14	1	6	6	0	0	-2.4908285692E+02	2.5378082714E+01	-3.9917186942E+01	4.1219497633E+02	3.2500000000E+02	0.000E+00	0.0
	25	2	5	5	0	0	1.2785086181E+02	3.7511722061E+01	-1.4111246100E+02	2.3094642758E+02	1.2518208181E+02	0.000E+00	0.0
	-5	1	9	9	0	501	6.4796442487E+01	-3.2856320335E+01	-1.6693112388E+01	7.4660894356E+01	4.1800000000E+00	0.000E+00	0.0
	5	1	9	9	501	0	6.3054419327E+01	7.0368042396E+01	-1.2441934861E+02	1.5628553323E+02	4.1800000000E+00	0.000E+00	0.0
</event>
<event>
    11  -1  1.0000000E+00  1.0000000E+00  -1.0000000E+00  -1.0000000E+00
	2212	-1	0	0	0	0	0.0000000000E+00	0.0000000000E+00	6.5000000000E+03	6.5000000000E+03	9.3827000000E-01	0.000E+00	0.0
	2212	-1	0	0	0	0	0.0000000000E+00	0.0000000000E+00	-6.5000000000E+03	6.5000000000E+03	9.3827000000E-01	0.000E+00	0.0
	2212	1	0	0	0	0	0.0000000000E+00	0.0000000000E+00	5.4904070731E+03	5.4904070731E+03	9.3827000000E-01	0.000E+00	0.0
	2212	1	0	0	0	0	0.0000000000E+00	0.0000000000E+00	-6.2283510067E+03	6.2283510067E+03	9.3827000000E-01	0.000E+00	0.0
	51	2	1	2	0	0	7.4764020211E+00	8.1178971179E+01	8.9524933172E+02	1.3802669658E+03	1.0473870388E+03	0.000E+00	0.0
	1000022	2	5	5	0	0	-7.4764020211E+00	-8.1178971179E+01	4.5171293603E+02	9.5837211487E+02	8.4130054798E+02	0.000E+00	0.0
	14	1	6	6	0	0	-2.3470932338E+02	8.7708035646E+01	2.6599105657E+02	4.8903722576E+02	3.2500000000E+02	0.000E+00	0.0
	-14	1	6	6	0	0	2.2723292136E+02	-1.6888700683E+02	1.8572187946E+02	4.6933488911E+02	3.2500000000E+02	0.000E+00	0.0
	25	2	5	5	0	0	7.4764020211E+00	8.1178971179E+01	2.8623099755E+02	3.2286980538E+02	1.2518308721E+02	0.000E+00	0.0
	-5	1	9	9	0	501	-2.6983276340E+00	3.8661272007E+01	2.7471604749E+02	2.7746775321E+02	4.1800000000E+00	0.000E+00	0.0
	5	1	9	9	501	0	1.0174729655E+01	4.2517699172E+01	1.1514950059E+01	4.5402052171E+01	4.1800000000E+00	0.000E+00	0.0
</event>
<event>
    11  -1  1.0000000E+00  1.0000000E+00  -1.0000000E+00  -1.0000000E+00
	2212	-1	0	0	0	0	0.0000000000E+00	0.0000000000E+00	6.5000000000E+03	6.5000000000E+03	9.3827000000E-01	0.000E+00	0.0
	2212	-1	0	0	0	0	0.0000000000E+00	0.0000000000E+00	-6.5000000000E+03	6.5000000000E+03	9.3827000000E-01	0.000E+00	0.0
	2212	1	0	0	0	0	0.0000000000E+00	0.0000000000E+00	5.3527513287E+03	5.3527513287E+03	9.3827000000E-01	0.000E+00	0.0
	2212	1	0	0	0	0	0.0000000000E+00	0.0000000000E+00	-6.2456463549E+03	6.2456463549E+03	9.3827000000E-01	0.000E+00	0.0
	51	2	1	2	0	0	1.2635180323E+02	-8.3155082183E+01	1.0375909119E+03	1.5055570305E+03	1.0803830458E+03	0.000E+00	0.0
	1000022	2	5	5	0	0	-1.2635180323E+02	8.3155082183E+01	5.7804232424E+02	1.0305476850E+03	8.3965234272E+02	0.000E+00	0.0
	14	1	6	6	0	0	-2.9599182141E+02	6.7826126729E+01	4.7210906231E+02	6.4863202860E+02	3.2500000000E+02	0.000E+00	0.0
	-14	1	6	6	0	0	1.6964001819E+02	1.5328955454E+01	1.0593326193E+02	3.8191565643E+02	3.2500000000E+02	0.000E+00	0.0
	25	2	5	5	0	0	1.2635180323E+02	-8.3155082183E+01	3.1485270189E+02	3.7105463140E+02	1.2517895080E+02	0.000E+00	0.0
	-5	1	9	9	0	501	3.2205050892E+01	-5.3832143876E+01	3.0140066080E+01	6.9720592371E+01	4.1800000000E+00	0.000E+00	0.0
	5	1	9	9	501	0	9.4146752333E+01	-2.9322938307E+01	2.8471263581E+02	3.0133403903E+02	4.1800000000E+00	0.000E+00	0.0
</event>
<event>
    11  -1  1.0000000E+00  1.0000000E+00  -1.0000000E+00  -1.0000000E+00
	2212	-1	0	0	0	0	0.0000000000E+00	0.0000000000E+00	6.5000000000E+03	6.5000000000E+03	9.3827000000E-01	0.000E+00	0.0
	2212	-1	0	0	0	0	0.0000000000E+00	0.0000000000E+00	-6.5000000000E+03	6.5000000000E+03	9.3827000000E-01	0.000E+00	0.0
	2212	1	0	0	0	0	0.0000000000E+00	0.0000000000E+00	4.9572938244E+03	4.9572938244E+03	9.3827000000E-01	0.000E+00	0.0
	2212	1	0	0	0	0	0.0000000000E+00	0.0000000000E+00	-6.3190079244E+03	6.3190079244E+03	9.3827000000E-01	0.000E+00	0.0
	51	2	1	2	0	0	-5.9100916914E+01	9.6839969167E+01	1.5393794773E+03	1.8706764670E+03	1.0568208794E+03	0.000E+00	0.0
	1000022	2	5	5	0	0	5.9100916914E+01	-9.6839969167E+01	9.4475134265E+02	1.2738102870E+03	8.4685692401E+02	0.000E+00	0.0
	14	1	6	6	0	0	-2.3583128551E+02	-1.0621819515E+02	4.6850420233E+02	6.2611491581E+02	3.2500000000E+02	0.000E+00	0.0
	-14	1	6	6	0	0	2.9493220242E+02	9.3782259785E+00	4.7624714032E+02	6.4769537115E+02	3.2500000000E+02	0.000E+00	0.0
	25	2	5	5	0	0	-5.9100916914E+01	9.6839969167E+01	4.1696275735E+02	4.4988796427E+02	1.2518123412E+02	0.000E+00	0.0
	-5	1	9	9	0	501	-7.5043539187E+01	6.1959694944E+01	1.4179205505E+02	1.7202614873E+02	4.1800000000E+00	0.000E+00	0.0
	5	1	9	9	501	0	1.5942622273E+01	3.4880274224E+01	2.7517070229E+02	2.7786181554E+02	4.1800000000E+00	0.000E+00	0.0
</event>
<event>
    11  -1  1.0000000E+00  1.0000000E+00  -1.0000000E+00  -1.0000000E+00
	2212	-1	0	0	0	0	0.0000000000E+00	0.0000000000E+00	6.5000000000E+03	6.5000000000E+03	9.3827000000E-01	0.000E+00	0.0
	2212	-1	0	0	0	0	0.0000000000E+00	0.0000000000E+00	-6.5000000000E+03	6.5000000000E+03	9.3827000000E-01	0.000E+00	0.0
	2212	1	0	0	0	0	0.0000000000E+00	0.0000000000E+00	5.6740605095E+03	5.6740605095E+03	9.3827000000E-01	0.000E+00	0.0
	2212	1	0	0	0	0	0.0000000000E+00	0.0000000000E+00	-6.1680032652E+03	6.1680032652E+03	9.3827000000E-01	0.000E+00	0.0
	51	2	1	2	0	0	9.6059007835E+01	7.3744312842E+01	5.7797917516E+02	1.2023154077E+03	1.0472997928E+03	0.000E+00	0.0
	1000022	2	5	5	0	0	-9.6059007835E+01	-7.3744312842E+01	3.2546923616E+02	9.1561350417E+02	8.4720263731E+02	0.000E+00	0.0
	14	1	6	6	0	0	-2.4936956489E+02	-6.8618692624E+01	-2.1715461616E+01	4.1592098546E+02	3.2500000000E+02	0.000E+00	0.0
	-14	1	6	6	0	0	1.5331055706E+02	-5.1256202182E+00	3.4718469777E+02	4.9969251871E+02	3.2500000000E+02	0.000E+00	0.0
	25	2	5	5	0	0	9.6059007835E+01	7.3744312842E+01	1.6847351958E+02	2.4232272118E+02	1.2518553325E+02	0.000E+00	0.0
	-5	1	9	9	0	501	9.3653558236E+00	-1.0817415310E+01	-1.5834897110E+01	2.1747246497E+01	4.1800000000E+00	0.000E+00	0.0
	5	1	9	9	501	0	8.6693652011E+01	8.4561728152E+01	1.8430841669E+02	2.2057547468E+02	4.1800000000E+00	0.000E+00	0.0
</event>
<event>
    11  -1  1.0000000E+00  1.0000000E+00  -1.0000000E+00  -1.0000000E+00
	2212	-1	0	0	0	0	0.0000000000E+00	0.0000000000E+00	6.5000000000E+03	6.5000000000E+03	9.3827000000E-01	0.000E+00	0.0
	2212	-1	0	0	0	0	0.0000000000E+00	0.0000000000E+00	-6.5000000000E+03	6.5000000000E+03	9.3827000000E-01	0.000E+00	0.0
	2212	1	0	0	0	0	0.0000000000E+00	0.0000000000E+00	4.9332394162E+03	4.9332394162E+03	9.3827000000E-01	0.000E+00	0.0
	2212	1	0	0	0	0	0.0000000000E+00	0.0000000000E+00	-6.3282758512E+03	6.3282758512E+03	9.3827000000E-01	0.000E+00	0.0
	51	2	1	2	0	0	-1.1551970538E+02	8.9470644988E+01	1.4787861405E+03	1.8122805409E+03	1.0374018078E+03	0.000E+00	0.0
	1000022	2	5	5	0	0	1.1551970538E+02	-8.9470644988E+01	1.0610535294E+03	1.3528500456E+03	8.2644954771E+02	0.000E+00	0.0
	14	1	6	6	0	0	1.2922186556E+02	-8.2330805358E+01	9.3890859951E+02	1.0053113997E+03	3.2500000000E+02	0.000E+00	0.0
	-14	1	6	6	0	0	-1.3702160179E+01	-7.1398396302E+00	1.2214492988E+02	3.4753864591E+02	3.2500000000E+02	0.000E+00	0.0
	25	2	5	5	0	0	-1.1551970538E+02	8.9470644988E+01	3.3398290559E+02	3.8563468710E+02	1.2577651619E+02	0.000E+00	0.0
	-5	1	9	9	0	501	-5.7139180402E+01	8.4158577872E+01	3.0205579971E+02	3.1875183248E+02	4.1800000000E+00	0.000E+00	0.0
	5	1	9	9	501	0	-5.8380524975E+01	5.3120671157E+00	3.1927105878E+01	6.6882854627E+01	4.1800000000E+00	0.000E+00	0.0
</event>
<event>
    11  -1  1.0000000E+00  1.0000000E+00  -1.0000000E+00  -1.0000000E+00
	2212	-1	0	0	0	0	0.0000000000E+00	0.0000000000E+00	6.5000000000E+03	6.5000000000E+03	9.3827000000E-01	0.000E+00	0.0
	2212	-1	0	0	0	0	0.0000000000E+00	0.0000000000E+00	-6.5000000000E+03	6.5000000000E+03	9.3827000000E-01	0.000E+00	0.0
	2212	1	0	0	0	0	0.0000000000E+00	0.0000000000E+00	5.2411260234E+03	5.2411260234E+03	9.3827000000E-01	0.000E+00	0.0
	2212	1	0	0	0	0	0.0000000000E+00	0.0000000000E+00	-6.2927929572E+03	6.2927929572E+03	9.3827000000E-01	0.000E+00	0.0
	51	2	1	2	0	0	-4.1165667881E+02	-1.6780001272E+02	1.3357497030E+03	1.7393204277E+03	1.0214647402E+03	0.000E+00	0.0
	1000022	2	5	5	0	0	4.1165667881E+02	1.6780001272E+02	3.7724599856E+02	6.4868893489E+02	2.8436723677E+02	0.000E+00	0.0
	14	1	6	6	0	0	0.0000000000E+00	0.0000000000E+00	0.0000000000E+00	0.0000000000E+00	0.0000000000E+00	0.000E+00	0.0
	-14	1	6	6	0	0	0.0000000000E+00	0.0000000000E+00	0.0000000000E+00	0.0000000000E+00	0.0000000000E+00	0.000E+00	0.0
	25	2	5	5	0	0	-4.1165667881E+02	-1.6780001272E+02	6.7442093525E+02	8.1739208443E+02	1.2517250619E+02	0.000E+00	0.0
	-5	1	9	9	0	501	-1.3019604120E+02	-1.1838050691E+02	2.5395581624E+02	3.0899188106E+02	4.1800000000E+00	0.000E+00	0.0
	5	1	9	9	501	0	-2.8146063761E+02	-4.9419505804E+01	4.2046511901E+02	5.0840020337E+02	4.1800000000E+00	0.000E+00	0.0
</event>
<event>
    11  -1  1.0000000E+00  1.0000000E+00  -1.0000000E+00  -1.0000000E+00
	2212	-1	0	0	0	0	0.0000000000E+00	0.0000000000E+00	6.5000000000E+03	6.5000000000E+03	9.3827000000E-01	0.000E+00	0.0
	2212	-1	0	0	0	0	0.0000000000E+00	0.0000000000E+00	-6.5000000000E+03	6.5000000000E+03	9.3827000000E-01	0.000E+00	0.0
	2212	1	0	0	0	0	0.0000000000E+00	0.0000000000E+00	5.4628665175E+03	5.4628665175E+03	9.3827000000E-01	0.000E+00	0.0
	2212	1	0	0	0	0	0.0000000000E+00	0.0000000000E+00	-6.2332550548E+03	6.2332550548E+03	9.3827000000E-01	0.000E+00	0.0
	51	2	1	2	0	0	-1.2158748184E+02	5.5845607640E+01	8.6671275733E+02	1.3695596763E+03	1.0519507858E+03	0.000E+00	0.0
	1000022	2	5	5	0	0	1.2158748184E+02	-5.5845607640E+01	5.3803028777E+02	1.0079603206E+03	8.4178689097E+02	0.000E+00	0.0
	14	1	6	6	0	0	-9.5124351385E+01	1.4374980179E+02	4.1030413193E+02	5.5107815092E+02	3.2500000000E+02	0.000E+00	0.0
	-14	1	6	6	0	0	2.1671183323E+02	-1.9959540943E+02	1.2772615583E+02	4.5688216972E+02	3.2500000000E+02	0.000E+00	0.0
	25	2	5	5	0	0	-1.2158748184E+02	5.5845607640E+01	2.3235824955E+02	2.9591810703E+02	1.2519952996E+02	0.000E+00	0.0
	-5	1	9	9	0	501	-6.2652676857E+00	5.1066900092E+01	1.3612634593E+02	1.4558480800E+02	4.1800000000E+00	0.000E+00	0.0
	5	1	9	9	501	0	-1.1532221415E+02	4.7787075489E+00	9.6231903619E+01	1.5033329903E+02	4.1800000000E+00	0.000E+00	0.0
</event>
<event>
    11  -1  1.0000000E+00  1.0000000E+00  -1.0000000E+00  -1.0000000E+00
	2212	-1	0	0	0	0	0.0000000000E+00	0.0000000000E+00	6.5000000000E+03	6.5000000000E+03	9.3827000000E-01	0.000E+00	0.0
	2212	-1	0	0	0	0	0.0000000000E+00	0.0000000000E+00	-6.5000000000E+03	6.5000000000E+03	9.3827000000E-01	0.000E+00	0.0
	2212	1	0	0	0	0	0.0000000000E+00	0.0000000000E+00	5.7147733151E+03	5.7147733151E+03	9.3827000000E-01	0.000E+00	0.0
	2212	1	0	0	0	0	0.0000000000E+00	0.0000000000E+00	-6.1586508598E+03	6.1586508598E+03	9.3827000000E-01	0.000E+00	0.0
	51	2	1	2	0	0	-8.0406445783E+01	8.0720149621E+01	4.9380649922E+02	1.1528103108E+03	1.0354447425E+03	0.000E+00	0.0
	1000022	2	5	5	0	0	8.0406445783E+01	-8.0720149621E+01	3.2212539843E+02	9.1805171345E+02	8.5209931181E+02	0.000E+00	0.0
	14	1	6	6	0	0	5.0302734487E+00	2.2573945032E+02	7.7672896285E+01	4.0328858389E+02	3.2500000000E+02	0.000E+00	0.0
	-14	1	6	6	0	0	7.5376172334E+01	-3.0645959994E+02	2.4445250214E+02	5.1476312956E+02	3.2500000000E+02	0.000E+00	0.0
	25	2	5	5	0	0	-8.0406445783E+01	8.0720149621E+01	1.2175214629E+02	2.0852411158E+02	1.2521094563E+02	0.000E+00	0.0
	-5	1	9	9	0	501	-7.0607773934E+01	2.9302665990E+01	6.8927925293E-01	7.6564035160E+01	4.1800000000E+00	0.000E+00	0.0
	5	1	9	9	501	0	-9.7986718488E+00	5.1417483632E+01	1.2106286704E+02	1.3196007642E+02	4.1800000000E+00	0.000E+00	0.0
</event>
<event>
    11  -1  1.0000000E+00  1.0000000E+00  -1.0000000E+00  -1.0000000E+00
	2212	-1	0	0	0	0	0.0000000000E+00	0.0000000000E+00	6.5000000000E+03	6.5000000000E+03	9.3827000000E-01	0.000E+00	0.0
	2212	-1	0	0	0	0	0.0000000000E+00	0.0000000000E+00	-6.5000000000E+03	6.5000000000E+03	9.3827000000E-01	0.000E+00	0.0
	2212	1	0	0	0	0	0.0000000000E+00	0.0000000000E+00	6.1856603627E+03	6.1856603627E+03	9.3827000000E-01	0.000E+00	0.0
	2212	1	0	0	0	0	0.0000000000E+00	0.0000000000E+00	-5.6115441743E+03	5.6115441743E+03	9.3827000000E-01	0.000E+00	0.0
	51	2	1	2	0	0	7.0351975140E+01	-9.1826511848E+00	-6.3699483147E+02	1.2360840040E+03	1.0569330765E+03	0.000E+00	0.0
	1000022	2	5	5	0	0	-7.0351975140E+01	9.1826511848E+00	-4.2987796422E+02	9.9905547534E+02	8.9904563687E+02	0.000E+00	0.0
	14	1	6	6	0	0	-2.9712216510E+02	-1.5584957356E+02	-2.7864574709E+02	5.4391095130E+02	3.2500000000E+02	0.000E+00	0.0
	-14	1	6	6	0	0	2.2677018996E+02	1.6503222475E+02	-1.5123221714E+02	4.5514452404E+02	3.2500000000E+02	0.000E+00	0.0
	25	2	5	5	0	0	7.0351975140E+01	-9.1826511848E+00	-1.4423822411E+02	2.0373998767E+02	1.2518624443E+02	0.000E+00	0.0
	-5	1	9	9	0	501	6.7003769477E+01	6.9650526015E-01	-1.6610203778E+02	1.7915733197E+02	4.1800000000E+00	0.000E+00	0.0
	5	1	9	9	501	0	3.3482056632E+00	-9.8791564449E+00	2.1863813671E+01	2.4582655704E+01	4.1800000000E+00	0.000E+00	0.0
</event>
<event>
    11  -1  1.0000000E+00  1.0000000E+00  -1.0000000E+00  -1.0000000E+00
	2212	-1	0	0	0	0	0.0000000000E+00	0.0000000000E+00	6.5000000000E+03	6.5000000000E+03	9.3827000000E-01	0.000E+00	0.0
	2212	-1	0	0	0	0	0.0000000000E+00	0.0000000000E+00	-6.5000000000E+03	6.5000000000E+03	9.3827000000E-01	0.000E+00	0.0
	2212	1	0	0	0	0	0.0000000000E+00	0.0000000000E+00	6.2846407612E+03	6.2846407612E+03	9.3827000000E-01	0.000E+00	0.0
	2212	1	0	0	0	0	0.0000000000E+00	0.0000000000E+00	-5.2092747323E+03	5.2092747323E+03	9.3827000000E-01	0.000E+00	0.0
	51	2	1	2	0	0	6.2114069888E+01	-1.3028324496E+02	-1.0379401610E+03	1.4866169998E+03	1.0544564689E+03	0.000E+00	0.0
	1000022	2	5	5	0	0	-6.2114069888E+01	1.3028324496E+02	-9.2552626108E+02	1.2632805030E+03	8.4761246323E+02	0.000E+00	0.0
	14	1	6	6	0	0	4.0320427270E+01	-2.0085504716E+02	-4.3483813599E+02	5.8023933970E+02	3.2500000000E+02	0.000E+00	0.0
	-14	1	6	6	0	0	-1.0243449716E+02	3.3113829212E+02	-4.9068812508E+02	6.8304116333E+02	3.2500000000E+02	0.000E+00	0.0
	25	2	5	5	0	0	6.2114069888E+01	-1.3028324496E+02	-1.4983976774E+02	2.4280400345E+02	1.2517965688E+02	0.000E+00	0.0
	-5	1	9	9	0	501	8.0292066660E+01	-1.1011818064E+02	-6.0190681214E+01	1.4904100168E+02	4.1800000000E+00	0.000E+00	0.0
	5	1	9	9	501	0	-1.8177996773E+01	-2.0165064321E+01	-8.9649086527E+01	9.3763001770E+01	4.1800000000E+00	0.000E+00	0.0
</event>
<event>
    11  -1  1.0000000E+00  1.0000000E+00  -1.0000000E+00  -1.0000000E+00
	2212	-1	0	0	0	0	0.0000000000E+00	0.0000000000E+00	6.5000000000E+03	6.5000000000E+03	9.3827000000E-01	0.000E+00	0.0
	2212	-1	0	0	0	0	0.0000000000E+00	0.0000000000E+00	-6.5000000000E+03	6.5000000000E+03	9.3827000000E-01	0.000E+00	0.0
	2212	1	0	0	0	0	0.0000000000E+00	0.0000000000E+00	5.4160178292E+03	5.4160178292E+03	9.3827000000E-01	0.000E+00	0.0
	2212	1	0	0	0	0	0.0000000000E+00	0.0000000000E+00	-6.2548344212E+03	6.2548344212E+03	9.3827000000E-01	0.000E+00	0.0
	51	2	1	2	0	0	-2.9473991309E+01	-3.7781370733E+01	9.5658792606E+02	1.4072587089E+03	1.0310288382E+03	0.000E+00	0.0
	1000022	2	5	5	0	0	2.9473991309E+01	3.7781370733E+01	5.9444132492E+02	1.0504263896E+03	8.6471900816E+02	0.000E+00	0.0
	14	1	6	6	0	0	2.5816081153E+02	1.6476031342E+02	2.6908868176E+02	5.2137000694E+02	3.2500000000E+02	0.000E+00	0.0
	-14	1	6	6	0	0	-2.2868682022E+02	-1.2697894269E+02	3.2535264316E+02	5.2905638266E+02	3.2500000000E+02	0.000E+00	0.0
	25	2	5	5	0	0	-2.9473991309E+01	-3.7781370733E+01	2.4437526708E+02	2.7872136000E+02	1.2518057846E+02	0.000E+00	0.0
	-5	1	9	9	0	501	8.1129665342E+00	2.2333859574E+01	1.8379629879E+02	1.8537306536E+02	4.1800000000E+00	0.000E+00	0.0
	5	1	9	9	501	0	-3.7586957844E+01	-6.0115230307E+01	6.0578968290E+01	9.3348294649E+01	4.1800000000E+00	0.000E+00	0.0
</event>
<event>
    11  -1  1.0000000E+00  1.0000000E+00  -1.0000000E+00  -1.0000000E+00
	2212	-1	0	0	0	0	0.0000000000E+00	0.0000000000E+00	6.5000000000E+03	6.5000000000E+03	9.3827000000E-01	0.000E+00	0.0
	2212	-1	0	0	0	0	0.0000000000E+00	0.0000000000E+00	-6.5000000000E+03	6.5000000000E+03	9.3827000000E-01	0.000E+00	0.0
	2212	1	0	0	0	0	0.0000000000E+00	0.0000000000E+00	5.8681591505E+03	5.8681591505E+03	9.3827000000E-01	0.000E+00	0.0
	2212	1	0	0	0	0	0.0000000000E+00	0.0000000000E+00	-6.0477566405E+03	6.0477566405E+03	9.3827000000E-01	0.000E+00	0.0
	51	2	1	2	0	0	-1.1037549770E+02	8.0674749004E-01	7.8566324569E+01	1.0776545748E+03	1.0691039771E+03	0.000E+00	0.0
	1000022	2	5	5	0	0	1.1037549770E+02	-8.0674749004E-01	2.4958221029E+02	9.0311166452E+02	8.6089255866E+02	0.000E+00	0.0
	14	1	6	6	0	0	-6.3806413526E+01	2.4577584771E+02	4.5839059158E+01	4.1497378841E+02	3.2500000000E+02	0.000E+00	0.0
	-14	1	6	6	0	0	1.7418191122E+02	-2.4658259520E+02	2.0374315113E+02	4.8813787610E+02	3.2500000000E+02	0.000E+00	0.0
	25	2	5	5	0	0	-1.1037549770E+02	8.0674749004E-01	-6.9984720284E+01	1.8097254455E+02	1.2517906963E+02	0.000E+00	0.0
	-5	1	9	9	0	501	-9.4460393385E+01	-3.4358044973E+01	3.8586249496E-01	1.0060249730E+02	4.1800000000E+00	0.000E+00	0.0
	5	1	9	9	501	0	-1.5915104313E+01	3.5164792463E+01	-7.0370582779E+01	8.0370047250E+01	4.1800000000E+00	0.000E+00	0.0
</event>
<event>
    11  -1  1.0000000E+00  1.0000000E+00  -1.0000000E+00  -1.0000000E+00
	2212	-1	0	0	0	0	0.0000000000E+00	0.0000000000E+00	6.5000000000E+03	6.5000000000E+03	9.3827000000E-01	0.000E+00	0.0
	2212	-1	0	0	0	0	0.0000000000E+00	0.0000000000E+00	-6.5000000000E+03	6.5000000000E+03	9.3827000000E-01	0.000E+00	0.0
	2212	1	0	0	0	0	0.0000000000E+00	0.0000000000E+00	6.1357996301E+03	6.1357996301E+03	9.3827000000E-01	0.000E+00	0.0
	2212	1	0	0	0	0	0.0000000000E+00	0.0000000000E+00	-5.7237326121E+03	5.7237326121E+03	9.3827000000E-01	0.000E+00	0.0
	51	2	1	2	0	0	1.8251292520E+01	1.8335443768E+02	-4.7113251627E+02	1.1776184809E+03	1.0634225309E+03	0.000E+00	0.0
	1000022	2	5	5	0	0	-1.8251292520E+01	-1.8335443768E+02	-2.7119564430E+02	8.7690492393E+02	8.1330388455E+02	0.000E+00	0.0
	14	1	6	6	0	0	5.1887723825E+01	-2.1346831001E+02	7.1201490513E+01	3.9869249744E+02	3.2500000000E+02	0.000E+00	0.0
	-14	1	6	6	0	0	-7.0139016345E+01	3.0113872328E+01	-3.4239713481E+02	4.7821242649E+02	3.2500000000E+02	0.000E+00	0.0
	25	2	5	5	0	0	1.8251292520E+01	1.8335443768E+02	-1.4087137368E+02	2.6356283381E+02	1.2517453394E+02	0.000E+00	0.0
	-5	1	9	9	0	501	-3.3631150571E+01	3.5795814101E+01	5.1241892033E+00	4.9559300952E+01	4.1800000000E+00	0.000E+00	0.0
	5	1	9	9	501	0	5.1882443091E+01	1.4755862358E+02	-1.4599556289E+02	2.1400353286E+02	4.1800000000E+00	0.000E+00	0.0
</event>
<event>
    11  -1  1.0000000E+00  1.0000000E+00  -1.0000000E+00  -1.0000000E+00
	2212	-1	0	0	0	0	0.0000000000E+00	0.0000000000E+00	6.5000000000E+03	6.5000000000E+03	9.3827000000E-01	0.000E+00	0.0
	2212	-1	0	0	0	0	0.0000000000E+00	0.0000000000E+00	-6.5000000000E+03	6.5000000000E+03	9.3827000000E-01	0.000E+00	0.0
	2212	1	0	0	0	0	0.0000000000E+00	0.0000000000E+00	5.6568013658E+03	5.6568013658E+03	9.3827000000E-01	0.000E+00	0.0
	2212	1	0	0	0	0	0.0000000000E+00	0.0000000000E+00	-6.1763913315E+03	6.1763913315E+03	9.3827000000E-01	0.000E+00	0.0
	51	2	1	2	0	0	1.4537062017E+01	5.9886970753E+01	6.9558916812E+02	1.2566254874E+03	1.0447322860E+03	0.000E+00	0.0
	1000022	2	5	5	0	0	-1.4537062017E+01	-5.9886970753E+01	2.4736550184E+02	8.6090269393E+02	8.2229312382E+02	0.000E+00	0.0
	14	1	6	6	0	0	-9.2794283664E+01	1.1408092401E+01	-1.2025924296E+02	3.5892646764E+02	3.2500000000E+02	0.000E+00	0.0
	-14	1	6	6	0	0	7.8257221647E+01	-7.1295063154E+01	3.6762474480E+02	5.0197622629E+02	3.2500000000E+02	0.000E+00	0.0
	25	2	5	5	0	0	1.4537062017E+01	5.9886970753E+01	2.7222446386E+02	3.0590460885E+02	1.2519463071E+02	0.000E+00	0.0
	-5	1	9	9	0	501	1.2993277618E+01	-1.6717636999E+01	-1.4942287994E+00	2.1633533456E+01	4.1800000000E+00	0.000E+00	0.0
	5	1	9	9	501	0	1.5437843994E+00	7.6604607752E+01	2.7371869265E+02	2.8427107540E+02	4.1800000000E+00	0.000E+00	0.0
</event>
<event>
    11  -1  1.0000000E+00  1.0000000E+00  -1.0000000E+00  -1.0000000E+00
	2212	-1	0	0	0	0	0.0000000000E+00	0.0000000000E+00	6.5000000000E+03	6.5000000000E+03	9.3827000000E-01	0.000E+00	0.0
	2212	-1	0	0	0	0	0.0000000000E+00	0.0000000000E+00	-6.5000000000E+03	6.5000000000E+03	9.3827000000E-01	0.000E+00	0.0
	2212	1	0	0	0	0	0.0000000000E+00	0.0000000000E+00	5.3800367729E+03	5.3800367729E+03	9.3827000000E-01	0.000E+00	0.0
	2212	1	0	0	0	0	0.0000000000E+00	0.0000000000E+00	-6.2539016972E+03	6.2539016972E+03	9.3827000000E-01	0.000E+00	0.0
	51	2	1	2	0	0	-1.2147323743E+02	-7.0533271766E+01	8.6205349784E+02	1.3657785767E+03	1.0499924750E+03	0.000E+00	0.0
	1000022	2	5	5	0	0	1.2147323743E+02	7.0533271766E+01	7.3646296437E+02	1.1330879909E+03	8.4957636937E+02	0.000E+00	0.0
	14	1	6	6	0	0	2.9339938333E+01	-1.2735910015E+02	6.4044269493E+02	7.2998151885E+02	3.2500000000E+02	0.000E+00	0.0
	-14	1	6	6	0	0	9.2133299094E+01	1.9789237191E+02	9.6020269440E+01	4.0310647205E+02	3.2500000000E+02	0.000E+00	0.0
	25	2	5	5	0	0	-1.2147323743E+02	-7.0533271766E+01	1.3740195994E+02	2.3297353898E+02	1.2516661469E+02	0.000E+00	0.0
	-5	1	9	9	0	501	-1.1823867542E+02	-6.3712203481E+01	1.5990656409E+02	2.0887127825E+02	4.1800000000E+00	0.000E+00	0.0
	5	1	9	9	501	0	-3.2345620044E+00	-6.8210682854E+00	-2.2504604158E+01	2.4102260729E+01	4.1800000000E+00	0.000E+00	0.0
</event>
<event>
    11  -1  1.0000000E+00  1.0000000E+00  -1.0000000E+00  -1.0000000E+00
	2212	-1	0	0	0	0	0.0000000000E+00	0.0000000000E+00	6.5000000000E+03	6.5000000000E+03	9.3827000000E-01	0.000E+00	0.0
	2212	-1	0	0	0	0	0.0000000000E+00	0.0000000000E+00	-6.5000000000E+03	6.5000000000E+03	9.3827000000E-01	0.000E+00	0.0
	2212	1	0	0	0	0	0.0000000000E+00	0.0000000000E+00	5.3124338524E+03	5.3124338524E+03	9.3827000000E-01	0.000E+00	0.0
	2212	1	0	0	0	0	0.0000000000E+00	0.0000000000E+00	-6.2669289776E+03	6.2669289776E+03	9.3827000000E-01	0.000E+00	0.0
	51	2	1	2	0	0	-1.1387239858E+02	2.3761932870E+01	1.0473941680E+03	1.4891994898E+03	1.0522114925E+03	0.000E+00	0.0
	1000022	2	5	5	0	0	1.1387239858E+02	-2.3761932870E+01	7.0382925886E+02	1.1172602264E+03	8.5986233502E+02	0.000E+00	0.0
	14	1	6	6	0	0	2.0181568923E+02	-1.0870977631E+02	6.5544179295E+02	7.6666572366E+02	3.2500000000E+02	0.000E+00	0.0
	-14	1	6	6	0	0	-8.7943290648E+01	8.4947843438E+01	4.8387465914E+01	3.5059450271E+02	3.2500000000E+02	0.000E+00	0.0
	25	2	5	5	0	0	-1.1387239858E+02	2.3761932870E+01	2.5066586635E+02	3.0337694367E+02	1.2519041811E+02	0.000E+00	0.0
	-5	1	9	9	0	501	-8.1049991305E+01	-4.4621721716E+01	1.6210959567E+02	1.8670081025E+02	4.1800000000E+00	0.000E+00	0.0
	5	1	9	9	501	0	-3.2822407274E+01	6.8383654586E+01	8.8556270687E+01	1.1667613343E+02	4.1800000000E+00	0.000E+00	0.0
</event>
<event>
    11  -1  1.0000000E+00  1.0000000E+00  -1.0000000E+00  -1.0000000E+00
	2212	-1	0	0	0	0	0.0000000000E+00	0.0000000000E+00	6.5000000000E+03	6.5000000000E+03	9.3827000000E-01	0.000E+00	0.0
	2212	-1	0	0	0	0	0.0000000000E+00	0.0000000000E+00	-6.5000000000E+03	6.5000000000E+03	9.3827000000E-01	0.000E+00	0.0
	2212	1	0	0	0	0	0.0000000000E+00	0.0000000000E+00	5.6482206826E+03	5.6482206826E+03	9.3827000000E-01	0.000E+00	0.0
	2212	1	0	0	0	0	0.0000000000E+00	0.0000000000E+00	-6.1838612965E+03	6.1838612965E+03	9.3827000000E-01	0.000E+00	0.0
	51	2	1	2	0	0	-8.5801703923E+01	8.7967685230E+01	5.0133033187E+02	1.1591177610E+03	1.0378447072E+03	0.000E+00	0.0
	1000022	2	5	5	0	0	8.5801703923E+01	-8.7967685230E+01	4.8175814177E+02	9.8442160984E+02	8.4964389760E+02	0.000E+00	0.0
	14	1	6	6	0	0	-9.0310028980E+01	7.2671017553E+01	4.6759801737E+02	5.8112811322E+02	3.2500000000E+02	0.000E+00	0.0
	-14	1	6	6	0	0	1.7611173290E+02	-1.6063870278E+02	1.4160124403E+01	4.0329349663E+02	3.2500000000E+02	0.000E+00	0.0
	25	2	5	5	0	0	-8.5801703923E+01	8.7967685230E+01	5.3882472104E+01	1.8349641104E+02	1.2516934937E+02	0.000E+00	0.0
	-5	1	9	9	0	501	1.8164183994E+01	4.7397993563E+01	5.0563114160E+01	7.1767738487E+01	4.1800000000E+00	0.000E+00	0.0
	5	1	9	9	501	0	-1.0396588792E+02	4.0569691667E+01	3.3193579436E+00	1.1172867255E+02	4.1800000000E+00	0.000E+00	0.0
</event>
<event>
    11  -1  1.0000000E+00  1.0000000E+00  -1.0000000E+00  -1.0000000E+00
	2212	-1	0	0	0	0	0.0000000000E+00	0.0000000000E+00	6.5000000000E+03	6.5000000000E+03	9.3827000000E-01	0.000E+00	0.0
	2212	-1	0	0	0	0	0.0000000000E+00	0.0000000000E+00	-6.5000000000E+03	6.5000000000E+03	9.3827000000E-01	0.000E+00	0.0
	2212	1	0	0	0	0	0.0000000000E+00	0.0000000000E+00	6.2829740209E+03	6.2829740209E+03	9.3827000000E-01	0.000E+00	0.0
	2212	1	0	0	0	0	0.0000000000E+00	0.0000000000E+00	-5.3053951818E+03	5.3053951818E+03	9.3827000000E-01	0.000E+00	0.0
	51	2	1	2	0	0	7.9568177594E+01	7.0788533589E+01	-9.8834534434E+02	1.4230986446E+03	1.0183521598E+03	0.000E+00	0.0
	1000022	2	5	5	0	0	-7.9568177594E+01	-7.0788533589E+01	-8.1433700842E+02	1.1799874956E+03	8.4728012786E+02	0.000E+00	0.0
	14	1	6	6	0	0	-1.4116740215E+02	2.1278241439E+02	-3.3324441468E+02	5.3092507119E+02	3.2500000000E+02	0.000E+00	0.0
	-14	1	6	6	0	0	6.1599224551E+01	-2.8357094798E+02	-4.8109259374E+02	6.4906242439E+02	3.2500000000E+02	0.000E+00	0.0
	25	2	5	5	0	0	7.9568177594E+01	7.0788533589E+01	-1.6324183064E+02	2.3164330173E+02	1.2517432881E+02	0.000E+00	0.0
	-5	1	9	9	0	501	-3.0463791901E+01	3.1058407976E+01	-6.7513694559E+01	8.0425360900E+01	4.1800000000E+00	0.000E+00	0.0
	5	1	9	9	501	0	1.1003196950E+02	3.9730125613E+01	-9.5728136080E+01	1.5121794083E+02	4.1800000000E+00	0.000E+00	0.0
</event>
<event>
    11  -1  1.0000000E+00  1.0000000E+00  -1.0000000E+00  -1.0000000E+00
	2212	-1	0	0	0	0	0.0000000000E+00	0.0000000000E+00	6.5000000000E+03	6.5000000000E+03	9.3827000000E-01	0.000E+00	0.0
	2212	-1	0	0	0	0	0.0000000000E+00	0.0000000000E+00	-6.5000000000E+03	6.5000000000E+03	9.3827000000E-01	0.000E+00	0.0
	2212	1	0	0	0	0	0.0000000000E+00	0.0000000000E+00	5.1213114105E+03	5.1213114105E+03	9.3827000000E-01	0.000E+00	0.0
	2212	1	0	0	0	0	0.0000000000E+00	0.0000000000E+00	-6.3064483353E+03	6.3064483353E+03	9.3827000000E-01	0.000E+00	0.0
	51	2	1	2	0	0	1.1578672559E+00	-9.7641988929E+01	1.2916692441E+03	1.6569051335E+03	1.0331456270E+03	0.000E+00	0.0
	1000022	2	5	5	0	0	-1.1578672559E+00	9.7641988929E+01	8.8942984071E+02	1.2366101287E+03	8.5357124502E+02	0.000E+00	0.0
	14	1	6	6	0	0	-2.3170196625E+02	1.4427140853E+01	6.5415754945E+02	7.6644702561E+02	3.2500000000E+02	0.000E+00	0.0
	-14	1	6	6	0	0	2.3054409900E+02	8.3214848077E+01	2.3527229125E+02	4.7016310314E+02	3.2500000000E+02	0.000E+00	0.0
	25	2	5	5	0	0	1.1578672559E+00	-9.7641988929E+01	2.9570708403E+02	3.3563012546E+02	1.2517828453E+02	0.000E+00	0.0
	-5	1	9	9	0	501	2.5363888054E+01	-1.0481641354E+02	1.3469868939E+02	1.7260074359E+02	4.1800000000E+00	0.000E+00	0.0
	5	1	9	9	501	0	-2.4206020798E+01	7.1744246105E+00	1.6100839463E+02	1.6302938187E+02	4.1800000000E+00	0.000E+00	0.0
</event>
<event>
    11  -1  1.0000000E+00  1.0000000E+00  -1.0000000E+00  -1.0000000E+00
	2212	-1	0	0	0	0	0.0000000000E+00	0.0000000000E+00	6.5000000000E+03	6.5000000000E+03	9.3827000000E-01	0.000E+00	0.0
	2212	-1	0	0	0	0	0.0000000000E+00	0.0000000000E+00	-6.5000000000E+03	6.5000000000E+03	9.3827000000E-01	0.000E+00	0.0
	2212	1	0	0	0	0	0.0000000000E+00	0.0000000000E+00	6.1011678088E+03	6.1011678088E+03	9.3827000000E-01	0.000E+00	0.0
	2212	1	0	0	0	0	0.0000000000E+00	0.0000000000E+00	-5.8661431289E+03	5.8661431289E+03	9.3827000000E-01	0.000E+00	0.0
	51	2	1	2	0	0	-8.3488661559E+01	2.9333433245E+01	-2.3711821689E+02	1.0369503145E+03	1.0055894287E+03	0.000E+00	0.0
	1000022	2	5	5	0	0	8.3488661559E+01	-2.9333433245E+01	-1.9800605239E+02	8.7496835613E+02	8.4766291681E+02	0.000E+00	0.0
	14	1	6	6	0	0	-8.0362066766E+01	-1.7964041125E+02	8.5880607910E+01	3.8952434833E+02	3.2500000000E+02	0.000E+00	0.0
	-14	1	6	6	0	0	1.6385072833E+02	1.5030697800E+02	-2.8388666030E+02	4.8544400780E+02	3.2500000000E+02	0.000E+00	0.0
	25	2	5	5	0	0	-8.3488661559E+01	2.9333433245E+01	-3.7018627530E+01	1.5772070612E+02	1.2519838433E+02	0.000E+00	0.0
	-5	1	9	9	0	501	-6.3493611532E+01	-4.3877296658E+01	-1.9775654676E+01	7.9782233519E+01	4.1800000000E+00	0.000E+00	0.0
	5	1	9	9	501	0	-1.9995050028E+01	7.3210729903E+01	-1.7242972853E+01	7.7938472601E+01	4.1800000000E+00	0.000E+00	0.0
</event>
<event>
    11  -1  1.0000000E+00  1.0000000E+00  -1.0000000E+00  -1.0000000E+00
	2212	-1	0	0	0	0	0.0000000000E+00	0.0000000000E+00	6.5000000000E+03	6.5000000000E+03	9.3827000000E-01	0.000E+00	0.0
	2212	-1	0	0	0	0	0.0000000000E+00	0.0000000000E+00	-6.5000000000E+03	6.5000000000E+03	9.3827000000E-01	0.000E+00	0.0
	2212	1	0	0	0	0	0.0000000000E+00	0.0000000000E+00	5.0715821431E+03	5.0715821431E+03	9.3827000000E-01	0.000E+00	0.0
	2212	1	0	0	0	0	0.0000000000E+00	0.0000000000E+00	-6.3085837855E+03	6.3085837855E+03	9.3827000000E-01	0.000E+00	0.0
	51	2	1	2	0	0	-3.2154840938E+01	1.3241923417E+02	1.2282573682E+03	1.6189114571E+03	1.0457960393E+03	0.000E+00	0.0
	1000022	2	5	5	0	0	3.2154840938E+01	-1.3241923417E+02	1.0369311321E+03	1.3473170308E+03	8.4939285457E+02	0.000E+00	0.0
	14	1	6	6	0	0	-1.4156881333E+02	-2.3370889640E+02	3.0893081861E+02	5.2509506554E+02	3.2500000000E+02	0.000E+00	0.0
	-14	1	6	6	0	0	1.7372365427E+02	1.0128966222E+02	7.2800031352E+02	8.2222196529E+02	3.2500000000E+02	0.000E+00	0.0
	25	2	5	5	0	0	-3.2154840938E+01	1.3241923417E+02	2.0007051022E+02	2.7251704060E+02	1.2517404276E+02	0.000E+00	0.0
	-5	1	9	9	0	501	-4.0716095936E+01	1.2641948368E+02	2.1564560525E+02	2.5329860991E+02	4.1800000000E+00	0.000E+00	0.0
	5	1	9	9	501	0	8.5612549985E+00	5.9997504974E+00	-1.5575095022E+01	1.9218430688E+01	4.1800000000E+00	0.000E+00	0.0
</event>
<event>
    11  -1  1.0000000E+00  1.0000000E+00  -1.0000000E+00  -1.0000000E+00
	2212	-1	0	0	0	0	0.0000000000E+00	0.0000000000E+00	6.5000000000E+03	6.5000000000E+03	9.3827000000E-01	0.000E+00	0.0
	2212	-1	0	0	0	0	0.0000000000E+00	0.0000000000E+00	-6.5000000000E+03	6.5000000000E+03	9.3827000000E-01	0.000E+00	0.0
	2212	1	0	0	0	0	0.0000000000E+00	0.0000000000E+00	5.2632619134E+03	5.2632619134E+03	9.3827000000E-01	0.000E+00	0.0
	2212	1	0	0	0	0	0.0000000000E+00	0.0000000000E+00	-6.2772955814E+03	6.2772955814E+03	9.3827000000E-01	0.000E+00	0.0
	51	2	1	2	0	0	9.9737187831E+01	-2.6092513600E+01	8.9355764850E+02	1.3823102920E+03	1.0496228591E+03	0.000E+00	0.0
	1000022	2	5	5	0	0	-9.9737187831E+01	2.6092513600E+01	9.6273872290E+02	1.2893542812E+03	8.5143425344E+02	0.000E+00	0.0
	14	1	6	6	0	0	1.3305504638E+02	-2.4105469160E+01	1.5081320639E+02	3.8295475220E+02	3.2500000000E+02	0.000E+00	0.0
	-14	1	6	6	0	0	-2.3279223421E+02	5.0197982761E+01	8.1192551651E+02	9.0639952898E+02	3.2500000000E+02	0.000E+00	0.0
	25	2	5	5	0	0	9.9737187831E+01	-2.6092513600E+01	5.1294945077E+01	1.7008822408E+02	1.2518189437E+02	0.000E+00	0.0
	-5	1	9	9	0	501	3.8873335567E+01	4.9951716462E+01	3.0582688401E+01	7.0420759904E+01	4.1800000000E+00	0.000E+00	0.0
	5	1	9	9	501	0	6.0863852264E+01	-7.6044230062E+01	2.0712256676E+01	9.9667464174E+01	4.1800000000E+00	0.000E+00	0.0
</event>
<event>
    11  -1  1.0000000E+00  1.0000000E+00  -1.0000000E+00  -1.0000000E+00
	2212	-1	0	0	0	0	0.0000000000E+00	0.0000000000E+00	6.5000000000E+03	6.5000000000E+03	9.3827000000E-01	0.000E+00	0.0
	2212	-1	0	0	0	0	0.0000000000E+00	0.0000000000E+00	-6.5000000000E+03	6.5000000000E+03	9.3827000000E-01	0.000E+00	0.0
	2212	1	0	0	0	0	0.0000000000E+00	0.0000000000E+00	6.0179729656E+03	6.0179729656E+03	9.3827000000E-01	0.000E+00	0.0
	2212	1	0	0	0	0	0.0000000000E+00	0.0000000000E+00	-5.9424215994E+03	5.9424215994E+03	9.3827000000E-01	0.000E+00	0.0
	51	2	1	2	0	0	-6.2363001586E+01	-1.0471268275E+02	-6.8998185717E+01	1.0462724747E+03	1.0368565242E+03	0.000E+00	0.0
	1000022	2	5	5	0	0	6.2363001586E+01	1.0471268275E+02	-6.9885560061E+01	8.6480212552E+02	8.5331403065E+02	0.000E+00	0.0
	14	1	6	6	0	0	-1.5132010186E+02	2.2747416288E+02	7.6587766519E+01	4.3143128536E+02	3.2500000000E+02	0.000E+00	0.0
	-14	1	6	6	0	0	2.1368310345E+02	-1.2276148014E+02	-1.4647332658E+02	4.3337084016E+02	3.2500000000E+02	0.000E+00	0.0
	25	2	5	5	0	0	-6.2363001586E+01	-1.0471268275E+02	-5.6658061399E+00	1.7480330957E+02	1.2518069253E+02	0.000E+00	0.0
	-5	1	9	9	0	501	6.8320845525E+00	-1.6468577032E+01	-5.0686244993E+01	5.3893035174E+01	4.1800000000E+00	0.000E+00	0.0
	5	1	9	9	501	0	-6.9195086139E+01	-8.8244105717E+01	4.5020438853E+01	1.2091027439E+02	4.1800000000E+00	0.000E+00	0.0
</event>
<event>
    11  -1  1.0000000E+00  1.0000000E+00  -1.0000000E+00  -1.0000000E+00
	2212	-1	0	0	0	0	0.0000000000E+00	0.0000000000E+00	6.5000000000E+03	6.5000000000E+03	9.3827000000E-01	0.000E+00	0.0
	2212	-1	0	0	0	0	0.0000000000E+00	0.0000000000E+00	-6.5000000000E+03	6.5000000000E+03	9.3827000000E-01	0.000E+00	0.0
	2212	1	0	0	0	0	0.0000000000E+00	0.0000000000E+00	5.0967964285E+03	5.0967964285E+03	9.3827000000E-01	0.000E+00	0.0
	2212	1	0	0	0	0	0.0000000000E+00	0.0000000000E+00	-6.2755514923E+03	6.2755514923E+03	9.3827000000E-01	0.000E+00	0.0
	51	2	1	2	0	0	-9.3392499536E+01	-1.8668838043E+01	1.4974348733E+03	1.8738115366E+03	1.1224026864E+03	0.000E+00	0.0
	1000022	2	5	5	0	0	9.3392499536E+01	1.8668838043E+01	6.1327241548E+02	1.0407015906E+03	8.3539575085E+02	0.000E+00	0.0
	14	1	6	6	0	0	-1.3071319783E+02	2.0324519544E+02	2.9186329469E+02	4.9920309729E+02	3.2500000000E+02	0.000E+00	0.0
	-14	1	6	6	0	0	2.2410569737E+02	-1.8457635739E+02	3.2140912080E+02	5.4149849329E+02	3.2500000000E+02	0.000E+00	0.0
	25	2	5	5	0	0	-9.3392499536E+01	-1.8668838043E+01	5.6548264831E+02	5.8695048864E+02	1.2517813742E+02	0.000E+00	0.0
	-5	1	9	9	0	501	-7.6843771997E+01	-1.7525410980E+00	5.5569717416E+02	5.6100343891E+02	4.1800000000E+00	0.000E+00	0.0
	5	1	9	9	501	0	-1.6548727539E+01	-1.6916296945E+01	9.7854741524E+00	2.5947049734E+01	4.1800000000E+00	0.000E+00	0.0
</event>
<event>
    11  -1  1.0000000E+00  1.0000000E+00  -1.0000000E+00  -1.0000000E+00
	2212	-1	0	0	0	0	0.0000000000E+00	0.0000000000E+00	6.5000000000E+03	6.5000000000E+03	9.3827000000E-01	0.000E+00	0.0
	2212	-1	0	0	0	0	0.0000000000E+00	0.0000000000E+00	-6.5000000000E+03	6.5000000000E+03	9.3827000000E-01	0.000E+00	0.0
	2212	1	0	0	0	0	0.0000000000E+00	0.0000000000E+00	5.3178136673E+03	5.3178136673E+03	9.3827000000E-01	0.000E+00	0.0
	2212	1	0	0	0	0	0.0000000000E+00	0.0000000000E+00	-6.2656971997E+03	6.2656971997E+03	9.3827000000E-01	0.000E+00	0.0
	51	2	1	2	0	0	2.3605132887E+01	-1.2265686189E+02	1.0213244795E+03	1.4719591956E+03	1.0525959685E+03	0.000E+00	0.0
	1000022	2	5	5	0	0	-2.3605132887E+01	1.2265686189E+02	7.1689037480E+02	1.1255777041E+03	8.5871499951E+02	0.000E+00	0.0
	14	1	6	6	0	0	-3.6589901117E+01	3.2503566004E+01	7.1624733390E+02	7.8805491305E+02	3.2500000000E+02	0.000E+00	0.0
	-14	1	6	6	0	0	1.2984768230E+01	9.0153295886E+01	6.4304090051E-01	3.3752279103E+02	3.2500000000E+02	0.000E+00	0.0
	25	2	5	5	0	0	2.3605132887E+01	-1.2265686189E+02	2.3099315759E+02	2.9091142891E+02	1.2517872244E+02	0.000E+00	0.0
	-5	1	9	9	0	501	2.9701924807E+01	-1.1078360751E+02	2.4535023064E+02	2.7086790158E+02	4.1800000000E+00	0.000E+00	0.0
	5	1	9	9	501	0	-6.0967919204E+00	-1.1873254376E+01	-1.4357073053E+01	2.0043527330E+01	4.1800000000E+00	0.000E+00	0.0
</event>
<event>
    11  -1  1.0000000E+00  1.0000000E+00  -1.0000000E+00  -1.0000000E+00
	2212	-1	0	0	0	0	0.0000000000E+00	0.0000000000E+00	6.5000000000E+03	6.5000000000E+03	9.3827000000E-01	0.000E+00	0.0
	2212	-1	0	0	0	0	0.0000000000E+00	0.0000000000E+00	-6.5000000000E+03	6.5000000000E+03	9.3827000000E-01	0.000E+00	0.0
	2212	1	0	0	0	0	0.0000000000E+00	0.0000000000E+00	5.8650134323E+03	5.8650134323E+03	9.3827000000E-01	0.000E+00	0.0
	2212	1	0	0	0	0	0.0000000000E+00	0.0000000000E+00	-6.0654718099E+03	6.0654718099E+03	9.3827000000E-01	0.000E+00	0.0
	51	2	1	2	0	0	-2.4045244474E+01	1.1292875041E+02	2.6920666749E+02	1.0906335600E+03	1.0505609244E+03	0.000E+00	0.0
	1000022	2	5	5	0	0	2.4045244474E+01	-1.1292875041E+02	9.8463156615E+01	8.7101208221E+02	8.5769223950E+02	0.000E+00	0.0
	14	1	6	6	0	0	1.7019751864E+02	-1.3172997537E+02	2.7089593126E+02	4.7468893745E+02	3.2500000000E+02	0.000E+00	0.0
	-14	1	6	6	0	0	-1.4615227417E+02	1.8801224963E+01	-1.7243277464E+02	3.9632314476E+02	3.2500000000E+02	0.000E+00	0.0
	25	2	5	5	0	0	-2.4045244474E+01	1.1292875041E+02	1.0199522098E+02	1.9850267554E+02	1.2517671766E+02	0.000E+00	0.0
	-5	1	9	9	0	501	3.2122545767E+01	1.0386007641E+02	8.7567975666E+01	1.3965814040E+02	4.1800000000E+00	0.000E+00	0.0
	5	1	9	9	501	0	-5.6167790241E+01	9.0686739988E+00	1.4427245319E+01	5.8844535143E+01	4.1800000000E+00	0.000E+00	0.0
</event>
<event>
    11  -1  1.0000000E+00  1.0000000E+00  -1.0000000E+00  -1.0000000E+00
	2212	-1	0	0	0	0	0.0000000000E+00	0.0000000000E+00	6.5000000000E+03	6.5000000000E+03	9.3827000000E-01	0.000E+00	0.0
	2212	-1	0	0	0	0	0.0000000000E+00	0.0000000000E+00	-6.5000000000E+03	6.5000000000E+03	9.3827000000E-01	0.000E+00	0.0
	2212	1	0	0	0	0	0.0000000000E+00	0.0000000000E+00	6.2237725143E+03	6.2237725143E+03	9.3827000000E-01	0.000E+00	0.0
	2212	1	0	0	0	0	0.0000000000E+00	0.0000000000E+00	-5.6728194988E+03	5.6728194988E+03	9.3827000000E-01	0.000E+00	0.0
	51	2	1	2	0	0	-3.6954733539E+01	-3.6275901686E+01	-5.5665944441E+02	1.1074797022E+03	9.5601253145E+02	0.000E+00	0.0
	1000022	2	5	5	0	0	3.6954733539E+01	3.6275901686E+01	-4.6793383721E+02	9.4450001032E+02	8.1880192972E+02	0.000E+00	0.0
	14	1	6	6	0	0	3.4449889824E+01	-1.9650520196E+02	-3.7336853040E+02	5.3369480867E+02	3.2500000000E+02	0.000E+00	0.0
	-14	1	6	6	0	0	2.5048437152E+00	2.3278110364E+02	-9.4565306810E+01	4.1080520166E+02	3.2500000000E+02	0.000E+00	0.0
	25	2	5	5	0	0	-3.6954733539E+01	-3.6275901686E+01	-8.3019178246E+01	1.5890797656E+02	1.2521169149E+02	0.000E+00	0.0
	-5	1	9	9	0	501	-7.6563548768E+01	-5.0671404468E+01	-4.6574209681E+01	1.0303493407E+02	4.1800000000E+00	0.000E+00	0.0
	5	1	9	9	501	0	3.9608815229E+01	1.4395502782E+01	-3.6444968565E+01	5.5873042497E+01	4.1800000000E+00	0.000E+00	0.0
</event>
<event>
    11  -1  1.0000000E+00  1.0000000E+00  -1.0000000E+00  -1.0000000E+00
	2212	-1	0	0	0	0	0.0000000000E+00	0.0000000000E+00	6.5000000000E+03	6.5000000000E+03	9.3827000000E-01	0.000E+00	0.0
	2212	-1	0	0	0	0	0.0000000000E+00	0.0000000000E+00	-6.5000000000E+03	6.5000000000E+03	9.3827000000E-01	0.000E+00	0.0
	2212	1	0	0	0	0	0.0000000000E+00	0.0000000000E+00	6.2790589458E+03	6.2790589458E+03	9.3827000000E-01	0.000E+00	0.0
	2212	1	0	0	0	0	0.0000000000E+00	0.0000000000E+00	-5.2550068744E+03	5.2550068744E+03	9.3827000000E-01	0.000E+00	0.0
	51	2	1	2	0	0	1.2862730985E+02	3.5544014101E+01	-1.1039665143E+03	1.5286696180E+03	1.0489425031E+03	0.000E+00	0.0
	1000022	2	5	5	0	0	-1.2862730985E+02	-3.5544014101E+01	-7.6827397171E+02	1.1514492919E+03	8.4722028682E+02	0.000E+00	0.0
	14	1	6	6	0	0	-2.1616463291E+02	5.3442270016E+01	-6.9009627875E+02	7.9463268162E+02	3.2500000000E+02	0.000E+00	0.0
	-14	1	6	6	0	0	8.7537323060E+01	-8.8986284118E+01	-7.8177692956E+01	3.5681661027E+02	3.2500000000E+02	0.000E+00	0.0
	25	2	5	5	0	0	1.2862730985E+02	3.5544014101E+01	-2.5577809968E+02	3.1448488796E+02	1.2517965770E+02	0.000E+00	0.0
	-5	1	9	9	0	501	5.5697832675E+01	4.3036566781E+00	-2.2059003195E+02	2.2759218928E+02	4.1800000000E+00	0.000E+00	0.0
	5	1	9	9	501	0	7.2929477178E+01	3.1240357423E+01	-3.5188067725E+01	8.6892698678E+01	4.1800000000E+00	0.000E+00	0.0
</event>
<event>
    11  -1  1.0000000E+00  1.0000000E+00  -1.0000000E+00  -1.0000000E+00
	2212	-1	0	0	0	0	0.0000000000E+00	0.0000000000E+00	6.5000000000E+03	6.5000000000E+03	9.3827000000E-01	0.000E+00	0.0
	2212	-1	0	0	0	0	0.0000000000E+00	0.0000000000E+00	-6.5000000000E+03	6.5000000000E+03	9.3827000000E-01	0.000E+00	0.0
	2212	1	0	0	0	0	0.0000000000E+00	0.0000000000E+00	5.8581207979E+03	5.8581207979E+03	9.3827000000E-01	0.000E+00	0.0
	2212	1	0	0	0	0	0.0000000000E+00	0.0000000000E+00	-6.0682163882E+03	6.0682163882E+03	9.3827000000E-01	0.000E+00	0.0
	51	2	1	2	0	0	1.3537287777E+02	-5.9191386931E+00	1.6489836616E+02	1.0743202522E+03	1.0529063021E+03	0.000E+00	0.0
	1000022	2	5	5	0	0	-1.3537287777E+02	5.9191386931E+00	2.1927779178E+02	8.8895586579E+02	8.5076373284E+02	0.000E+00	0.0
	14	1	6	6	0	0	-1.9079567718E+02	-9.1316408142E+01	3.4886658051E+02	5.2160767616E+02	3.2500000000E+02	0.000E+00	0.0
	-14	1	6	6	0	0	5.5422799413E+01	9.7235546835E+01	-1.2958878873E+02	3.6734818963E+02	3.2500000000E+02	0.000E+00	0.0
	25	2	5	5	0	0	1.3537287777E+02	-5.9191386931E+00	-9.1822015672E+00	1.8470694810E+02	1.2518582833E+02	0.000E+00	0.0
	-5	1	9	9	0	501	1.2424770711E+02	-5.2874855745E+01	1.5136919027E+00	1.3510368891E+02	4.1800000000E+00	0.000E+00	0.0
	5	1	9	9	501	0	1.1125170659E+01	4.6955717052E+01	-1.0695893470E+01	4.9603259199E+01	4.1800000000E+00	0.000E+00	0.0
</event>
<event>
    11  -1  1.0000000E+00  1.0000000E+00  -1.0000000E+00  -1.0000000E+00
	2212	-1	0	0	0	0	0.0000000000E+00	0.0000000000E+00	6.5000000000E+03	6.5000000000E+03	9.3827000000E-01	0.000E+00	0.0
	2212	-1	0	0	0	0	0.0000000000E+00	0.0000000000E+00	-6.5000000000E+03	6.5000000000E+03	9.3827000000E-01	0.000E+00	0.0
	2212	1	0	0	0	0	0.0000000000E+00	0.0000000000E+00	6.2672985071E+03	6.2672985071E+03	9.3827000000E-01	0.000E+00	0.0
	2212	1	0	0	0	0	0.0000000000E+00	0.0000000000E+00	-5.3162349679E+03	5.3162349679E+03	9.3827000000E-01	0.000E+00	0.0
	51	2	1	2	0	0	7.5557528719E+00	3.4447839456E+01	-1.1202490403E+03	1.5355966971E+03	1.0496930794E+03	0.000E+00	0.0
	1000022	2	5	5	0	0	-7.5557528719E+00	-3.4447839456E+01	-6.2808587450E+02	1.0682859872E+03	8.6342303747E+02	0.000E+00	0.0
	14	1	6	6	0	0	1.1270542378E+01	1.3110034570E+02	-1.0490917388E+01	3.5078395789E+02	3.2500000000E+02	0.000E+00	0.0
	-14	1	6	6	0	0	-1.8826295250E+01	-1.6554818515E+02	-6.1759495711E+02	7.1750202930E+02	3.2500000000E+02	0.000E+00	0.0
	25	2	5	5	0	0	7.5557528719E+00	3.4447839456E+01	-3.2297766464E+02	3.4818053781E+02	1.2518535061E+02	0.000E+00	0.0
	-5	1	9	9	0	501	4.1977018193E+01	2.7250473722E+01	-4.3418996565E+01	6.6387800364E+01	4.1800000000E+00	0.000E+00	0.0
	5	1	9	9	501	0	-3.4421265321E+01	7.1973657338E+00	-2.7955866807E+02	2.8179273744E+02	4.1800000000E+00	0.000E+00	0.0
</event>
<event>
    11  -1  1.0000000E+00  1.0000000E+00  -1.0000000E+00  -1.0000000E+00
	2212	-1	0	0	0	0	0.0000000000E+00	0.0000000000E+00	6.5000000000E+03	6.5000000000E+03	9.3827000000E-01	0.000E+00	0.0
	2212	-1	0	0	0	0	0.0000000000E+00	0.0000000000E+00	-6.5000000000E+03	6.5000000000E+03	9.3827000000E-01	0.000E+00	0.0
	2212	1	0	0	0	0	0.0000000000E+00	0.0000000000E+00	6.1712784435E+03	6.1712784435E+03	9.3827000000E-01	0.000E+00	0.0
	2212	1	0	0	0	0	0.0000000000E+00	0.0000000000E+00	-5.6907604400E+03	5.6907604400E+03	9.3827000000E-01	0.000E+00	0.0
	51	2	1	2	0	0	1.1602165654E+02	-1.2314430397E+01	-5.2555860127E+02	1.1635645510E+03	1.0315318468E+03	0.000E+00	0.0
	1000022	2	5	5	0	0	-1.1602165654E+02	1.2314430397E+01	-3.5722902602E+02	9.2705013300E+02	8.4746486776E+02	0.000E+00	0.0
	14	1	6	6	0	0	4.3523641024E+01	-6.9251393512E+01	8.8911251193E+01	3.4672795304E+02	3.2500000000E+02	0.000E+00	0.0
	-14	1	6	6	0	0	-1.5954529756E+02	8.1565823909E+01	-4.4614027721E+02	5.8032217996E+02	3.2500000000E+02	0.000E+00	0.0
	25	2	5	5	0	0	1.1602165654E+02	-1.2314430397E+01	-1.2328897744E+02	2.1091098346E+02	1.2518227112E+02	0.000E+00	0.0
	-5	1	9	9	0	501	1.0126040186E+02	3.3758928860E+01	-3.9160323258E+01	1.1377318480E+02	4.1800000000E+00	0.000E+00	0.0
	5	1	9	9	501	0	1.4761254681E+01	-4.6073359256E+01	-8.4128654185E+01	9.7137798656E+01	4.1800000000E+00	0.000E+00	0.0
</event>
<event>
    11  -1  1.0000000E+00  1.0000000E+00  -1.0000000E+00  -1.0000000E+00
	2212	-1	0	0	0	0	0.0000000000E+00	0.0000000000E+00	6.5000000000E+03	6.5000000000E+03	9.3827000000E-01	0.000E+00	0.0
	2212	-1	0	0	0	0	0.0000000000E+00	0.0000000000E+00	-6.5000000000E+03	6.5000000000E+03	9.3827000000E-01	0.000E+00	0.0
	2212	1	0	0	0	0	0.0000000000E+00	0.0000000000E+00	6.2261468986E+03	6.2261468986E+03	9.3827000000E-01	0.000E+00	0.0
	2212	1	0	0	0	0	0.0000000000E+00	0.0000000000E+00	-5.5187107261E+03	5.5187107261E+03	9.3827000000E-01	0.000E+00	0.0
	51	2	1	2	0	0	-1.1106049428E+02	-2.7407613903E+01	-6.7051894834E+02	1.2399990786E+03	1.0367817727E+03	0.000E+00	0.0
	1000022	2	5	5	0	0	1.1106049428E+02	2.7407613903E+01	-6.3092944091E+02	1.0690474278E+03	8.5539747062E+02	0.000E+00	0.0
	14	1	6	6	0	0	1.0804191672E+02	-9.0302330369E+01	-6.3072821332E+02	7.2337448512E+02	3.2500000000E+02	0.000E+00	0.0
	-14	1	6	6	0	0	3.0185775586E+00	1.1770994427E+02	-2.0122758036E-01	3.4567294265E+02	3.2500000000E+02	0.000E+00	0.0
	25	2	5	5	0	0	-1.1106049428E+02	-2.7407613903E+01	-7.6506731619E+01	1.8609494756E+02	1.2526946489E+02	0.000E+00	0.0
	-5	1	9	9	0	501	-1.1403121418E+02	-2.9362622754E+01	-1.0454807218E+02	1.5752159604E+02	4.1800000000E+00	0.000E+00	0.0
	5	1	9	9	501	0	2.9707198993E+00	1.9550088509E+00	2.8041340564E+01	2.8573351518E+01	4.1800000000E+00	0.000E+00	0.0
</event>
<event>
    11  -1  1.0000000E+00  1.0000000E+00  -1.0000000E+00  -1.0000000E+00
	2212	-1	0	0	0	0	0.0000000000E+00	0.0000000000E+00	6.5000000000E+03	6.5000000000E+03	9.3827000000E-01	0.000E+00	0.0
	2212	-1	0	0	0	0	0.0000000000E+00	0.0000000000E+00	-6.5000000000E+03	6.5000000000E+03	9.3827000000E-01	0.000E+00	0.0
	2212	1	0	0	0	0	0.0000000000E+00	0.0000000000E+00	4.9677367379E+03	4.9677367379E+03	9.3827000000E-01	0.000E+00	0.0
	2212	1	0	0	0	0	0.0000000000E+00	0.0000000000E+00	-6.3200388568E+03	6.3200388568E+03	9.3827000000E-01	0.000E+00	0.0
	51	2	1	2	0	0	-5.2753149592E+01	-5.3734074188E+01	1.5342457072E+03	1.8607986267E+03	1.0502339708E+03	0.000E+00	0.0
	1000022	2	5	5	0	0	5.2753149592E+01	5.3734074188E+01	9.4867550808E+02	1.2829650648E+03	8.6043238688E+02	0.000E+00	0.0
	14	1	6	6	0	0	-4.2942879140E+01	-2.4138918805E+02	5.3448799421E+02	6.7187442794E+02	3.2500000000E+02	0.000E+00	0.0
	-14	1	6	6	0	0	9.5696028732E+01	2.9512326223E+02	4.1418751387E+02	6.1109063687E+02	3.2500000000E+02	0.000E+00	0.0
	25	2	5	5	0	0	-5.2753149592E+01	-5.3734074188E+01	4.0362661082E+02	4.2925934050E+02	1.2521539411E+02	0.000E+00	0.0
	-5	1	9	9	0	501	-1.5059956255E+01	-9.1298190519E+01	2.6393639749E+02	2.7971781530E+02	4.1800000000E+00	0.000E+00	0.0
	5	1	9	9	501	0	-3.7693193336E+01	3.7564116331E+01	1.3969021334E+02	1.4954152521E+02	4.1800000000E+00	0.000E+00	0.0
</event>
<event>
    11  -1  1.0000000E+00  1.0000000E+00  -1.0000000E+00  -1.0000000E+00
	2212	-1	0	0	0	0	0.0000000000E+00	0.0000000000E+00	6.5000000000E+03	6.5000000000E+03	9.3827000000E-01	0.000E+00	0.0
	2212	-1	0	0	0	0	0.0000000000E+00	0.0000000000E+00	-6.5000000000E+03	6.5000000000E+03	9.3827000000E-01	0.000E+00	0.0
	2212	1	0	0	0	0	0.0000000000E+00	0.0000000000E+00	6.2708176477E+03	6.2708176477E+03	9.3827000000E-01	0.000E+00	0.0
	2212	1	0	0	0	0	0.0000000000E+00	0.0000000000E+00	-5.2922356206E+03	5.2922356206E+03	9.3827000000E-01	0.000E+00	0.0
	51	2	1	2	0	0	-9.5207026319E+01	7.7553524162E+01	-1.0701312418E+03	1.5058064044E+03	1.0522324486E+03	0.000E+00	0.0
	1000022	2	5	5	0	0	9.5207026319E+01	-7.7553524162E+01	-7.2264631074E+02	1.1267024434E+03	8.5566452457E+02	0.000E+00	0.0
	14	1	6	6	0	0	-1.4554347702E+02	-2.1751471214E+02	-4.7490018978E+02	6.3217936059E+02	3.2500000000E+02	0.000E+00	0.0
	-14	1	6	6	0	0	2.4075050334E+02	1.3996118797E+02	-2.4774612096E+02	4.9452308283E+02	3.2500000000E+02	0.000E+00	0.0
	25	2	5	5	0	0	-9.5207026319E+01	7.7553524162E+01	-2.5593571639E+02	3.1024428824E+02	1.2517787540E+02	0.000E+00	0.0
	-5	1	9	9	0	501	1.6995002662E+01	5.8377488646E+01	-7.8245325811E+01	9.9179457083E+01	4.1800000000E+00	0.000E+00	0.0
	5	1	9	9	501	0	-1.1220202898E+02	1.9176035516E+01	-1.7769039058E+02	2.1106483116E+02	4.1800000000E+00	0.000E+00	0.0
</event>
<event>
    11  -1  1.0000000E+00  1.0000000E+00  -1.0000000E+00  -1.0000000E+00
	2212	-1	0	0	0	0	0.0000000000E+00	0.0000000000E+00	6.5000000000E+03	6.5000000000E+03	9.3827000000E-01	0.000E+00	0.0
	2212	-1	0	0	0	0	0.0000000000E+00	0.0000000000E+00	-6.5000000000E+03	6.5000000000E+03	9.3827000000E-01	0.000E+00	0.0
	2212	1	0	0	0	0	0.0000000000E+00	0.0000000000E+00	5.2711191458E+03	5.2711191458E+03	9.3827000000E-01	0.000E+00	0.0
	2212	1	0	0	0	0	0.0000000000E+00	0.0000000000E+00	-6.2734053209E+03	6.2734053209E+03	9.3827000000E-01	0.000E+00	0.0
	51	2	1	2	0	0	1.5111311968E+01	-1.0370042280E+02	1.1577046535E+03	1.5700616693E+03	1.0553821353E+03	0.000E+00	0.0
	1000022	2	5	5	0	0	-1.5111311968E+01	1.0370042280E+02	6.7216092763E+02	1.0871879754E+03	8.4805380243E+02	0.000E+00	0.0
	14	1	6	6	0	0	-2.2985303099E+02	8.7691369135E+01	5.3780735849E+02	6.7482141854E+02	3.2500000000E+02	0.000E+00	0.0
	-14	1	6	6	0	0	2.1474171902E+02	1.6009053669E+01	1.3435356914E+02	4.1236655687E+02	3.2500000000E+02	0.000E+00	0.0
	25	2	5	5	0	0	1.5111311968E+01	-1.0370042280E+02	3.3012524741E+02	3.6828755791E+02	1.2518353286E+02	0.000E+00	0.0
	-5	1	9	9	0	501	1.4858948178E+01	-1.2306694792E+02	3.2493879508E+02	3.4780591564E+02	4.1800000000E+00	0.000E+00	0.0
	5	1	9	9	501	0	2.5236378951E-01	1.9366525112E+01	5.1864523309E+00	2.0481642272E+01	4.1800000000E+00	0.000E+00	0.0
</event>
<event>
    11  -1  1.0000000E+00  1.0000000E+00  -1.0000000E+00  -1.0000000E+00
	2212	-1	0	0	0	0	0.0000000000E+00	0.0000000000E+00	6.5000000000E+03	6.5000000000E+03	9.3827000000E-01	0.000E+00	0.0
	2212	-1	0	0	0	0	0.0000000000E+00	0.0000000000E+00	-6.5000000000E+03	6.5000000000E+03	9.3827000000E-01	0.000E+00	0.0
	2212	1	0	0	0	0	0.0000000000E+00	0.0000000000E+00	5.4812248737E+03	5.4812248737E+03	9.3827000000E-01	0.000E+00	0.0
	2212	1	0	0	0	0	0.0000000000E+00	0.0000000000E+00	-6.2254733431E+03	6.2254733431E+03	9.3827000000E-01	0.000E+00	0.0
	51	2	1	2	0	0	8.1274667899E+01	1.1482541178E+02	7.7901263641E+02	1.3211263576E+03	1.0576973661E+03	0.000E+00	0.0
	1000022	2	5	5	0	0	-8.1274667899E+01	-1.1482541178E+02	5.8272953791E+02	1.0452118410E+03	8.5621471101E+02	0.000E+00	0.0
	14	1	6	6	0	0	1.5517435313E+02	-8.5121820394E+01	5.1865156486E+02	6.3714146774E+02	3.2500000000E+02	0.000E+00	0.0
	-14	1	6	6	0	0	-2.3644902103E+02	-2.9703591389E+01	6.4077973044E+01	4.0807037324E+02	3.2500000000E+02	0.000E+00	0.0
	25	2	5	5	0	0	8.1274667899E+01	1.1482541178E+02	1.6151893145E+02	2.4808994222E+02	1.2517910120E+02	0.000E+00	0.0
	-5	1	9	9	0	501	-4.5456548192E+00	1.9900566247E+01	-1.8037331957E+01	2.7559268111E+01	4.1800000000E+00	0.000E+00	0.0
	5	1	9	9	501	0	8.5820322718E+01	9.4924845536E+01	1.7955626341E+02	2.2053067411E+02	4.1800000000E+00	0.000E+00	0.0
</event>
<event>
    11  -1  1.0000000E+00  1.0000000E+00  -1.0000000E+00  -1.0000000E+00
	2212	-1	0	0	0	0	0.0000000000E+00	0.0000000000E+00	6.5000000000E+03	6.5000000000E+03	9.3827000000E-01	0.000E+00	0.0
	2212	-1	0	0	0	0	0.0000000000E+00	0.0000000000E+00	-6.5000000000E+03	6.5000000000E+03	9.3827000000E-01	0.000E+00	0.0
	2212	1	0	0	0	0	0.0000000000E+00	0.0000000000E+00	5.4513153930E+03	5.4513153930E+03	9.3827000000E-01	0.000E+00	0.0
	2212	1	0	0	0	0	0.0000000000E+00	0.0000000000E+00	-6.2356043053E+03	6.2356043053E+03	9.3827000000E-01	0.000E+00	0.0
	51	2	1	2	0	0	-1.1465973979E+02	2.1403549450E+01	6.8459849841E+02	1.2614875555E+03	1.0531242951E+03	0.000E+00	0.0
	1000022	2	5	5	0	0	1.1465973979E+02	-2.1403549450E+01	7.4878772471E+02	1.1383311654E+03	8.4941734006E+02	0.000E+00	0.0
	14	1	6	6	0	0	2.1066586899E+02	-2.0976104595E+02	2.4960629790E+02	5.0626881072E+02	3.2500000000E+02	0.000E+00	0.0
	-14	1	6	6	0	0	-9.6006129203E+01	1.8835749650E+02	4.9918142681E+02	6.3206235468E+02	3.2500000000E+02	0.000E+00	0.0
	25	2	5	5	0	0	-1.1465973979E+02	2.1403549450E+01	3.5501187607E+01	1.7474913636E+02	1.2518769300E+02	0.000E+00	0.0
	-5	1	9	9	0	501	-6.3938121195E+01	-1.3604487517E+01	7.6422287342E+01	1.0065288781E+02	4.1800000000E+00	0.000E+00	0.0
	5	1	9	9	501	0	-5.0721618597E+01	3.5008036967E+01	-4.0921099736E+01	7.4096248548E+01	4.1800000000E+00	0.000E+00	0.0
</event>
<event>
    11  -1  1.0000000E+00  1.0000000E+00  -1.0000000E+00  -1.0000000E+00
	2212	-1	0	0	0	0	0.0000000000E+00	0.0000000000E+00	6.5000000000E+03	6.5000000000E+03	9.3827000000E-01	0.000E+00	0.0
	2212	-1	0	0	0	0	0.0000000000E+00	0.0000000000E+00	-6.5000000000E+03	6.5000000000E+03	9.3827000000E-01	0.000E+00	0.0
	2212	1	0	0	0	0	0.0000000000E+00	0.0000000000E+00	5.9231668261E+03	5.9231668261E+03	9.3827000000E-01	0.000E+00	0.0
	2212	1	0	0	0	0	0.0000000000E+00	0.0000000000E+00	-6.0206543083E+03	6.0206543083E+03	9.3827000000E-01	0.000E+00	0.0
	51	2	1	2	0	0	-1.1212263415E+02	-8.7094873093E-01	9.0466711996E+01	1.0614925608E+03	1.0516700942E+03	0.000E+00	0.0
	1000022	2	5	5	0	0	1.1212263415E+02	8.7094873093E-01	8.9471427135E+01	8.8795628430E+02	8.7629274955E+02	0.000E+00	0.0
	14	1	6	6	0	0	-8.4845784999E+01	2.1408582084E+02	-1.0325710084E+02	4.1148338337E+02	3.2500000000E+02	0.000E+00	0.0
	-14	1	6	6	0	0	1.9696841915E+02	-2.1321487211E+02	1.9272852797E+02	4.7647290093E+02	3.2500000000E+02	0.000E+00	0.0
	25	2	5	5	0	0	-1.1212263415E+02	-8.7094873093E-01	8.0160551074E+00	1.6822258131E+02	1.2514925522E+02	0.000E+00	0.0
	-5	1	9	9	0	501	-1.1726559306E+02	1.7030016825E+01	-3.2920161220E+01	1.2305466348E+02	4.1800000000E+00	0.000E+00	0.0
	5	1	9	9	501	0	5.1429589075E+00	-1.7900965556E+01	4.0936216327E+01	4.5167917833E+01	4.1800000000E+00	0.000E+00	0.0
</event>
<event>
    11  -1  1.0000000E+00  1.0000000E+00  -1.0000000E+00  -1.0000000E+00
	2212	-1	0	0	0	0	0.0000000000E+00	0.0000000000E+00	6.5000000000E+03	6.5000000000E+03	9.3827000000E-01	0.000E+00	0.0
	2212	-1	0	0	0	0	0.0000000000E+00	0.0000000000E+00	-6.5000000000E+03	6.5000000000E+03	9.3827000000E-01	0.000E+00	0.0
	2212	1	0	0	0	0	0.0000000000E+00	0.0000000000E+00	4.9309633559E+03	4.9309633559E+03	9.3827000000E-01	0.000E+00	0.0
	2212	1	0	0	0	0	0.0000000000E+00	0.0000000000E+00	-6.3252172277E+03	6.3252172277E+03	9.3827000000E-01	0.000E+00	0.0
	51	2	1	2	0	0	1.0657766007E+02	5.5329633165E+01	1.5015468925E+03	1.8346731410E+03	1.0473596793E+03	0.000E+00	0.0
	1000022	2	5	5	0	0	-1.0657766007E+02	-5.5329633165E+01	1.0548513777E+03	1.3626620285E+03	8.5423428227E+02	0.000E+00	0.0
	14	1	6	6	0	0	1.1895921248E+02	1.5454532375E+02	6.8071419321E+02	7.7912281713E+02	3.2500000000E+02	0.000E+00	0.0
	-14	1	6	6	0	0	-2.2553687255E+02	-2.0987495691E+02	3.7413718450E+02	5.8353921140E+02	3.2500000000E+02	0.000E+00	0.0
	25	2	5	5	0	0	1.0657766007E+02	5.5329633165E+01	3.3940249415E+02	3.8115738789E+02	1.2516683017E+02	0.000E+00	0.0
	-5	1	9	9	0	501	3.6532746770E+01	2.0356577654E+01	2.7910021776E+02	2.8224711831E+02	4.1800000000E+00	0.000E+00	0.0
	5	1	9	9	501	0	7.0044913300E+01	3.4973055511E+01	6.0302276397E+01	9.8910269586E+01	4.1800000000E+00	0.000E+00	0.0
</event>
<event>
    11  -1  1.0000000E+00  1.0000000E+00  -1.0000000E+00  -1.0000000E+00
	2212	-1	0	0	0	0	0.0000000000E+00	0.0000000000E+00	6.5000000000E+03	6.5000000000E+03	9.3827000000E-01	0.000E+00	0.0
	2212	-1	0	0	0	0	0.0000000000E+00	0.0000000000E+00	-6.5000000000E+03	6.5000000000E+03	9.3827000000E-01	0.000E+00	0.0
	2212	1	0	0	0	0	0.0000000000E+00	0.0000000000E+00	6.3151935287E+03	6.3151935287E+03	9.3827000000E-01	0.000E+00	0.0
	2212	1	0	0	0	0	0.0000000000E+00	0.0000000000E+00	-5.0128361128E+03	5.0128361128E+03	9.3827000000E-01	0.000E+00	0.0
	51	2	1	2	0	0	-1.0289366761E+02	9.2167678768E+01	-1.1908592858E+03	1.5926637647E+03	1.0484989465E+03	0.000E+00	0.0
	1000022	2	5	5	0	0	1.0289366761E+02	-9.2167678768E+01	-1.1771690057E+03	1.4474180616E+03	8.3078889576E+02	0.000E+00	0.0
	14	1	6	6	0	0	-1.6452201325E+02	-7.1151553085E+01	-7.9989556364E+02	8.8180947436E+02	3.2500000000E+02	0.000E+00	0.0
	-14	1	6	6	0	0	2.6741568086E+02	-2.1016125683E+01	-3.7727344207E+02	5.6560858728E+02	3.2500000000E+02	0.000E+00	0.0
	25	2	5	5	0	0	-1.0289366761E+02	9.2167678768E+01	-1.2518841019E+02	2.2455229684E+02	1.2517830533E+02	0.000E+00	0.0
	-5	1	9	9	0	501	-3.2125914102E+01	1.0007706056E+02	-3.7863797212E+01	1.1179728059E+02	4.1800000000E+00	0.000E+00	0.0
	5	1	9	9	501	0	-7.0767753509E+01	-7.9093817948E+00	-8.7324612979E+01	1.1275501625E+02	4.1800000000E+00	0.000E+00	0.0
</event>
<event>
    11  -1  1.0000000E+00  1.0000000E+00  -1.0000000E+00  -1.0000000E+00
	2212	-1	0	0	0	0	0.0000000000E+00	0.0000000000E+00	6.5000000000E+03	6.5000000000E+03	9.3827000000E-01	0.000E+00	0.0
	2212	-1	0	0	0	0	0.0000000000E+00	0.0000000000E+00	-6.5000000000E+03	6.5000000000E+03	9.3827000000E-01	0.000E+00	0.0
	2212	1	0	0	0	0	0.0000000000E+00	0.0000000000E+00	6.3010571166E+03	6.3010571166E+03	9.3827000000E-01	0.000E+00	0.0
	2212	1	0	0	0	0	0.0000000000E+00	0.0000000000E+00	-5.1332974983E+03	5.1332974983E+03	9.3827000000E-01	0.000E+00	0.0
	51	2	1	2	0	0	1.6798245316E+01	1.2835785437E+02	-1.1331436902E+03	1.5454305188E+03	1.0428724494E+03	0.000E+00	0.0
	1000022	2	5	5	0	0	-1.6798245316E+01	-1.2835785437E+02	-1.0074971253E+03	1.3245817351E+03	8.5012257683E+02	0.000E+00	0.0
	14	1	6	6	0	0	1.0821546298E+02	-7.3281972438E+01	-8.8426560618E+02	9.5112117850E+02	3.2500000000E+02	0.000E+00	0.0
	-14	1	6	6	0	0	-1.2501370830E+02	-5.5075881932E+01	-1.2323151913E+02	3.7346055660E+02	3.2500000000E+02	0.000E+00	0.0
	25	2	5	5	0	0	1.6798245316E+01	1.2835785437E+02	-1.6026249295E+02	2.4106364998E+02	1.2517865980E+02	0.000E+00	0.0
	-5	1	9	9	0	501	2.3340484625E+01	1.3718668939E+02	-8.1279428540E+01	1.6121037148E+02	4.1800000000E+00	0.000E+00	0.0
	5	1	9	9	501	0	-6.5422393084E+00	-8.8288350230E+00	-7.8983064410E+01	7.9853278497E+01	4.1800000000E+00	0.000E+00	0.0
</event>
<event>
    11  -1  1.0000000E+00  1.0000000E+00  -1.0000000E+00  -1.0000000E+00
	2212	-1	0	0	0	0	0.0000000000E+00	0.0000000000E+00	6.5000000000E+03	6.5000000000E+03	9.3827000000E-01	0.000E+00	0.0
	2212	-1	0	0	0	0	0.0000000000E+00	0.0000000000E+00	-6.5000000000E+03	6.5000000000E+03	9.3827000000E-01	0.000E+00	0.0
	2212	1	0	0	0	0	0.0000000000E+00	0.0000000000E+00	5.3380499155E+03	5.3380499155E+03	9.3827000000E-01	0.000E+00	0.0
	2212	1	0	0	0	0	0.0000000000E+00	0.0000000000E+00	-6.2593947164E+03	6.2593947164E+03	9.3827000000E-01	0.000E+00	0.0
	51	2	1	2	0	0	-9.0599700612E+01	-9.7361210203E+01	1.0381602649E+03	1.4878674555E+03	1.0574901033E+03	0.000E+00	0.0
	1000022	2	5	5	0	0	9.0599700612E+01	9.7361210203E+01	6.4050021642E+02	1.0675431433E+03	8.4363518459E+02	0.000E+00	0.0
	14	1	6	6	0	0	-5.0418781984E+01	-7.5991480124E+01	5.7638326218E+02	6.6795166258E+02	3.2500000000E+02	0.000E+00	0.0
	-14	1	6	6	0	0	1.4101848260E+02	1.7335269033E+02	6.4116954237E+01	3.9959148076E+02	3.2500000000E+02	0.000E+00	0.0
	25	2	5	5	0	0	-9.0599700612E+01	-9.7361210203E+01	2.8084458443E+02	3.3501222473E+02	1.2518785529E+02	0.000E+00	0.0
	-5	1	9	9	0	501	-2.7787212864E+01	-6.3932885210E+01	3.3221175907E+01	7.7334739533E+01	4.1800000000E+00	0.000E+00	0.0
	5	1	9	9	501	0	-6.2812487749E+01	-3.3428324993E+01	2.4762340853E+02	2.5767748520E+02	4.1800000000E+00	0.000E+00	0.0
</event>
<event>
    11  -1  1.0000000E+00  1.0000000E+00  -1.0000000E+00  -1.0000000E+00
	2212	-1	0	0	0	0	0.0000000000E+00	0.0000000000E+00	6.5000000000E+03	6.5000000000E+03	9.3827000000E-01	0.000E+00	0.0
	2212	-1	0	0	0	0	0.0000000000E+00	0.0000000000E+00	-6.5000000000E+03	6.5000000000E+03	9.3827000000E-01	0.000E+00	0.0
	2212	1	0	0	0	0	0.0000000000E+00	0.0000000000E+00	5.0051024329E+03	5.0051024329E+03	9.3827000000E-01	0.000E+00	0.0
	2212	1	0	0	0	0	0.0000000000E+00	0.0000000000E+00	-6.3121966138E+03	6.3121966138E+03	9.3827000000E-01	0.000E+00	0.0
	51	2	1	2	0	0	-1.3691137330E+02	5.5659464893E+01	1.3546943286E+03	1.7262753906E+03	1.0597109513E+03	0.000E+00	0.0
	1000022	2	5	5	0	0	1.3691137330E+02	-5.5659464893E+01	1.0320184824E+03	1.3462835578E+03	8.5180665055E+02	0.000E+00	0.0
	14	1	6	6	0	0	6.0810145677E+01	-1.9300546465E+02	1.8425569298E+02	4.2488132884E+02	3.2500000000E+02	0.000E+00	0.0
	-14	1	6	6	0	0	7.6101227619E+01	1.3734599975E+02	8.4776278939E+02	9.2140222898E+02	3.2500000000E+02	0.000E+00	0.0
	25	2	5	5	0	0	-1.3691137330E+02	5.5659464893E+01	2.7507569859E+02	3.3641739545E+02	1.2516918084E+02	0.000E+00	0.0
	-5	1	9	9	0	501	-9.0634461312E+00	-6.4976483175E+00	-1.1460540603E+01	1.6528214675E+01	4.1800000000E+00	0.000E+00	0.0
	5	1	9	9	501	0	-1.2784792716E+02	6.2157113211E+01	2.8653623919E+02	3.1988918077E+02	4.1800000000E+00	0.000E+00	0.0
</event>
<event>
    11  -1  1.0000000E+00  1.0000000E+00  -1.0000000E+00  -1.0000000E+00
	2212	-1	0	0	0	0	0.0000000000E+00	0.0000000000E+00	6.5000000000E+03	6.5000000000E+03	9.3827000000E-01	0.000E+00	0.0
	2212	-1	0	0	0	0	0.0000000000E+00	0.0000000000E+00	-6.5000000000E+03	6.5000000000E+03	9.3827000000E-01	0.000E+00	0.0
	2212	1	0	0	0	0	0.0000000000E+00	0.0000000000E+00	6.3137012883E+03	6.3137012883E+03	9.3827000000E-01	0.000E+00	0.0
	2212	1	0	0	0	0	0.0000000000E+00	0.0000000000E+00	-5.0260738413E+03	5.0260738413E+03	9.3827000000E-01	0.000E+00	0.0
	51	2	1	2	0	0	8.7405439052E+01	1.0038767079E+02	-1.2183724226E+03	1.6126099757E+03	1.0480277565E+03	0.000E+00	0.0
	1000022	2	5	5	0	0	-8.7405439052E+01	-1.0038767079E+02	-1.1355996837E+03	1.4225249497E+03	8.4632924787E+02	0.000E+00	0.0
	14	1	6	6	0	0	-2.4951094415E+02	-1.3524265830E+01	-3.0224665209E+02	5.0932961402E+02	3.2500000000E+02	0.000E+00	0.0
	-14	1	6	6	0	0	1.6210550510E+02	-8.6863404955E+01	-8.3335303156E+02	9.1319533568E+02	3.2500000000E+02	0.000E+00	0.0
	25	2	5	5	0	0	8.7405439052E+01	1.0038767079E+02	-1.5202776328E+02	2.3769992072E+02	1.2518552745E+02	0.000E+00	0.0
	-5	1	9	9	0	501	1.2762106202E+01	-1.4142163244E+01	-8.1528768815E+01	8.3828901224E+01	4.1800000000E+00	0.000E+00	0.0
	5	1	9	9	501	0	7.4643332850E+01	1.1452983403E+02	-7.0498994465E+01	1.5387101950E+02	4.1800000000E+00	0.000E+00	0.0
</event>
<event>
    11  -1  1.0000000E+00  1.0000000E+00  -1.0000000E+00  -1.0000000E+00
	2212	-1	0	0	0	0	0.0000000000E+00	0.0000000000E+00	6.5000000000E+03	6.5000000000E+03	9.3827000000E-01	0.000E+00	0.0
	2212	-1	0	0	0	0	0.0000000000E+00	0.0000000000E+00	-6.5000000000E+03	6.5000000000E+03	9.3827000000E-01	0.000E+00	0.0
	2212	1	0	0	0	0	0.0000000000E+00	0.0000000000E+00	5.9499698116E+03	5.9499698116E+03	9.3827000000E-01	0.000E+00	0.0
	2212	1	0	0	0	0	0.0000000000E+00	0.0000000000E+00	-5.9999125134E+03	5.9999125134E+03	9.3827000000E-01	0.000E+00	0.0
	51	2	1	2	0	0	-9.1258120875E+01	3.5509610545E+01	3.6627275969E+01	1.0541268388E+03	1.0489293865E+03	0.000E+00	0.0
	1000022	2	5	5	0	0	9.1258120875E+01	-3.5509610545E+01	5.5884704300E+01	8.9107160033E+02	8.8390979159E+02	0.000E+00	0.0
	14	1	6	6	0	0	2.1951802639E+02	1.4337170051E+02	2.1240647198E+02	4.6849238815E+02	3.2500000000E+02	0.000E+00	0.0
	-14	1	6	6	0	0	-1.2825990551E+02	-1.7888131105E+02	-1.5652176768E+02	4.2257921218E+02	3.2500000000E+02	0.000E+00	0.0
	25	2	5	5	0	0	-9.1258120875E+01	3.5509610545E+01	-5.9420024780E+00	1.5904607468E+02	1.2518534024E+02	0.000E+00	0.0
	-5	1	9	9	0	501	-1.1715620042E+01	6.9711250023E+01	-1.3296871686E+01	7.2049936360E+01	4.1800000000E+00	0.000E+00	0.0
	5	1	9	9	501	0	-7.9542500833E+01	-3.4201639479E+01	7.3548692084E+00	8.6996138322E+01	4.1800000000E+00	0.000E+00	0.0
</event>
<event>
    11  -1  1.0000000E+00  1.0000000E+00  -1.0000000E+00  -1.0000000E+00
	2212	-1	0	0	0	0	0.0000000000E+00	0.0000000000E+00	6.5000000000E+03	6.5000000000E+03	9.3827000000E-01	0.000E+00	0.0
	2212	-1	0	0	0	0	0.0000000000E+00	0.0000000000E+00	-6.5000000000E+03	6.5000000000E+03	9.3827000000E-01	0.000E+00	0.0
	2212	1	0	0	0	0	0.0000000000E+00	0.0000000000E+00	5.7978237418E+03	5.7978237418E+03	9.3827000000E-01	0.000E+00	0.0
	2212	1	0	0	0	0	0.0000000000E+00	0.0000000000E+00	-6.1179977459E+03	6.1179977459E+03	9.3827000000E-01	0.000E+00	0.0
	51	2	1	2	0	0	-4.9231889074E+01	4.6806070563E+01	4.1562025494E+02	1.1181620799E+03	1.0358241422E+03	0.000E+00	0.0
	1000022	2	5	5	0	0	4.9231889074E+01	-4.6806070563E+01	1.7461955618E+02	8.8051773776E+02	8.6035161996E+02	0.000E+00	0.0
	14	1	6	6	0	0	-6.3338125202E+01	-1.9330661105E+02	2.9933323618E+02	4.8642013760E+02	3.2500000000E+02	0.000E+00	0.0
	-14	1	6	6	0	0	1.1257001428E+02	1.4650054049E+02	-1.2471368000E+02	3.9409760017E+02	3.2500000000E+02	0.000E+00	0.0
	25	2	5	5	0	0	-4.9231889074E+01	4.6806070563E+01	1.4555444801E+02	2.0366077454E+02	1.2520793348E+02	0.000E+00	0.0
	-5	1	9	9	0	501	-2.2186393247E+01	4.0597295941E+01	1.6375301980E+02	1.7021427783E+02	4.1800000000E+00	0.000E+00	0.0
	5	1	9	9	501	0	-2.7045495827E+01	6.2087746214E+00	-1.8198571793E+01	3.3446496709E+01	4.1800000000E+00	0.000E+00	0.0
</event>
<event>
    11  -1  1.0000000E+00  1.0000000E+00  -1.0000000E+00  -1.0000000E+00
	2212	-1	0	0	0	0	0.0000000000E+00	0.0000000000E+00	6.5000000000E+03	6.5000000000E+03	9.3827000000E-01	0.000E+00	0.0
	2212	-1	0	0	0	0	0.0000000000E+00	0.0000000000E+00	-6.5000000000E+03	6.5000000000E+03	9.3827000000E-01	0.000E+00	0.0
	2212	1	0	0	0	0	0.0000000000E+00	0.0000000000E+00	5.3684923413E+03	5.3684923413E+03	9.3827000000E-01	0.000E+00	0.0
	2212	1	0	0	0	0	0.0000000000E+00	0.0000000000E+00	-6.2568866857E+03	6.2568866857E+03	9.3827000000E-01	0.000E+00	0.0
	51	2	1	2	0	0	9.8223261068E+01	-9.5952020191E+01	8.8095739786E+02	1.3766912669E+03	1.0489701179E+03	0.000E+00	0.0
	1000022	2	5	5	0	0	-9.8223261068E+01	9.5952020191E+01	7.4580384188E+02	1.1404117880E+03	8.5174002873E+02	0.000E+00	0.0
	14	1	6	6	0	0	-1.4861053534E+02	-2.0472842434E+02	2.9552807240E+02	5.0691287272E+02	3.2500000000E+02	0.000E+00	0.0
	-14	1	6	6	0	0	5.0387274277E+01	3.0068044454E+02	4.5027576948E+02	6.3349891532E+02	3.2500000000E+02	0.000E+00	0.0
	25	2	5	5	0	0	9.8223261068E+01	-9.5952020191E+01	1.4259050249E+02	2.3420918494E+02	1.2516905255E+02	0.000E+00	0.0
	-5	1	9	9	0	501	4.5249215811E+00	-4.8423636320E+01	-9.0851439559E+00	4.9652147088E+01	4.1800000000E+00	0.000E+00	0.0
	5	1	9	9	501	0	9.3698339487E+01	-4.7528383871E+01	1.5167564644E+02	1.8455703785E+02	4.1800000000E+00	0.000E+00	0.0
</event>
<event>
    11  -1  1.0000000E+00  1.0000000E+00  -1.0000000E+00  -1.0000000E+00
	2212	-1	0	0	0	0	0.0000000000E+00	0.0000000000E+00	6.5000000000E+03	6.5000000000E+03	9.3827000000E-01	0.000E+00	0.0
	2212	-1	0	0	0	0	0.0000000000E+00	0.0000000000E+00	-6.5000000000E+03	6.5000000000E+03	9.3827000000E-01	0.000E+00	0.0
	2212	1	0	0	0	0	0.0000000000E+00	0.0000000000E+00	6.1790446312E+03	6.1790446312E+03	9.3827000000E-01	0.000E+00	0.0
	2212	1	0	0	0	0	0.0000000000E+00	0.0000000000E+00	-5.6426014061E+03	5.6426014061E+03	9.3827000000E-01	0.000E+00	0.0
	51	2	1	2	0	0	-7.8473083491E+00	-2.5973303813E+01	-3.8422981282E+02	1.1176383446E+03	1.0491647762E+03	0.000E+00	0.0
	1000022	2	5	5	0	0	7.8473083491E+00	2.5973303813E+01	-5.9659694792E+02	1.0368507907E+03	8.4758212056E+02	0.000E+00	0.0
	14	1	6	6	0	0	5.4504681034E+01	-2.4615117817E+02	-2.1269260166E+02	4.6305972139E+02	3.2500000000E+02	0.000E+00	0.0
	-14	1	6	6	0	0	-4.6657372685E+01	2.7212448198E+02	-3.8390434626E+02	5.7379106929E+02	3.2500000000E+02	0.000E+00	0.0
	25	2	5	5	0	0	-7.8473083491E+00	-2.5973303813E+01	6.0153722812E+01	1.4150317198E+02	1.2517381737E+02	0.000E+00	0.0
	-5	1	9	9	0	501	-1.1884440434E+01	5.0095779417E+01	2.1117756693E+01	5.5805547104E+01	4.1800000000E+00	0.000E+00	0.0
	5	1	9	9	501	0	4.0371320849E+00	-7.6069083231E+01	3.9035966119E+01	8.5697624879E+01	4.1800000000E+00	0.000E+00	0.0
</event>
<event>
    11  -1  1.0000000E+00  1.0000000E+00  -1.0000000E+00  -1.0000000E+00
	2212	-1	0	0	0	0	0.0000000000E+00	0.0000000000E+00	6.5000000000E+03	6.5000000000E+03	9.3827000000E-01	0.000E+00	0.0
	2212	-1	0	0	0	0	0.0000000000E+00	0.0000000000E+00	-6.5000000000E+03	6.5000000000E+03	9.3827000000E-01	0.000E+00	0.0
	2212	1	0	0	0	0	0.0000000000E+00	0.0000000000E+00	5.3643381100E+03	5.3643381100E+03	9.3827000000E-01	0.000E+00	0.0
	2212	1	0	0	0	0	0.0000000000E+00	0.0000000000E+00	-6.2526777862E+03	6.2526777862E+03	9.3827000000E-01	0.000E+00	0.0
	51	2	1	2	0	0	-1.3551639881E+02	-5.6785299767E+01	8.9222951331E+02	1.3932553319E+03	1.0599517210E+03	0.000E+00	0.0
	1000022	2	5	5	0	0	1.3551639881E+02	5.6785299767E+01	7.3110880013E+02	1.1339886296E+03	8.5429554012E+02	0.000E+00	0.0
	14	1	6	6	0	0	-1.3670799622E+02	1.9643892038E+02	4.5906306620E+02	6.1126199328E+02	3.2500000000E+02	0.000E+00	0.0
	-14	1	6	6	0	0	2.7222439503E+02	-1.3965362061E+02	2.7204573393E+02	5.2272663635E+02	3.2500000000E+02	0.000E+00	0.0
	25	2	5	5	0	0	-1.3551639881E+02	-5.6785299767E+01	1.5723087606E+02	2.4899547409E+02	1.2525147949E+02	0.000E+00	0.0
	-5	1	9	9	0	501	-6.5788327411E+01	-6.6671099071E+01	2.1752364000E+01	9.6248517986E+01	4.1800000000E+00	0.000E+00	0.0
	5	1	9	9	501	0	-6.9728071396E+01	9.8857993037E+00	1.3547851206E+02	1.5274695610E+02	4.1800000000E+00	0.000E+00	0.0
</event>
<event>
    11  -1  1.0000000E+00  1.0000000E+00  -1.0000000E+00  -1.0000000E+00
	2212	-1	0	0	0	0	0.0000000000E+00	0.0000000000E+00	6.5000000000E+03	6.5000000000E+03	9.3827000000E-01	0.000E+00	0.0
	2212	-1	0	0	0	0	0.0000000000E+00	0.0000000000E+00	-6.5000000000E+03	6.5000000000E+03	9.3827000000E-01	0.000E+00	0.0
	2212	1	0	0	0	0	0.0000000000E+00	0.0000000000E+00	5.5810748740E+03	5.5810748740E+03	9.3827000000E-01	0.000E+00	0.0
	2212	1	0	0	0	0	0.0000000000E+00	0.0000000000E+00	-6.1981645777E+03	6.1981645777E+03	9.3827000000E-01	0.000E+00	0.0
	51	2	1	2	0	0	1.2208784359E+02	-7.6995037278E+01	6.3709784552E+02	1.2394288830E+03	1.0533074641E+03	0.000E+00	0.0
	1000022	2	5	5	0	0	-1.2208784359E+02	7.6995037278E+01	4.9071547781E+02	9.9167301801E+02	8.4957637513E+02	0.000E+00	0.0
	14	1	6	6	0	0	-3.4181005337E+01	2.0482916807E+02	4.9994783310E+02	6.3142391865E+02	3.2500000000E+02	0.000E+00	0.0
	-14	1	6	6	0	0	-8.7906838257E+01	-1.2783413079E+02	-9.2323552933E+00	3.6024909936E+02	3.2500000000E+02	0.000E+00	0.0
	25	2	5	5	0	0	1.2208784359E+02	-7.6995037278E+01	1.2637422587E+02	2.2908753028E+02	1.2520772440E+02	0.000E+00	0.0
	-5	1	9	9	0	501	1.3926643658E+02	-7.0805763419E+01	1.3675389525E+02	2.0767208950E+02	4.1800000000E+00	0.000E+00	0.0
	5	1	9	9	501	0	-1.7178592982E+01	-6.1892738590E+00	-1.0379669379E+01	2.1415440788E+01	4.1800000000E+00	0.000E+00	0.0
</event>
<event>
    11  -1  1.0000000E+00  1.0000000E+00  -1.0000000E+00  -1.0000000E+00
	2212	-1	0	0	0	0	0.0000000000E+00	0.0000000000E+00	6.5000000000E+03	6.5000000000E+03	9.3827000000E-01	0.000E+00	0.0
	2212	-1	0	0	0	0	0.0000000000E+00	0.0000000000E+00	-6.5000000000E+03	6.5000000000E+03	9.3827000000E-01	0.000E+00	0.0
	2212	1	0	0	0	0	0.0000000000E+00	0.0000000000E+00	5.0628951308E+03	5.0628951308E+03	9.3827000000E-01	0.000E+00	0.0
	2212	1	0	0	0	0	0.0000000000E+00	0.0000000000E+00	-6.3057725935E+03	6.3057725935E+03	9.3827000000E-01	0.000E+00	0.0
	51	2	1	2	0	0	-1.1431728333E+01	1.6188501413E+01	1.0493772073E+03	1.4893239680E+03	1.0566459230E+03	0.000E+00	0.0
	1000022	2	5	5	0	0	1.1431728333E+01	-1.6188501413E+01	1.2312310445E+03	1.5040763962E+03	8.6366843678E+02	0.000E+00	0.0
	14	1	6	6	0	0	-2.2823984442E+02	1.2043494489E+02	7.7863269641E+02	8.8232186783E+02	3.2500000000E+02	0.000E+00	0.0
	-14	1	6	6	0	0	2.3967157275E+02	-1.3662344631E+02	4.5259834814E+02	6.2175452842E+02	3.2500000000E+02	0.000E+00	0.0
	25	2	5	5	0	0	-1.1431728333E+01	1.6188501413E+01	1.1646418096E+01	1.2725587945E+02	1.2516256553E+02	0.000E+00	0.0
	-5	1	9	9	0	501	-5.3789184439E+01	4.8147133403E+01	1.5274074310E+01	7.3906647628E+01	4.1800000000E+00	0.000E+00	0.0
	5	1	9	9	501	0	4.2357456106E+01	-3.1958631990E+01	-3.6276562139E+00	5.3349231822E+01	4.1800000000E+00	0.000E+00	0.0
</event>
<event>
    11  -1  1.0000000E+00  1.0000000E+00  -1.0000000E+00  -1.0000000E+00
	2212	-1	0	0	0	0	0.0000000000E+00	0.0000000000E+00	6.5000000000E+03	6.5000000000E+03	9.3827000000E-01	0.000E+00	0.0
	2212	-1	0	0	0	0	0.0000000000E+00	0.0000000000E+00	-6.5000000000E+03	6.5000000000E+03	9.3827000000E-01	0.000E+00	0.0
	2212	1	0	0	0	0	0.0000000000E+00	0.0000000000E+00	4.8801712616E+03	4.8801712616E+03	9.3827000000E-01	0.000E+00	0.0
	2212	1	0	0	0	0	0.0000000000E+00	0.0000000000E+00	-6.3326175873E+03	6.3326175873E+03	9.3827000000E-01	0.000E+00	0.0
	51	2	1	2	0	0	3.6387147636E+01	9.0697859396E+01	1.3065663177E+03	1.6736753084E+03	1.0414045177E+03	0.000E+00	0.0
	1000022	2	5	5	0	0	-3.6387147636E+01	-9.0697859396E+01	1.3545842503E+03	1.6008263964E+03	8.4746476865E+02	0.000E+00	0.0
	14	1	6	6	0	0	-2.4545267336E+02	6.8039073383E+01	8.5573088181E+02	9.5014560592E+02	3.2500000000E+02	0.000E+00	0.0
	-14	1	6	6	0	0	2.0906552572E+02	-1.5873693278E+02	4.9885336849E+02	6.5068079050E+02	3.2500000000E+02	0.000E+00	0.0
	25	2	5	5	0	0	3.6387147636E+01	9.0697859396E+01	9.7862075383E+01	1.8638475461E+02	1.2494864842E+02	0.000E+00	0.0
	-5	1	9	9	0	501	-2.1533805210E+01	9.4553248874E+01	7.9170071491E+01	1.2525731220E+02	4.1800000000E+00	0.000E+00	0.0
	5	1	9	9	501	0	5.7920952846E+01	-3.8553894785E+00	1.8692003892E+01	6.1127442414E+01	4.1800000000E+00	0.000E+00	0.0
</event>
<event>
    11  -1  1.0000000E+00  1.0000000E+00  -1.0000000E+00  -1.0000000E+00
	2212	-1	0	0	0	0	0.0000000000E+00	0.0000000000E+00	6.5000000000E+03	6.5000000000E+03	9.3827000000E-01	0.000E+00	0.0
	2212	-1	0	0	0	0	0.0000000000E+00	0.0000000000E+00	-6.5000000000E+03	6.5000000000E+03	9.3827000000E-01	0.000E+00	0.0
	2212	1	0	0	0	0	0.0000000000E+00	0.0000000000E+00	5.9528039665E+03	5.9528039665E+03	9.3827000000E-01	0.000E+00	0.0
	2212	1	0	0	0	0	0.0000000000E+00	0.0000000000E+00	-5.9990257773E+03	5.9990257773E+03	9.3827000000E-01	0.000E+00	0.0
	51	2	1	2	0	0	1.3533450688E+02	-3.0111325076E+00	6.7904500062E+01	1.0580453426E+03	1.0471506244E+03	0.000E+00	0.0
	1000022	2	5	5	0	0	-1.3533450688E+02	3.0111325076E+00	1.6740628416E+01	8.6144903366E+02	8.5058197329E+02	0.000E+00	0.0
	14	1	6	6	0	0	-1.3044694587E+02	-2.0000247562E+02	-1.6694004821E+02	4.3647608828E+02	3.2500000000E+02	0.000E+00	0.0
	-14	1	6	6	0	0	-4.8875610058E+00	2.0301360813E+02	1.8368067663E+02	4.2497294538E+02	3.2500000000E+02	0.000E+00	0.0
	25	2	5	5	0	0	1.3533450688E+02	-3.0111325076E+00	2.9481182443E+01	1.8672122254E+02	1.2518458036E+02	0.000E+00	0.0
	-5	1	9	9	0	501	1.0858110856E+02	5.2329328006E+01	3.2912919140E+01	1.2501579241E+02	4.1800000000E+00	0.000E+00	0.0
	5	1	9	9	501	0	2.6753398322E+01	-5.5340460514E+01	-3.4317366978E+00	6.1705430137E+01	4.1800000000E+00	0.000E+00	0.0
</event>
<event>
    11  -1  1.0000000E+00  1.0000000E+00  -1.0000000E+00  -1.0000000E+00
	2212	-1	0	0	0	0	0.0000000000E+00	0.0000000000E+00	6.5000000000E+03	6.5000000000E+03	9.3827000000E-01	0.000E+00	0.0
	2212	-1	0	0	0	0	0.0000000000E+00	0.0000000000E+00	-6.5000000000E+03	6.5000000000E+03	9.3827000000E-01	0.000E+00	0.0
	2212	1	0	0	0	0	0.0000000000E+00	0.0000000000E+00	5.8384626430E+03	5.8384626430E+03	9.3827000000E-01	0.000E+00	0.0
	2212	1	0	0	0	0	0.0000000000E+00	0.0000000000E+00	-6.0831780910E+03	6.0831780910E+03	9.3827000000E-01	0.000E+00	0.0
	51	2	1	2	0	0	-1.3303033875E+02	-3.4687354484E+01	2.1006486152E+02	1.0798150701E+03	1.0502252406E+03	0.000E+00	0.0
	1000022	2	5	5	0	0	1.3303033875E+02	3.4687354484E+01	2.3747052886E+02	8.9228738190E+02	8.4904901875E+02	0.000E+00	0.0
	14	1	6	6	0	0	8.7014716936E+01	-2.1426006401E+02	2.6583332054E+02	4.7934464668E+02	3.2500000000E+02	0.000E+00	0.0
	-14	1	6	6	0	0	4.6015621813E+01	2.4894741849E+02	-2.8362791684E+01	4.1294273523E+02	3.2500000000E+02	0.000E+00	0.0
	25	2	5	5	0	0	-1.3303033875E+02	-3.4687354484E+01	7.2449191467E+00	1.8607188403E+02	1.2517976507E+02	0.000E+00	0.0
	-5	1	9	9	0	501	-7.1973096035E+01	-5.1738071627E+00	-5.7391286570E+01	9.2293699718E+01	4.1800000000E+00	0.000E+00	0.0
	5	1	9	9	501	0	-6.1057242714E+01	-2.9513547321E+01	6.4636205716E+01	9.3778184311E+01	4.1800000000E+00	0.000E+00	0.0
</event>
<event>
    11  -1  1.0000000E+00  1.0000000E+00  -1.0000000E+00  -1.0000000E+00
	2212	-1	0	0	0	0	0.0000000000E+00	0.0000000000E+00	6.5000000000E+03	6.5000000000E+03	9.3827000000E-01	0.000E+00	0.0
	2212	-1	0	0	0	0	0.0000000000E+00	0.0000000000E+00	-6.5000000000E+03	6.5000000000E+03	9.3827000000E-01	0.000E+00	0.0
	2212	1	0	0	0	0	0.0000000000E+00	0.0000000000E+00	4.9172520945E+03	4.9172520945E+03	9.3827000000E-01	0.000E+00	0.0
	2212	1	0	0	0	0	0.0000000000E+00	0.0000000000E+00	-6.2856097580E+03	6.2856097580E+03	9.3827000000E-01	0.000E+00	0.0
	51	2	1	2	0	0	-4.0829398750E+01	-2.0766178040E+02	1.6294100129E+03	2.0142170366E+03	1.1650334011E+03	0.000E+00	0.0
	1000022	2	5	5	0	0	4.0829398750E+01	2.0766178040E+02	8.0357271897E+02	1.1811508091E+03	8.3940315965E+02	0.000E+00	0.0
	14	1	6	6	0	0	-5.4717798640E+00	3.1905047634E+02	6.6890555781E+02	8.0924828829E+02	3.2500000000E+02	0.000E+00	0.0
	-14	1	6	6	0	0	4.6301178614E+01	-1.1138869594E+02	1.3466716116E+02	3.7190252085E+02	3.2500000000E+02	0.000E+00	0.0
	25	2	5	5	0	0	-4.0829398750E+01	-2.0766178040E+02	5.6478494454E+02	6.1598733828E+02	1.2517153228E+02	0.000E+00	0.0
	-5	1	9	9	0	501	-3.6127507226E+01	-9.8604377404E+01	1.2733923675E+02	1.6510836938E+02	4.1800000000E+00	0.000E+00	0.0
	5	1	9	9	501	0	-4.7018915234E+00	-1.0905740300E+02	4.3744570779E+02	4.5087896890E+02	4.1800000000E+00	0.000E+00	0.0
</event>
<event>
    11  -1  1.0000000E+00  1.0000000E+00  -1.0000000E+00  -1.0000000E+00
	2212	-1	0	0	0	0	0.0000000000E+00	0.0000000000E+00	6.5000000000E+03	6.5000000000E+03	9.3827000000E-01	0.000E+00	0.0
	2212	-1	0	0	0	0	0.0000000000E+00	0.0000000000E+00	-6.5000000000E+03	6.5000000000E+03	9.3827000000E-01	0.000E+00	0.0
	2212	1	0	0	0	0	0.0000000000E+00	0.0000000000E+00	6.1301913176E+03	6.1301913176E+03	9.3827000000E-01	0.000E+00	0.0
	2212	1	0	0	0	0	0.0000000000E+00	0.0000000000E+00	-5.7495815927E+03	5.7495815927E+03	9.3827000000E-01	0.000E+00	0.0
	51	2	1	2	0	0	1.1726746981E+02	3.9831835552E+01	-4.2512633774E+02	1.1428541497E+03	1.0535867168E+03	0.000E+00	0.0
	1000022	2	5	5	0	0	-1.1726746981E+02	-3.9831835552E+01	-2.7380751051E+02	9.1427833926E+02	8.6347906415E+02	0.000E+00	0.0
	14	1	6	6	0	0	-9.5111895215E+01	-2.7926718328E+02	-2.5162709986E+01	4.3965281102E+02	3.2500000000E+02	0.000E+00	0.0
	-14	1	6	6	0	0	-2.2155574591E+01	2.3943534773E+02	-2.4864480052E+02	4.7462552824E+02	3.2500000000E+02	0.000E+00	0.0
	25	2	5	5	0	0	1.1726746981E+02	3.9831835552E+01	-1.0680221439E+02	2.0594875042E+02	1.2517963173E+02	0.000E+00	0.0
	-5	1	9	9	0	501	5.9129973963E+01	-3.0628600004E+01	-1.8518122289E+00	6.6748532325E+01	4.1800000000E+00	0.000E+00	0.0
	5	1	9	9	501	0	5.8137495844E+01	7.0460435557E+01	-1.0495040217E+02	1.3920021809E+02	4.1800000000E+00	0.000E+00	0.0
</event>
<event>
    11  -1  1.0000000E+00  1.0000000E+00  -1.0000000E+00  -1.0000000E+00
	2212	-1	0	0	0	0	0.0000000000E+00	0.0000000000E+00	6.5000000000E+03	6.5000000000E+03	9.3827000000E-01	0.000E+00	0.0
	2212	-1	0	0	0	0	0.0000000000E+00	0.0000000000E+00	-6.5000000000E+03	6.5000000000E+03	9.3827000000E-01	0.000E+00	0.0
	2212	1	0	0	0	0	0.0000000000E+00	0.0000000000E+00	6.0865283954E+03	6.0865283954E+03	9.3827000000E-01	0.000E+00	0.0
	2212	1	0	0	0	0	0.0000000000E+00	0.0000000000E+00	-5.8307944503E+03	5.8307944503E+03	9.3827000000E-01	0.000E+00	0.0
	51	2	1	2	0	0	1.9544489400E+01	7.8995168619E+01	-3.7536107012E+02	1.1199589843E+03	1.0520408594E+03	0.000E+00	0.0
	1000022	2	5	5	0	0	-1.9544489400E+01	-7.8995168619E+01	-9.2693539979E+01	8.6160053449E+02	8.5272572668E+02	0.000E+00	0.0
	14	1	6	6	0	0	1.0382327182E+02	2.0918846483E+02	2.1024609553E+00	4.0021057698E+02	3.2500000000E+02	0.000E+00	0.0
	-14	1	6	6	0	0	-1.2336776122E+02	-2.8818363344E+02	-9.4796000934E+01	4.6138995751E+02	3.2500000000E+02	0.000E+00	0.0
	25	2	5	5	0	0	1.9544489400E+01	7.8995168619E+01	-1.6304040520E+02	2.2107661983E+02	1.2518176535E+02	0.000E+00	0.0
	-5	1	9	9	0	501	3.5588822025E+01	9.4983515135E+01	-1.6912445446E+02	1.9725360807E+02	4.1800000000E+00	0.000E+00	0.0
	5	1	9	9	501	0	-1.6044332624E+01	-1.5988346516E+01	6.0840492638E+00	2.3823011756E+01	4.1800000000E+00	0.000E+00	0.0
</event>
<event>
    11  -1  1.0000000E+00  1.0000000E+00  -1.0000000E+00  -1.0000000E+00
	2212	-1	0	0	0	0	0.0000000000E+00	0.0000000000E+00	6.5000000000E+03	6.5000000000E+03	9.3827000000E-01	0.000E+00	0.0
	2212	-1	0	0	0	0	0.0000000000E+00	0.0000000000E+00	-6.5000000000E+03	6.5000000000E+03	9.3827000000E-01	0.000E+00	0.0
	2212	1	0	0	0	0	0.0000000000E+00	0.0000000000E+00	6.0960441990E+03	6.0960441990E+03	9.3827000000E-01	0.000E+00	0.0
	2212	1	0	0	0	0	0.0000000000E+00	0.0000000000E+00	-5.8181642494E+03	5.8181642494E+03	9.3827000000E-01	0.000E+00	0.0
	51	2	1	2	0	0	7.3319960287E+01	1.1178214734E+02	-2.8503789517E+02	1.0958301391E+03	1.0496313767E+03	0.000E+00	0.0
	1000022	2	5	5	0	0	-7.3319960287E+01	-1.1178214734E+02	-2.2447462208E+02	8.9504537144E+02	8.5606442278E+02	0.000E+00	0.0
	14	1	6	6	0	0	-1.8372387679E+02	-2.6991102045E+02	-1.0597073952E+01	4.6080768206E+02	3.2500000000E+02	0.000E+00	0.0
	-14	1	6	6	0	0	1.1040391651E+02	1.5812887312E+02	-2.1387754813E+02	4.3423768939E+02	3.2500000000E+02	0.000E+00	0.0
	25	2	5	5	0	0	7.3319960287E+01	1.1178214734E+02	-5.3405327582E+01	1.9074618012E+02	1.2514356227E+02	0.000E+00	0.0
	-5	1	9	9	0	501	1.0709402777E+02	1.0102238044E+02	-3.9977371183E+01	1.5261164681E+02	4.1800000000E+00	0.000E+00	0.0
	5	1	9	9	501	0	-3.3774067486E+01	1.0759766897E+01	-1.3427956400E+01	3.8134533317E+01	4.1800000000E+00	0.000E+00	0.0
</event>
<event>
    11  -1  1.0000000E+00  1.0000000E+00  -1.0000000E+00  -1.0000000E+00
	2212	-1	0	0	0	0	0.0000000000E+00	0.0000000000E+00	6.5000000000E+03	6.5000000000E+03	9.3827000000E-01	0.000E+00	0.0
	2212	-1	0	0	0	0	0.0000000000E+00	0.0000000000E+00	-6.5000000000E+03	6.5000000000E+03	9.3827000000E-01	0.000E+00	0.0
	2212	1	0	0	0	0	0.0000000000E+00	0.0000000000E+00	6.2956463845E+03	6.2956463845E+03	9.3827000000E-01	0.000E+00	0.0
	2212	1	0	0	0	0	0.0000000000E+00	0.0000000000E+00	-5.1391293369E+03	5.1391293369E+03	9.3827000000E-01	0.000E+00	0.0
	51	2	1	2	0	0	3.7676549684E+01	1.0101682136E+01	-1.3857775838E+03	1.7419232012E+03	1.0547015506E+03	0.000E+00	0.0
	1000022	2	5	5	0	0	-3.7676549684E+01	-1.0101682136E+01	-7.2357326875E+02	1.1128614932E+03	8.4461876691E+02	0.000E+00	0.0
	14	1	6	6	0	0	-2.4750017042E+02	-1.4423507393E+02	-4.1756472963E+02	6.0170208105E+02	3.2500000000E+02	0.000E+00	0.0
	-14	1	6	6	0	0	2.0982362074E+02	1.3413339179E+02	-3.0600853912E+02	5.1115941215E+02	3.2500000000E+02	0.000E+00	0.0
	25	2	5	5	0	0	3.7676549684E+01	1.0101682136E+01	-4.3294377891E+02	4.5236278541E+02	1.2518069957E+02	0.000E+00	0.0
	-5	1	9	9	0	501	-2.8976163759E+01	4.0507756153E+01	-1.0470827506E+02	1.1602496128E+02	4.1800000000E+00	0.000E+00	0.0
	5	1	9	9	501	0	6.6652713442E+01	-3.0406074018E+01	-3.2823550386E+02	3.3633782413E+02	4.1800000000E+00	0.000E+00	0.0
</event>
<event>
    11  -1  1.0000000E+00  1.0000000E+00  -1.0000000E+00  -1.0000000E+00
	2212	-1	0	0	0	0	0.0000000000E+00	0.0000000000E+00	6.5000000000E+03	6.5000000000E+03	9.3827000000E-01	0.000E+00	0.0
	2212	-1	0	0	0	0	0.0000000000E+00	0.0000000000E+00	-6.5000000000E+03	6.5000000000E+03	9.3827000000E-01	0.000E+00	0.0
	2212	1	0	0	0	0	0.0000000000E+00	0.0000000000E+00	5.9083127579E+03	5.9083127579E+03	9.3827000000E-01	0.000E+00	0.0
	2212	1	0	0	0	0	0.0000000000E+00	0.0000000000E+00	-6.0284230401E+03	6.0284230401E+03	9.3827000000E-01	0.000E+00	0.0
	51	2	1	2	0	0	-9.5899918939E+01	-4.8921777684E+01	3.4546008505E+02	1.1167081484E+03	1.0564583681E+03	0.000E+00	0.0
	1000022	2	5	5	0	0	9.5899918939E+01	4.8921777684E+01	-1.3337358522E+02	7.6076627649E+02	7.4120623272E+02	0.000E+00	0.0
	14	1	6	6	0	0	-9.9384208788E+01	2.3477119495E+01	4.0127314543E+01	3.4302127845E+02	3.2500000000E+02	0.000E+00	0.0
	-14	1	6	6	0	0	1.9528412773E+02	2.5444658189E+01	-1.7350089976E+02	4.1774499804E+02	3.2500000000E+02	0.000E+00	0.0
	25	2	5	5	0	0	-9.5899918939E+01	-4.8921777684E+01	2.5348386743E+02	3.0249792555E+02	1.2514307466E+02	0.000E+00	0.0
	-5	1	9	9	0	501	-1.4988404138E+01	-6.9111269381E+01	6.4151017587E+01	9.5571152926E+01	4.1800000000E+00	0.000E+00	0.0
	5	1	9	9	501	0	-8.0911514801E+01	2.0189491697E+01	1.8933284984E+02	2.0692677263E+02	4.1800000000E+00	0.000E+00	0.0
</event>
<event>
    11  -1  1.0000000E+00  1.0000000E+00  -1.0000000E+00  -1.0000000E+00
	2212	-1	0	0	0	0	0.0000000000E+00	0.0000000000E+00	6.5000000000E+03	6.5000000000E+03	9.3827000000E-01	0.000E+00	0.0
	2212	-1	0	0	0	0	0.0000000000E+00	0.0000000000E+00	-6.5000000000E+03	6.5000000000E+03	9.3827000000E-01	0.000E+00	0.0
	2212	1	0	0	0	0	0.0000000000E+00	0.0000000000E+00	5.1727555720E+03	5.1727555720E+03	9.3827000000E-01	0.000E+00	0.0
	2212	1	0	0	0	0	0.0000000000E+00	0.0000000000E+00	-6.2948469538E+03	6.2948469538E+03	9.3827000000E-01	0.000E+00	0.0
	51	2	1	2	0	0	3.6483248298E+01	-8.6871661651E+00	1.3261653812E+03	1.6879792838E+03	1.0436249087E+03	0.000E+00	0.0
	1000022	2	5	5	0	0	-3.6483248298E+01	8.6871661651E+00	7.2773642113E+02	1.1169562012E+03	8.4651306108E+02	0.000E+00	0.0
	14	1	6	6	0	0	1.8006349709E+02	-1.7466131484E+02	4.1763908569E+02	5.8564224897E+02	3.2500000000E+02	0.000E+00	0.0
	-14	1	6	6	0	0	-2.1654674539E+02	1.8334848100E+02	3.1009733543E+02	5.3131395226E+02	3.2500000000E+02	0.000E+00	0.0
	25	2	5	5	0	0	3.6483248298E+01	-8.6871661651E+00	3.9435496069E+02	4.1544127305E+02	1.2517636386E+02	0.000E+00	0.0
	-5	1	9	9	0	501	1.9163373332E+01	4.5861181272E+01	3.0632347446E+02	3.1035790022E+02	4.1800000000E+00	0.000E+00	0.0
	5	1	9	9	501	0	1.7319874966E+01	-5.4548347437E+01	8.8031486227E+01	1.0508337283E+02	4.1800000000E+00	0.000E+00	0.0
</event>
<event>
    11  -1  1.0000000E+00  1.0000000E+00  -1.0000000E+00  -1.0000000E+00
	2212	-1	0	0	0	0	0.0000000000E+00	0.0000000000E+00	6.5000000000E+03	6.5000000000E+03	9.3827000000E-01	0.000E+00	0.0
	2212	-1	0	0	0	0	0.0000000000E+00	0.0000000000E+00	-6.5000000000E+03	6.5000000000E+03	9.3827000000E-01	0.000E+00	0.0
	2212	1	0	0	0	0	0.0000000000E+00	0.0000000000E+00	5.4120469257E+03	5.4120469257E+03	9.3827000000E-01	0.000E+00	0.0
	2212	1	0	0	0	0	0.0000000000E+00	0.0000000000E+00	-6.2362151648E+03	6.2362151648E+03	9.3827000000E-01	0.000E+00	0.0
	51	2	1	2	0	0	1.0995184495E+02	-7.7391154436E-01	9.9919269576E+02	1.4691555875E+03	1.0714205943E+03	0.000E+00	0.0
	1000022	2	5	5	0	0	-1.0995184495E+02	7.7391154436E-01	4.9673479155E+02	9.8435062488E+02	8.4268065863E+02	0.000E+00	0.0
	14	1	6	6	0	0	-3.3622350031E+01	1.7929530620E+02	4.7689565295E+02	6.0525344530E+02	3.2500000000E+02	0.000E+00	0.0
	-14	1	6	6	0	0	-7.6329494920E+01	-1.7852139466E+02	1.9839138594E+01	3.7909717958E+02	3.2500000000E+02	0.000E+00	0.0
	25	2	5	5	0	0	1.0995184495E+02	-7.7391154436E-01	3.2743344747E+02	3.6738728462E+02	1.2518285518E+02	0.000E+00	0.0
	-5	1	9	9	0	501	9.1365398544E+01	5.4208530361E+01	1.8252749758E+02	2.1123437360E+02	4.1800000000E+00	0.000E+00	0.0
	5	1	9	9	501	0	1.8586446407E+01	-5.4982441905E+01	1.4490594989E+02	1.5615291103E+02	4.1800000000E+00	0.000E+00	0.0
</event>
<event>
    11  -1  1.0000000E+00  1.0000000E+00  -1.0000000E+00  -1.0000000E+00
	2212	-1	0	0	0	0	0.0000000000E+00	0.0000000000E+00	6.5000000000E+03	6.5000000000E+03	9.3827000000E-01	0.000E+00	0.0
	2212	-1	0	0	0	0	0.0000000000E+00	0.0000000000E+00	-6.5000000000E+03	6.5000000000E+03	9.3827000000E-01	0.000E+00	0.0
	2212	1	0	0	0	0	0.0000000000E+00	0.0000000000E+00	6.2499210499E+03	6.2499210499E+03	9.3827000000E-01	0.000E+00	0.0
	2212	1	0	0	0	0	0.0000000000E+00	0.0000000000E+00	-5.3816843040E+03	5.3816843040E+03	9.3827000000E-01	0.000E+00	0.0
	51	2	1	2	0	0	5.5458753713E+01	1.0921625616E+02	-9.8752679382E+02	1.4521989853E+03	1.0576714331E+03	0.000E+00	0.0
	1000022	2	5	5	0	0	-5.5458753713E+01	-1.0921625616E+02	-5.9756484769E+02	1.0460031766E+03	8.4972644677E+02	0.000E+00	0.0
	14	1	6	6	0	0	-1.0349515638E+02	-2.9432366204E+02	-4.6197134563E+02	6.4527528204E+02	3.2500000000E+02	0.000E+00	0.0
	-14	1	6	6	0	0	4.8036402668E+01	1.8510740588E+02	-1.3559350206E+02	4.0072789458E+02	3.2500000000E+02	0.000E+00	0.0
	25	2	5	5	0	0	5.5458753713E+01	1.0921625616E+02	-2.7067189825E+02	3.2239146943E+02	1.2517635194E+02	0.000E+00	0.0
	-5	1	9	9	0	501	-3.6575155964E+01	1.7176358051E+01	-9.8246517134E+01	1.0631378010E+02	4.1800000000E+00	0.000E+00	0.0
	5	1	9	9	501	0	9.2033909677E+01	9.2039898106E+01	-1.7242538112E+02	2.1607768933E+02	4.1800000000E+00	0.000E+00	0.0
</event>
<event>
    11  -1  1.0000000E+00  1.0000000E+00  -1.0000000E+00  -1.0000000E+00
	2212	-1	0	0	0	0	0.0000000000E+00	0.0000000000E+00	6.5000000000E+03	6.5000000000E+03	9.3827000000E-01	0.000E+00	0.0
	2212	-1	0	0	0	0	0.0000000000E+00	0.0000000000E+00	-6.5000000000E+03	6.5000000000E+03	9.3827000000E-01	0.000E+00	0.0
	2212	1	0	0	0	0	0.0000000000E+00	0.0000000000E+00	6.2729535897E+03	6.2729535897E+03	9.3827000000E-01	0.000E+00	0.0
	2212	1	0	0	0	0	0.0000000000E+00	0.0000000000E+00	-5.2846939024E+03	5.2846939024E+03	9.3827000000E-01	0.000E+00	0.0
	51	2	1	2	0	0	-5.0243044129E+01	7.1074418896E+00	-1.1337755839E+03	1.5465269157E+03	1.0505824800E+03	0.000E+00	0.0
	1000022	2	5	5	0	0	5.0243044129E+01	-7.1074418896E+00	-6.8938569795E+02	1.1143539041E+03	8.7404639686E+02	0.000E+00	0.0
	14	1	6	6	0	0	-1.5211717194E+02	3.0351592443E+01	-6.2923831539E+02	7.2500117980E+02	3.2500000000E+02	0.000E+00	0.0
	-14	1	6	6	0	0	2.0236021607E+02	-3.7459034333E+01	-6.0147382562E+01	3.8935272431E+02	3.2500000000E+02	0.000E+00	0.0
	25	2	5	5	0	0	-5.0243044129E+01	7.1074418896E+00	-2.9887398937E+02	3.2799860371E+02	1.2522996168E+02	0.000E+00	0.0
	-5	1	9	9	0	501	-2.8277129542E+01	6.5201597853E+01	-1.8492320949E+02	1.9815375400E+02	4.1800000000E+00	0.000E+00	0.0
	5	1	9	9	501	0	-2.1965914587E+01	-5.8094155963E+01	-1.1395077988E+02	1.2984484971E+02	4.1800000000E+00	0.000E+00	0.0
</event>
<event>
    11  -1  1.0000000E+00  1.0000000E+00  -1.0000000E+00  -1.0000000E+00
	2212	-1	0	0	0	0	0.0000000000E+00	0.0000000000E+00	6.5000000000E+03	6.5000000000E+03	9.3827000000E-01	0.000E+00	0.0
	2212	-1	0	0	0	0	0.0000000000E+00	0.0000000000E+00	-6.5000000000E+03	6.5000000000E+03	9.3827000000E-01	0.000E+00	0.0
	2212	1	0	0	0	0	0.0000000000E+00	0.0000000000E+00	6.2601931851E+03	6.2601931851E+03	9.3827000000E-01	0.000E+00	0.0
	2212	1	0	0	0	0	0.0000000000E+00	0.0000000000E+00	-5.3795219103E+03	5.3795219103E+03	9.3827000000E-01	0.000E+00	0.0
	51	2	1	2	0	0	4.4233314770E+01	1.9795870235E+01	-1.0548551198E+03	1.4798178650E+03	1.0367223000E+03	0.000E+00	0.0
	1000022	2	5	5	0	0	-4.4233314770E+01	-1.9795870235E+01	-5.5703785992E+02	1.0099121293E+03	8.4100111111E+02	0.000E+00	0.0
	14	1	6	6	0	0	-2.5590746461E+02	1.1708410919E+02	-2.5787008516E+02	5.0131756391E+02	3.2500000000E+02	0.000E+00	0.0
	-14	1	6	6	0	0	2.1167414984E+02	-1.3687997942E+02	-2.9916777476E+02	5.0859456538E+02	3.2500000000E+02	0.000E+00	0.0
	25	2	5	5	0	0	4.4233314770E+01	1.9795870235E+01	-3.2363341493E+02	3.5037277528E+02	1.2519597352E+02	0.000E+00	0.0
	-5	1	9	9	0	501	-4.0051034011E+01	-7.1467201696E-01	-1.6149251782E+02	1.6643888305E+02	4.1800000000E+00	0.000E+00	0.0
	5	1	9	9	501	0	8.4284348781E+01	2.0510542252E+01	-1.6214089711E+02	1.8393389223E+02	4.1800000000E+00	0.000E+00	0.0
</event>
<event>
    11  -1  1.0000000E+00  1.0000000E+00  -1.0000000E+00  -1.0000000E+00
	2212	-1	0	0	0	0	0.0000000000E+00	0.0000000000E+00	6.5000000000E+03	6.5000000000E+03	9.3827000000E-01	0.000E+00	0.0
	2212	-1	0	0	0	0	0.0000000000E+00	0.0000000000E+00	-6.5000000000E+03	6.5000000000E+03	9.3827000000E-01	0.000E+00	0.0
	2212	1	0	0	0	0	0.0000000000E+00	0.0000000000E+00	6.2608798336E+03	6.2608798336E+03	9.3827000000E-01	0.000E+00	0.0
	2212	1	0	0	0	0	0.0000000000E+00	0.0000000000E+00	-5.3377998657E+03	5.3377998657E+03	9.3827000000E-01	0.000E+00	0.0
	51	2	1	2	0	0	-3.2066713187E+01	-1.4520585503E+02	-9.3480814682E+02	1.4168984592E+03	1.0543348414E+03	0.000E+00	0.0
	1000022	2	5	5	0	0	3.2066713187E+01	1.4520585503E+02	-7.5029933203E+02	1.1412496980E+03	8.4698805836E+02	0.000E+00	0.0
	14	1	6	6	0	0	-1.2549716930E+02	-1.2889140710E+02	-5.0141349868E+02	6.2402165907E+02	3.2500000000E+02	0.000E+00	0.0
	-14	1	6	6	0	0	1.5756388249E+02	2.7409726212E+02	-2.4888583335E+02	5.1722803889E+02	3.2500000000E+02	0.000E+00	0.0
	25	2	5	5	0	0	-3.2066713187E+01	-1.4520585503E+02	-1.7278063593E+02	2.6007060272E+02	1.2518209064E+02	0.000E+00	0.0
	-5	1	9	9	0	501	-4.9417386993E+01	-9.5308926290E+01	-1.7684330561E+02	2.0692244129E+02	4.1800000000E+00	0.000E+00	0.0
	5	1	9	9	501	0	1.7350673806E+01	-4.9896928736E+01	4.0626696824E+00	5.3148161434E+01	4.1800000000E+00	0.000E+00	0.0
</event>
<event>
    11  -1  1.0000000E+00  1.0000000E+00  -1.0000000E+00  -1.0000000E+00
	2212	-1	0	0	0	0	0.0000000000E+00	0.0000000000E+00	6.5000000000E+03	6.5000000000E+03	9.3827000000E-01	0.000E+00	0.0
	2212	-1	0	0	0	0	0.0000000000E+00	0.0000000000E+00	-6.5000000000E+03	6.5000000000E+03	9.3827000000E-01	0.000E+00	0.0
	2212	1	0	0	0	0	0.0000000000E+00	0.0000000000E+00	6.3023602013E+03	6.3023602013E+03	9.3827000000E-01	0.000E+00	0.0
	2212	1	0	0	0	0	0.0000000000E+00	0.0000000000E+00	-5.0896168344E+03	5.0896168344E+03	9.3827000000E-01	0.000E+00	0.0
	51	2	1	2	0	0	6.8231856486E+01	1.3972256148E+02	-1.3590040373E+03	1.7280223765E+03	1.0559315224E+03	0.000E+00	0.0
	1000022	2	5	5	0	0	-6.8231856486E+01	-1.3972256148E+02	-8.3428580588E+02	1.1801447853E+03	8.2007983027E+02	0.000E+00	0.0
	14	1	6	6	0	0	-9.3332533599E+01	-2.8570960576E+02	-6.2591998376E+02	7.6664318084E+02	3.2500000000E+02	0.000E+00	0.0
	-14	1	6	6	0	0	2.5100677113E+01	1.4598704428E+02	-2.0836582212E+02	4.1350160449E+02	3.2500000000E+02	0.000E+00	0.0
	25	2	5	5	0	0	6.8231856486E+01	1.3972256148E+02	-3.7845756095E+02	4.2787817897E+02	1.2518638174E+02	0.000E+00	0.0
	-5	1	9	9	0	501	-2.7622543763E+01	6.6827166683E+01	-1.9852503519E+02	2.1132566604E+02	4.1800000000E+00	0.000E+00	0.0
	5	1	9	9	501	0	9.5854400249E+01	7.2895394801E+01	-1.7993252577E+02	2.1655251294E+02	4.1800000000E+00	0.000E+00	0.0
</event>
<event>
    11  -1  1.0000000E+00  1.0000000E+00  -1.0000000E+00  -1.0000000E+00
	2212	-1	0	0	0	0	0.0000000000E+00	0.0000000000E+00	6.5000000000E+03	6.5000000000E+03	9.3827000000E-01	0.000E+00	0.0
	2212	-1	0	0	0	0	0.0000000000E+00	0.0000000000E+00	-6.5000000000E+03	6.5000000000E+03	9.3827000000E-01	0.000E+00	0.0
	2212	1	0	0	0	0	0.0000000000E+00	0.0000000000E+00	5.2528355634E+03	5.2528355634E+03	9.3827000000E-01	0.000E+00	0.0
	2212	1	0	0	0	0	0.0000000000E+00	0.0000000000E+00	-6.2620895433E+03	6.2620895433E+03	9.3827000000E-01	0.000E+00	0.0
	51	2	1	2	0	0	5.7599139170E+01	1.6261368476E+02	1.0843661481E+03	1.5467594051E+03	1.0894282183E+03	0.000E+00	0.0
	1000022	2	5	5	0	0	-5.7599139170E+01	-1.6261368476E+02	7.4571149271E+02	1.1461230718E+03	8.5308357976E+02	0.000E+00	0.0
	14	1	6	6	0	0	-7.3623124246E+01	-2.5645403907E+02	6.8247362685E+02	8.0161355398E+02	3.2500000000E+02	0.000E+00	0.0
	-14	1	6	6	0	0	1.6023985076E+01	9.3840354310E+01	6.3237865859E+01	3.4450951783E+02	3.2500000000E+02	0.000E+00	0.0
	25	2	5	5	0	0	5.7599139170E+01	1.6261368476E+02	2.6354248719E+02	3.3895182153E+02	1.2519114771E+02	0.000E+00	0.0
	-5	1	9	9	0	501	8.6402446589E+00	-1.3001298318E+01	-2.5578202517E+00	1.6361614534E+01	4.1800000000E+00	0.000E+00	0.0
	5	1	9	9	501	0	4.8958894511E+01	1.7561498308E+02	2.6610030744E+02	3.2259020700E+02	4.1800000000E+00	0.000E+00	0.0
</event>
<event>
    11  -1  1.0000000E+00  1.0000000E+00  -1.0000000E+00  -1.0000000E+00
	2212	-1	0	0	0	0	0.0000000000E+00	0.0000000000E+00	6.5000000000E+03	6.5000000000E+03	9.3827000000E-01	0.000E+00	0.0
	2212	-1	0	0	0	0	0.0000000000E+00	0.0000000000E+00	-6.5000000000E+03	6.5000000000E+03	9.3827000000E-01	0.000E+00	0.0
	2212	1	0	0	0	0	0.0000000000E+00	0.0000000000E+00	6.1084534166E+03	6.1084534166E+03	9.3827000000E-01	0.000E+00	0.0
	2212	1	0	0	0	0	0.0000000000E+00	0.0000000000E+00	-5.7823864385E+03	5.7823864385E+03	9.3827000000E-01	0.000E+00	0.0
	51	2	1	2	0	0	7.7188127727E+01	-6.6402683953E+01	-4.3119828984E+02	1.1490064584E+03	1.0601493068E+03	0.000E+00	0.0
	1000022	2	5	5	0	0	-7.7188127727E+01	6.6402683953E+01	-1.6578925283E+02	8.8172597974E+02	8.5999261828E+02	0.000E+00	0.0
	14	1	6	6	0	0	2.0063047322E+02	3.2417471532E+01	7.3923130525E+01	3.9037559922E+02	3.2500000000E+02	0.000E+00	0.0
	-14	1	6	6	0	0	-2.7781860094E+02	3.3985212421E+01	-2.3971238336E+02	4.9135038051E+02	3.2500000000E+02	0.000E+00	0.0
	25	2	5	5	0	0	7.7188127727E+01	-6.6402683953E+01	-1.6027772521E+02	2.2743416513E+02	1.2517997752E+02	0.000E+00	0.0
	-5	1	9	9	0	501	6.0165566344E+01	-1.7983967149E+01	-1.6414395876E+02	1.7579542100E+02	4.1800000000E+00	0.000E+00	0.0
	5	1	9	9	501	0	1.7022561383E+01	-4.8418716804E+01	3.8662335508E+00	5.1638744125E+01	4.1800000000E+00	0.000E+00	0.0
</event>
<event>
    11  -1  1.0000000E+00  1.0000000E+00  -1.0000000E+00  -1.0000000E+00
	2212	-1	0	0	0	0	0.0000000000E+00	0.0000000000E+00	6.5000000000E+03	6.5000000000E+03	9.3827000000E-01	0.000E+00	0.0
	2212	-1	0	0	0	0	0.0000000000E+00	0.0000000000E+00	-6.5000000000E+03	6.5000000000E+03	9.3827000000E-01	0.000E+00	0.0
	2212	1	0	0	0	0	0.0000000000E+00	0.0000000000E+00	5.8910801072E+03	5.8910801072E+03	9.3827000000E-01	0.000E+00	0.0
	2212	1	0	0	0	0	0.0000000000E+00	0.0000000000E+00	-6.0521588466E+03	6.0521588466E+03	9.3827000000E-01	0.000E+00	0.0
	51	2	1	2	0	0	9.5914817981E+01	-4.2759323995E+00	2.5360926234E+02	1.0790426972E+03	1.0444125375E+03	0.000E+00	0.0
	1000022	2	5	5	0	0	-9.5914817981E+01	4.2759323995E+00	4.1779565477E+01	8.5886299915E+02	8.5245655802E+02	0.000E+00	0.0
	14	1	6	6	0	0	-1.2938898308E+02	2.3313836019E+02	1.4865585694E+02	4.4589075763E+02	3.2500000000E+02	0.000E+00	0.0
	-14	1	6	6	0	0	3.3474165100E+01	-2.2886242779E+02	-1.0687629147E+02	4.1297224152E+02	3.2500000000E+02	0.000E+00	0.0
	25	2	5	5	0	0	9.5914817981E+01	-4.2759323995E+00	1.1929917397E+02	1.9789804708E+02	1.2535313407E+02	0.000E+00	0.0
	-5	1	9	9	0	501	-2.4664377942E+01	2.2923736240E+01	3.0705682310E+01	4.5761780435E+01	4.1800000000E+00	0.000E+00	0.0
	5	1	9	9	501	0	1.2057919592E+02	-2.7199668639E+01	8.8593491659E+01	1.5213626664E+02	4.1800000000E+00	0.000E+00	0.0
</event>
<event>
    11  -1  1.0000000E+00  1.0000000E+00  -1.0000000E+00  -1.0000000E+00
	2212	-1	0	0	0	0	0.0000000000E+00	0.0000000000E+00	6.5000000000E+03	6.5000000000E+03	9.3827000000E-01	0.000E+00	0.0
	2212	-1	0	0	0	0	0.0000000000E+00	0.0000000000E+00	-6.5000000000E+03	6.5000000000E+03	9.3827000000E-01	0.000E+00	0.0
	2212	1	0	0	0	0	0.0000000000E+00	0.0000000000E+00	6.0725310538E+03	6.0725310538E+03	9.3827000000E-01	0.000E+00	0.0
	2212	1	0	0	0	0	0.0000000000E+00	0.0000000000E+00	-5.8488796142E+03	5.8488796142E+03	9.3827000000E-01	0.000E+00	0.0
	51	2	1	2	0	0	5.9881521460E+01	-6.3184548066E+00	-1.0188819233E+02	1.0617635819E+03	1.0551469000E+03	0.000E+00	0.0
	1000022	2	5	5	0	0	-5.9881521460E+01	6.3184548066E+00	-3.0820641304E+02	9.1597314603E+02	8.6045911683E+02	0.000E+00	0.0
	14	1	6	6	0	0	-1.3788673556E+02	2.0172074999E+02	2.1888837154E+01	4.0719544940E+02	3.2500000000E+02	0.000E+00	0.0
	-14	1	6	6	0	0	7.8005214104E+01	-1.9540229518E+02	-3.3009525019E+02	5.0877769663E+02	3.2500000000E+02	0.000E+00	0.0
	25	2	5	5	0	0	5.9881521460E+01	-6.3184548066E+00	8.4554973385E+01	1.6261618592E+02	1.2517492128E+02	0.000E+00	0.0
	-5	1	9	9	0	501	-3.7483884749E+01	-1.4000844552E+01	1.6398359716E+01	4.3444721951E+01	4.1800000000E+00	0.000E+00	0.0
	5	1	9	9	501	0	9.7365406209E+01	7.6823897451E+00	6.8156613670E+01	1.1917146397E+02	4.1800000000E+00	0.000E+00	0.0
</event>
<event>
    11  -1  1.0000000E+00  1.0000000E+00  -1.0000000E+00  -1.0000000E+00
	2212	-1	0	0	0	0	0.0000000000E+00	0.0000000000E+00	6.5000000000E+03	6.5000000000E+03	9.3827000000E-01	0.000E+00	0.0
	2212	-1	0	0	0	0	0.0000000000E+00	0.0000000000E+00	-6.5000000000E+03	6.5000000000E+03	9.3827000000E-01	0.000E+00	0.0
	2212	1	0	0	0	0	0.0000000000E+00	0.0000000000E+00	6.0063859796E+03	6.0063859796E+03	9.3827000000E-01	0.000E+00	0.0
	2212	1	0	0	0	0	0.0000000000E+00	0.0000000000E+00	-5.9125329087E+03	5.9125329087E+03	9.3827000000E-01	0.000E+00	0.0
	51	2	1	2	0	0	-1.1349223430E+02	1.1762016523E+02	-1.6351030643E+02	1.1015346485E+03	1.0769995223E+03	0.000E+00	0.0
	1000022	2	5	5	0	0	1.1349223430E+02	-1.1762016523E+02	-6.5576204515E+00	8.5745531052E+02	8.4170756004E+02	0.000E+00	0.0
	14	1	6	6	0	0	-2.1002753693E+02	-4.2335381682E+01	3.5283461172E+01	3.9086285759E+02	3.2500000000E+02	0.000E+00	0.0
	-14	1	6	6	0	0	3.2351977124E+02	-7.5284783543E+01	-4.1841081623E+01	4.6659245292E+02	3.2500000000E+02	0.000E+00	0.0
	25	2	5	5	0	0	-1.1349223430E+02	1.1762016523E+02	-8.7295450415E+01	2.2362580116E+02	1.2519190377E+02	0.000E+00	0.0
	-5	1	9	9	0	501	-6.5040110773E+01	7.1677608496E+00	-7.8987792996E+01	1.0265542678E+02	4.1800000000E+00	0.000E+00	0.0
	5	1	9	9	501	0	-4.8452123529E+01	1.1045240438E+02	-8.3076574185E+00	1.2097037438E+02	4.1800000000E+00	0.000E+00	0.0
</event>
<event>
    11  -1  1.0000000E+00  1.0000000E+00  -1.0000000E+00  -1.0000000E+00
	2212	-1	0	0	0	0	0.0000000000E+00	0.0000000000E+00	6.5000000000E+03	6.5000000000E+03	9.3827000000E-01	0.000E+00	0.0
	2212	-1	0	0	0	0	0.0000000000E+00	0.0000000000E+00	-6.5000000000E+03	6.5000000000E+03	9.3827000000E-01	0.000E+00	0.0
	2212	1	0	0	0	0	0.0000000000E+00	0.0000000000E+00	6.3059503178E+03	6.3059503178E+03	9.3827000000E-01	0.000E+00	0.0
	2212	1	0	0	0	0	0.0000000000E+00	0.0000000000E+00	-5.0902751170E+03	5.0902751170E+03	9.3827000000E-01	0.000E+00	0.0
	51	2	1	2	0	0	-9.2995830079E+01	-4.3408078355E+01	-1.3170527858E+03	1.6850481264E+03	1.0460528964E+03	0.000E+00	0.0
	1000022	2	5	5	0	0	9.2995830079E+01	4.3408078355E+01	-9.2116329606E+02	1.2677093380E+03	8.6487725252E+02	0.000E+00	0.0
	14	1	6	6	0	0	3.1560008017E+02	7.3453478193E+01	-3.6963839916E+02	5.8928462579E+02	3.2500000000E+02	0.000E+00	0.0
	-14	1	6	6	0	0	-2.2260425009E+02	-3.0045399838E+01	-5.5152489690E+02	6.7842471219E+02	3.2500000000E+02	0.000E+00	0.0
	25	2	5	5	0	0	-9.2995830079E+01	-4.3408078355E+01	-2.9451190474E+02	3.3606522717E+02	1.2518022688E+02	0.000E+00	0.0
	-5	1	9	9	0	501	2.9819028148E+01	-2.3831309629E+00	-3.6687283250E+01	4.7521394184E+01	4.1800000000E+00	0.000E+00	0.0
	5	1	9	9	501	0	-1.2281485823E+02	-4.1024947392E+01	-2.5782462149E+02	2.8854383299E+02	4.1800000000E+00	0.000E+00	0.0
</event>
<event>
    11  -1  1.0000000E+00  1.0000000E+00  -1.0000000E+00  -1.0000000E+00
	2212	-1	0	0	0	0	0.0000000000E+00	0.0000000000E+00	6.5000000000E+03	6.5000000000E+03	9.3827000000E-01	0.000E+00	0.0
	2212	-1	0	0	0	0	0.0000000000E+00	0.0000000000E+00	-6.5000000000E+03	6.5000000000E+03	9.3827000000E-01	0.000E+00	0.0
	2212	1	0	0	0	0	0.0000000000E+00	0.0000000000E+00	5.0837657377E+03	5.0837657377E+03	9.3827000000E-01	0.000E+00	0.0
	2212	1	0	0	0	0	0.0000000000E+00	0.0000000000E+00	-6.3035115588E+03	6.3035115588E+03	9.3827000000E-01	0.000E+00	0.0
	51	2	1	2	0	0	4.5691264991E+01	1.3083244232E+02	1.2956163181E+03	1.6765801842E+03	1.0550330092E+03	0.000E+00	0.0
	1000022	2	5	5	0	0	-4.5691264991E+01	-1.3083244232E+02	9.3400889511E+02	1.2713841701E+03	8.5137551770E+02	0.000E+00	0.0
	14	1	6	6	0	0	1.9146290474E+02	3.9017217562E+01	6.4333110503E+02	7.4677995277E+02	3.2500000000E+02	0.000E+00	0.0
	-14	1	6	6	0	0	-2.3715416973E+02	-1.6984965988E+02	2.9067779008E+02	5.2460421732E+02	3.2500000000E+02	0.000E+00	0.0
	25	2	5	5	0	0	4.5691264991E+01	1.3083244232E+02	2.8573692597E+02	3.4133853349E+02	1.2514625011E+02	0.000E+00	0.0
	-5	1	9	9	0	501	-2.9301190477E+00	5.7797633647E+01	1.9859635966E+01	6.1327233702E+01	4.1800000000E+00	0.000E+00	0.0
	5	1	9	9	501	0	4.8621384039E+01	7.3034808676E+01	2.6587729001E+02	2.8001129978E+02	4.1800000000E+00	0.000E+00	0.0
</event>
<event>
    11  -1  1.0000000E+00  1.0000000E+00  -1.0000000E+00  -1.0000000E+00
	2212	-1	0	0	0	0	0.0000000000E+00	0.0000000000E+00	6.5000000000E+03	6.5000000000E+03	9.3827000000E-01	0.000E+00	0.0
	2212	-1	0	0	0	0	0.0000000000E+00	0.0000000000E+00	-6.5000000000E+03	6.5000000000E+03	9.3827000000E-01	0.000E+00	0.0
	2212	1	0	0	0	0	0.0000000000E+00	0.0000000000E+00	6.2515664263E+03	6.2515664263E+03	9.3827000000E-01	0.000E+00	0.0
	2212	1	0	0	0	0	0.0000000000E+00	0.0000000000E+00	-4.8132273437E+03	4.8132273437E+03	9.3827000000E-01	0.000E+00	0.0
	51	2	1	2	0	0	6.7580826802E+01	3.1228663802E+02	-1.2730493751E+03	1.8436237849E+03	1.2946829096E+03	0.000E+00	0.0
	1000022	2	5	5	0	0	-6.7580826802E+01	-3.1228663802E+02	-1.2416907899E+03	1.5398209767E+03	8.5273824240E+02	0.000E+00	0.0
	14	1	6	6	0	0	2.1907834680E+02	-2.6313094582E+02	-5.8925608665E+02	7.5503705362E+02	3.2500000000E+02	0.000E+00	0.0
	-14	1	6	6	0	0	-2.8665917360E+02	-4.9155692200E+01	-6.5243470325E+02	7.8478392306E+02	3.2500000000E+02	0.000E+00	0.0
	25	2	5	5	0	0	6.7580826802E+01	3.1228663802E+02	-1.9664829263E+02	3.9538525333E+02	1.2477513824E+02	0.000E+00	0.0
	-5	1	9	9	0	501	9.9796102121E+00	-7.0731782609E+00	4.3561363614E+00	1.3640776910E+01	4.1800000000E+00	0.000E+00	0.0
	5	1	9	9	501	0	5.7601216590E+01	3.1935981628E+02	-2.0100442899E+02	3.8174447642E+02	4.1800000000E+00	0.000E+00	0.0
</event>
<event>
    11  -1  1.0000000E+00  1.0000000E+00  -1.0000000E+00  -1.0000000E+00
	2212	-1	0	0	0	0	0.0000000000E+00	0.0000000000E+00	6.5000000000E+03	6.5000000000E+03	9.3827000000E-01	0.000E+00	0.0
	2212	-1	0	0	0	0	0.0000000000E+00	0.0000000000E+00	-6.5000000000E+03	6.5000000000E+03	9.3827000000E-01	0.000E+00	0.0
	2212	1	0	0	0	0	0.0000000000E+00	0.0000000000E+00	6.3288717093E+03	6.3288717093E+03	9.3827000000E-01	0.000E+00	0.0
	2212	1	0	0	0	0	0.0000000000E+00	0.0000000000E+00	-4.8765636088E+03	4.8765636088E+03	9.3827000000E-01	0.000E+00	0.0
	51	2	1	2	0	0	7.6537431529E+01	8.5794899089E+01	-1.5717740591E+03	1.8960369235E+03	1.0541648728E+03	0.000E+00	0.0
	1000022	2	5	5	0	0	-7.6537431529E+01	-8.5794899089E+01	-1.0940690933E+03	1.3980492057E+03	8.6274889601E+02	0.000E+00	0.0
	14	1	6	6	0	0	4.4234801782E+01	2.2649152974E+02	-4.2877350206E+02	5.8542877176E+02	3.2500000000E+02	0.000E+00	0.0
	-14	1	6	6	0	0	-1.2077223331E+02	-3.1228642883E+02	-6.6529559127E+02	8.1262043398E+02	3.2500000000E+02	0.000E+00	0.0
	25	2	5	5	0	0	7.6537431529E+01	8.5794899089E+01	-3.5823900709E+02	3.9651547615E+02	1.2518224115E+02	0.000E+00	0.0
	-5	1	9	9	0	501	3.1157042799E+01	-1.9189101047E+01	-2.5908714163E+01	4.5030176377E+01	4.1800000000E+00	0.000E+00	0.0
	5	1	9	9	501	0	4.5380388730E+01	1.0498400014E+02	-3.3233029292E+02	3.5148529978E+02	4.1800000000E+00	0.000E+00	0.0
</event>
<event>
    11  -1  1.0000000E+00  1.0000000E+00  -1.0000000E+00  -1.0000000E+00
	2212	-1	0	0	0	0	0.0000000000E+00	0.0000000000E+00	6.5000000000E+03	6.5000000000E+03	9.3827000000E-01	0.000E+00	0.0
	2212	-1	0	0	0	0	0.0000000000E+00	0.0000000000E+00	-6.5000000000E+03	6.5000000000E+03	9.3827000000E-01	0.000E+00	0.0
	2212	1	0	0	0	0	0.0000000000E+00	0.0000000000E+00	5.6737822654E+03	5.6737822654E+03	9.3827000000E-01	0.000E+00	0.0
	2212	1	0	0	0	0	0.0000000000E+00	0.0000000000E+00	-6.1018680601E+03	6.1018680601E+03	9.3827000000E-01	0.000E+00	0.0
	51	2	1	2	0	0	1.9812340067E+02	-7.0617951426E+01	4.3889078671E+02	1.2460495887E+03	1.1470722200E+03	0.000E+00	0.0
	1000022	2	5	5	0	0	-1.9812340067E+02	7.0617951426E+01	3.3306302445E+02	9.6178213382E+02	8.7741331066E+02	0.000E+00	0.0
	14	1	6	6	0	0	-3.5203983624E+02	1.9640420200E+02	2.3344692165E+02	5.6800450887E+02	3.2500000000E+02	0.000E+00	0.0
	-14	1	6	6	0	0	1.5391643557E+02	-1.2578625058E+02	9.9616102797E+01	3.9377762495E+02	3.2500000000E+02	0.000E+00	0.0
	25	2	5	5	0	0	1.9812340067E+02	-7.0617951426E+01	9.5022770222E+01	2.6256754069E+02	1.2519029358E+02	0.000E+00	0.0
	-5	1	9	9	0	501	1.4966633200E+02	-3.1411178200E+01	5.0938074002E+00	1.5306891364E+02	4.1800000000E+00	0.000E+00	0.0
	5	1	9	9	501	0	4.8457068673E+01	-3.9206773226E+01	8.9928962822E+01	1.0949862705E+02	4.1800000000E+00	0.000E+00	0.0
</event>
<event>
    11  -1  1.0000000E+00  1.0000000E+00  -1.0000000E+00  -1.0000000E+00
	2212	-1	0	0	0	0	0.0000000000E+00	0.0000000000E+00	6.5000000000E+03	6.5000000000E+03	9.3827000000E-01	0.000E+00	0.0
	2212	-1	0	0	0	0	0.0000000000E+00	0.0000000000E+00	-6.5000000000E+03	6.5000000000E+03	9.3827000000E-01	0.000E+00	0.0
	2212	1	0	0	0	0	0.0000000000E+00	0.0000000000E+00	5.7171967991E+03	5.7171967991E+03	9.3827000000E-01	0.000E+00	0.0
	2212	1	0	0	0	0	0.0000000000E+00	0.0000000000E+00	-6.1495896711E+03	6.1495896711E+03	9.3827000000E-01	0.000E+00	0.0
	51	2	1	2	0	0	-9.2045197970E+01	-4.1795156992E+01	5.0685300956E+02	1.1680447061E+03	1.0474775933E+03	0.000E+00	0.0
	1000022	2	5	5	0	0	9.2045197970E+01	4.1795156992E+01	2.8898204484E+02	9.1767665909E+02	8.6510154015E+02	0.000E+00	0.0
	14	1	6	6	0	0	-1.8650568161E+02	-9.5446884820E+01	2.6257170140E+02	4.6740065840E+02	3.2500000000E+02	0.000E+00	0.0
	-14	1	6	6	0	0	2.7855087958E+02	1.3724204181E+02	2.6410343443E+01	4.5027600069E+02	3.2500000000E+02	0.000E+00	0.0
	25	2	5	5	0	0	-9.2045197970E+01	-4.1795156992E+01	1.4341082710E+02	2.1553687072E+02	1.2518116349E+02	0.000E+00	0.0
	-5	1	9	9	0	501	-9.8339031592E+01	-1.4192877642E+01	1.5541111989E+02	1.8450499043E+02	4.1800000000E+00	0.000E+00	0.0
	5	1	9	9	501	0	6.2938336219E+00	-2.7602279350E+01	-1.2000292789E+01	3.1031880284E+01	4.1800000000E+00	0.000E+00	0.0
</event>
<event>
    11  -1  1.0000000E+00  1.0000000E+00  -1.0000000E+00  -1.0000000E+00
	2212	-1	0	0	0	0	0.0000000000E+00	0.0000000000E+00	6.5000000000E+03	6.5000000000E+03	9.3827000000E-01	0.000E+00	0.0
	2212	-1	0	0	0	0	0.0000000000E+00	0.0000000000E+00	-6.5000000000E+03	6.5000000000E+03	9.3827000000E-01	0.000E+00	0.0
	2212	1	0	0	0	0	0.0000000000E+00	0.0000000000E+00	5.9662970223E+03	5.9662970223E+03	9.3827000000E-01	0.000E+00	0.0
	2212	1	0	0	0	0	0.0000000000E+00	0.0000000000E+00	-6.0194996600E+03	6.0194996600E+03	9.3827000000E-01	0.000E+00	0.0
	51	2	1	2	0	0	6.4677355028E+01	-1.9854437579E+01	7.6304161574E+01	1.0179280589E+03	1.0128069160E+03	0.000E+00	0.0
	1000022	2	5	5	0	0	-6.4677355028E+01	1.9854437579E+01	2.2662358689E+01	8.6867338657E+02	8.6573813078E+02	0.000E+00	0.0
	14	1	6	6	0	0	-2.1428630063E+02	-1.5343247988E+02	1.6014942403E+02	4.4803234541E+02	3.2500000000E+02	0.000E+00	0.0
	-14	1	6	6	0	0	1.4960894560E+02	1.7328691746E+02	-1.3748706534E+02	4.2064104115E+02	3.2500000000E+02	0.000E+00	0.0
	25	2	5	5	0	0	6.4677355028E+01	-1.9854437579E+01	3.0540279015E+01	1.4552993114E+02	1.2517544995E+02	0.000E+00	0.0
	-5	1	9	9	0	501	9.7968757535E+01	-3.6512458683E+00	4.1722779664E+01	1.0662772525E+02	4.1800000000E+00	0.000E+00	0.0
	5	1	9	9	501	0	-3.3291402507E+01	-1.6203191711E+01	-1.1182500649E+01	3.8902205892E+01	4.1800000000E+00	0.000E+00	0.0
</event>
<event>
    11  -1  1.0000000E+00  1.0000000E+00  -1.0000000E+00  -1.0000000E+00
	2212	-1	0	0	0	0	0.0000000000E+00	0.0000000000E+00	6.5000000000E+03	6.5000000000E+03	9.3827000000E-01	0.000E+00	0.0
	2212	-1	0	0	0	0	0.0000000000E+00	0.0000000000E+00	-6.5000000000E+03	6.5000000000E+03	9.3827000000E-01	0.000E+00	0.0
	2212	1	0	0	0	0	0.0000000000E+00	0.0000000000E+00	6.2951428673E+03	6.2951428673E+03	9.3827000000E-01	0.000E+00	0.0
	2212	1	0	0	0	0	0.0000000000E+00	0.0000000000E+00	-5.1483275100E+03	5.1483275100E+03	9.3827000000E-01	0.000E+00	0.0
	51	2	1	2	0	0	5.0987457186E+01	-2.2527772506E+01	-9.5034870762E+02	1.4191084842E+03	1.0524252955E+03	0.000E+00	0.0
	1000022	2	5	5	0	0	-5.0987457186E+01	2.2527772506E+01	-1.1409779587E+03	1.4193710375E+03	8.4242282650E+02	0.000E+00	0.0
	14	1	6	6	0	0	-2.2175453708E+02	1.2896318708E+02	-8.2640300072E+02	9.2432326485E+02	3.2500000000E+02	0.000E+00	0.0
	-14	1	6	6	0	0	1.7076707989E+02	-1.0643541457E+02	-3.1457495799E+02	4.9504777269E+02	3.2500000000E+02	0.000E+00	0.0
	25	2	5	5	0	0	5.0987457186E+01	-2.2527772506E+01	-5.8373985534E+00	1.3715858514E+02	1.2518458744E+02	0.000E+00	0.0
	-5	1	9	9	0	501	4.6159631305E+01	-7.2251958332E+01	4.5521524860E+00	8.5960755798E+01	4.1800000000E+00	0.000E+00	0.0
	5	1	9	9	501	0	4.8278258809E+00	4.9724185827E+01	-1.0389551039E+01	5.1197829345E+01	4.1800000000E+00	0.000E+00	0.0
</event>
<event>
    11  -1  1.0000000E+00  1.0000000E+00  -1.0000000E+00  -1.0000000E+00
	2212	-1	0	0	0	0	0.0000000000E+00	0.0000000000E+00	6.5000000000E+03	6.5000000000E+03	9.3827000000E-01	0.000E+00	0.0
	2212	-1	0	0	0	0	0.0000000000E+00	0.0000000000E+00	-6.5000000000E+03	6.5000000000E+03	9.3827000000E-01	0.000E+00	0.0
	2212	1	0	0	0	0	0.0000000000E+00	0.0000000000E+00	5.9902426092E+03	5.9902426092E+03	9.3827000000E-01	0.000E+00	0.0
	2212	1	0	0	0	0	0.0000000000E+00	0.0000000000E+00	-5.9815737306E+03	5.9815737306E+03	9.3827000000E-01	0.000E+00	0.0
	51	2	1	2	0	0	1.1698537188E+02	-9.0037243141E+00	-3.7205963724E+01	1.0354889751E+03	1.0281471148E+03	0.000E+00	0.0
	1000022	2	5	5	0	0	-1.1698537188E+02	9.0037243141E+00	2.1274939930E+01	8.5403089773E+02	8.4566512694E+02	0.000E+00	0.0
	14	1	6	6	0	0	-1.2608487819E+02	-2.5658584155E+02	-1.0869041783E+01	4.3298594280E+02	3.2500000000E+02	0.000E+00	0.0
	-14	1	6	6	0	0	9.0995063150E+00	2.6558956587E+02	3.2143981713E+01	4.2104495493E+02	3.2500000000E+02	0.000E+00	0.0
	25	2	5	5	0	0	1.1698537188E+02	-9.0037243141E+00	-2.9943818511E+01	1.7415276245E+02	1.2516352550E+02	0.000E+00	0.0
	-5	1	9	9	0	501	1.1560437670E+02	2.5992113257E+01	1.2207401840E+01	1.1919083406E+02	4.1800000000E+00	0.000E+00	0.0
	5	1	9	9	501	0	1.3809951774E+00	-3.4995837571E+01	-4.2151220352E+01	5.4961928388E+01	4.1800000000E+00	0.000E+00	0.0
</event>
<event>
    11  -1  1.0000000E+00  1.0000000E+00  -1.0000000E+00  -1.0000000E+00
	2212	-1	0	0	0	0	0.0000000000E+00	0.0000000000E+00	6.5000000000E+03	6.5000000000E+03	9.3827000000E-01	0.000E+00	0.0
	2212	-1	0	0	0	0	0.0000000000E+00	0.0000000000E+00	-6.5000000000E+03	6.5000000000E+03	9.3827000000E-01	0.000E+00	0.0
	2212	1	0	0	0	0	0.0000000000E+00	0.0000000000E+00	5.4681569330E+03	5.4681569330E+03	9.3827000000E-01	0.000E+00	0.0
	2212	1	0	0	0	0	0.0000000000E+00	0.0000000000E+00	-6.2353208075E+03	6.2353208075E+03	9.3827000000E-01	0.000E+00	0.0
	51	2	1	2	0	0	-1.1673355347E+02	-5.1770639868E+01	8.5751677384E+02	1.3579659414E+03	1.0451935509E+03	0.000E+00	0.0
	1000022	2	5	5	0	0	1.1673355347E+02	5.1770639868E+01	5.4391592791E+02	1.0104832951E+03	8.4197685913E+02	0.000E+00	0.0
	14	1	6	6	0	0	-1.1547034804E+02	-1.2141321554E+02	4.2200310479E+02	5.5837817887E+02	3.2500000000E+02	0.000E+00	0.0
	-14	1	6	6	0	0	2.3220390151E+02	1.7318385541E+02	1.2191282312E+02	4.5210511620E+02	3.2500000000E+02	0.000E+00	0.0
	25	2	5	5	0	0	-1.1673355347E+02	-5.1770639868E+01	2.2324794668E+02	2.8603896442E+02	1.2518674775E+02	0.000E+00	0.0
	-5	1	9	9	0	501	-1.0970287611E+02	-4.4009941705E+01	2.3900155858E+02	2.6666610846E+02	4.1800000000E+00	0.000E+00	0.0
	5	1	9	9	501	0	-7.0306773587E+00	-7.7606981634E+00	-1.5753611905E+01	1.9372855963E+01	4.1800000000E+00	0.000E+00	0.0
</event>
<event>
    11  -1  1.0000000E+00  1.0000000E+00  -1.0000000E+00  -1.0000000E+00
	2212	-1	0	0	0	0	0.0000000000E+00	0.0000000000E+00	6.5000000000E+03	6.5000000000E+03	9.3827000000E-01	0.000E+00	0.0
	2212	-1	0	0	0	0	0.0000000000E+00	0.0000000000E+00	-6.5000000000E+03	6.5000000000E+03	9.3827000000E-01	0.000E+00	0.0
	2212	1	0	0	0	0	0.0000000000E+00	0.0000000000E+00	5.5695975174E+03	5.5695975174E+03	9.3827000000E-01	0.000E+00	0.0
	2212	1	0	0	0	0	0.0000000000E+00	0.0000000000E+00	-6.2074837734E+03	6.2074837734E+03	9.3827000000E-01	0.000E+00	0.0
	51	2	1	2	0	0	8.8342936627E+01	-6.3538324730E-01	7.0638040551E+02	1.2630951861E+03	1.0433749535E+03	0.000E+00	0.0
	1000022	2	5	5	0	0	-8.8342936627E+01	6.3538324730E-01	4.7290970471E+02	9.9777174087E+02	8.7412812557E+02	0.000E+00	0.0
	14	1	6	6	0	0	1.9849726398E+02	-5.1794567912E+01	4.5928183871E+01	3.8706361124E+02	3.2500000000E+02	0.000E+00	0.0
	-14	1	6	6	0	0	-2.8684020060E+02	5.2429951159E+01	4.2698152084E+02	6.1070812963E+02	3.2500000000E+02	0.000E+00	0.0
	25	2	5	5	0	0	8.8342936627E+01	-6.3538324730E-01	1.6497655127E+02	2.2514696826E+02	1.2517594292E+02	0.000E+00	0.0
	-5	1	9	9	0	501	1.1207754146E+02	1.9542511968E+01	1.5470577744E+02	1.9207976220E+02	4.1800000000E+00	0.000E+00	0.0
	5	1	9	9	501	0	-2.3734604831E+01	-2.0177895216E+01	1.0270773827E+01	3.3067206063E+01	4.1800000000E+00	0.000E+00	0.0
</event>
<event>
    11  -1  1.0000000E+00  1.0000000E+00  -1.0000000E+00  -1.0000000E+00
	2212	-1	0	0	0	0	0.0000000000E+00	0.0000000000E+00	6.5000000000E+03	6.5000000000E+03	9.3827000000E-01	0.000E+00	0.0
	2212	-1	0	0	0	0	0.0000000000E+00	0.0000000000E+00	-6.5000000000E+03	6.5000000000E+03	9.3827000000E-01	0.000E+00	0.0
	2212	1	0	0	0	0	0.0000000000E+00	0.0000000000E+00	6.0760543207E+03	6.0760543207E+03	9.3827000000E-01	0.000E+00	0.0
	2212	1	0	0	0	0	0.0000000000E+00	0.0000000000E+00	-5.8459034612E+03	5.8459034612E+03	9.3827000000E-01	0.000E+00	0.0
	51	2	1	2	0	0	-5.2409862855E+01	2.1045615834E+01	-3.9943166133E+02	1.1278036042E+03	1.0531883050E+03	0.000E+00	0.0
	1000022	2	5	5	0	0	5.2409862855E+01	-2.1045615834E+01	-1.7443265960E+01	8.2486679697E+02	8.2274616592E+02	0.000E+00	0.0
	14	1	6	6	0	0	2.4057088158E+02	-1.2480295820E+02	6.0684080846E+01	4.2750167849E+02	3.2500000000E+02	0.000E+00	0.0
	-14	1	6	6	0	0	-1.8816101873E+02	1.0375734237E+02	-7.8127346806E+01	3.9736511848E+02	3.2500000000E+02	0.000E+00	0.0
	25	2	5	5	0	0	-5.2409862855E+01	2.1045615834E+01	-2.1270759361E+02	2.5317542111E+02	1.2515415217E+02	0.000E+00	0.0
	-5	1	9	9	0	501	-3.8319012021E+01	-8.6575070124E+00	-2.1626552275E+02	2.1984437187E+02	4.1800000000E+00	0.000E+00	0.0
	5	1	9	9	501	0	-1.4090850834E+01	2.9703122847E+01	3.5579291412E+00	3.3331049246E+01	4.1800000000E+00	0.000E+00	0.0
</event>
<event>
    11  -1  1.0000000E+00  1.0000000E+00  -1.0000000E+00  -1.0000000E+00
	2212	-1	0	0	0	0	0.0000000000E+00	0.0000000000E+00	6.5000000000E+03	6.5000000000E+03	9.3827000000E-01	0.000E+00	0.0
	2212	-1	0	0	0	0	0.0000000000E+00	0.0000000000E+00	-6.5000000000E+03	6.5000000000E+03	9.3827000000E-01	0.000E+00	0.0
	2212	1	0	0	0	0	0.0000000000E+00	0.0000000000E+00	5.2404051426E+03	5.2404051426E+03	9.3827000000E-01	0.000E+00	0.0
	2212	1	0	0	0	0	0.0000000000E+00	0.0000000000E+00	-6.2380451791E+03	6.2380451791E+03	9.3827000000E-01	0.000E+00	0.0
	51	2	1	2	0	0	2.4941726493E+01	-4.8429525444E+01	1.3171569547E+03	1.7486273854E+03	1.1488375781E+03	0.000E+00	0.0
	1000022	2	5	5	0	0	-2.4941726493E+01	4.8429525444E+01	4.6906013855E+02	9.7561978202E+02	8.5372655858E+02	0.000E+00	0.0
	14	1	6	6	0	0	1.3637886655E+02	-8.4882253045E+01	-6.7329359710E+00	3.6259415956E+02	3.2500000000E+02	0.000E+00	0.0
	-14	1	6	6	0	0	-1.6132059304E+02	1.3331177849E+02	4.7579307453E+02	6.1302562246E+02	3.2500000000E+02	0.000E+00	0.0
	25	2	5	5	0	0	2.4941726493E+01	-4.8429525444E+01	5.2857989796E+02	5.4592989622E+02	1.2520077640E+02	0.000E+00	0.0
	-5	1	9	9	0	501	7.5267401296E+01	-2.8422245376E+01	3.5608180902E+02	3.6508181665E+02	4.1800000000E+00	0.000E+00	0.0
	5	1	9	9	501	0	-5.0325674803E+01	-2.0007280068E+01	1.7249808894E+02	1.8084807958E+02	4.1800000000E+00	0.000E+00	0.0
</event>
<event>
    11  -1  1.0000000E+00  1.0000000E+00  -1.0000000E+00  -1.0000000E+00
	2212	-1	0	0	0	0	0.0000000000E+00	0.0000000000E+00	6.5000000000E+03	6.5000000000E+03	9.3827000000E-01	0.000E+00	0.0
	2212	-1	0	0	0	0	0.0000000000E+00	0.0000000000E+00	-6.5000000000E+03	6.5000000000E+03	9.3827000000E-01	0.000E+00	0.0
	2212	1	0	0	0	0	0.0000000000E+00	0.0000000000E+00	4.8618321775E+03	4.8618321775E+03	9.3827000000E-01	0.000E+00	0.0
	2212	1	0	0	0	0	0.0000000000E+00	0.0000000000E+00	-6.3307605825E+03	6.3307605825E+03	9.3827000000E-01	0.000E+00	0.0
	51	2	1	2	0	0	4.5701530154E+01	9.1925529299E+01	1.6552728476E+03	1.9645450885E+03	1.0530765746E+03	0.000E+00	0.0
	1000022	2	5	5	0	0	-4.5701530154E+01	-9.1925529299E+01	1.0303197976E+03	1.3398770834E+03	8.5039566105E+02	0.000E+00	0.0
	14	1	6	6	0	0	-1.7690328328E+02	1.6263336979E+02	6.3911224971E+02	7.5619696662E+02	3.2500000000E+02	0.000E+00	0.0
	-14	1	6	6	0	0	1.3120175312E+02	-2.5455889909E+02	3.9120754791E+02	5.8368011673E+02	3.2500000000E+02	0.000E+00	0.0
	25	2	5	5	0	0	4.5701530154E+01	9.1925529299E+01	4.3860860746E+02	4.6753015663E+02	1.2517189790E+02	0.000E+00	0.0
	-5	1	9	9	0	501	-2.6075438939E+01	6.1042679124E+01	3.0944780326E+02	3.1651469561E+02	4.1800000000E+00	0.000E+00	0.0
	5	1	9	9	501	0	7.1776969093E+01	3.0882850175E+01	1.2916080420E+02	1.5101546103E+02	4.1800000000E+00	0.000E+00	0.0
</event>
<event>
    11  -1  1.0000000E+00  1.0000000E+00  -1.0000000E+00  -1.0000000E+00
	2212	-1	0	0	0	0	0.0000000000E+00	0.0000000000E+00	6.5000000000E+03	6.5000000000E+03	9.3827000000E-01	0.000E+00	0.0
	2212	-1	0	0	0	0	0.0000000000E+00	0.0000000000E+00	-6.5000000000E+03	6.5000000000E+03	9.3827000000E-01	0.000E+00	0.0
	2212	1	0	0	0	0	0.0000000000E+00	0.0000000000E+00	6.1262551778E+03	6.1262551778E+03	9.3827000000E-01	0.000E+00	0.0
	2212	1	0	0	0	0	0.0000000000E+00	0.0000000000E+00	-5.7718380621E+03	5.7718380621E+03	9.3827000000E-01	0.000E+00	0.0
	51	2	1	2	0	0	-9.7277446068E+01	8.2326409487E+01	-4.2076094432E+02	1.1321957992E+03	1.0433537349E+03	0.000E+00	0.0
	1000022	2	5	5	0	0	9.7277446068E+01	-8.2326409487E+01	-2.2729659686E+02	8.8265888475E+02	8.4331632539E+02	0.000E+00	0.0
	14	1	6	6	0	0	-1.7726050074E+02	-1.8253504206E+02	-1.4774715746E+02	4.3839998773E+02	3.2500000000E+02	0.000E+00	0.0
	-14	1	6	6	0	0	2.7453794681E+02	1.0020863257E+02	-7.9549439399E+01	4.4425889703E+02	3.2500000000E+02	0.000E+00	0.0
	25	2	5	5	0	0	-9.7277446068E+01	8.2326409487E+01	-1.2712051882E+02	2.1924787539E+02	1.2517773502E+02	0.000E+00	0.0
	-5	1	9	9	0	501	-6.4867358169E+01	6.7633962556E+01	-1.4986964714E+02	1.7680642121E+02	4.1800000000E+00	0.000E+00	0.0
	5	1	9	9	501	0	-3.2410087899E+01	1.4692446931E+01	2.2749128313E+01	4.2441454186E+01	4.1800000000E+00	0.000E+00	0.0
</event>
<event>
    11  -1  1.0000000E+00  1.0000000E+00  -1.0000000E+00  -1.0000000E+00
	2212	-1	0	0	0	0	0.0000000000E+00	0.0000000000E+00	6.5000000000E+03	6.5000000000E+03	9.3827000000E-01	0.000E+00	0.0
	2212	-1	0	0	0	0	0.0000000000E+00	0.0000000000E+00	-6.5000000000E+03	6.5000000000E+03	9.3827000000E-01	0.000E+00	0.0
	2212	1	0	0	0	0	0.0000000000E+00	0.0000000000E+00	5.8992390919E+03	5.8992390919E+03	9.3827000000E-01	0.000E+00	0.0
	2212	1	0	0	0	0	0.0000000000E+00	0.0000000000E+00	-6.0373371674E+03	6.0373371674E+03	9.3827000000E-01	0.000E+00	0.0
	51	2	1	2	0	0	1.3577184822E+02	2.6999050715E+01	1.5221496829E+02	1.0743050376E+03	1.0544187848E+03	0.000E+00	0.0
	1000022	2	5	5	0	0	-1.3577184822E+02	-2.6999050715E+01	1.0067517288E+02	8.7307459739E+02	8.5613130924E+02	0.000E+00	0.0
	14	1	6	6	0	0	1.5735604369E+02	2.4458281035E+01	-1.1860305994E+02	3.8085537652E+02	3.2500000000E+02	0.000E+00	0.0
	-14	1	6	6	0	0	-2.9312789191E+02	-5.1457331750E+01	2.1927823282E+02	4.9221922087E+02	3.2500000000E+02	0.000E+00	0.0
	25	2	5	5	0	0	1.3577184822E+02	2.6999050715E+01	3.7422902636E+01	1.9034914323E+02	1.2517739085E+02	0.000E+00	0.0
	-5	1	9	9	0	501	4.2843150975E+00	5.2293831649E+01	8.8949043634E+00	5.3381568992E+01	4.1800000000E+00	0.000E+00	0.0
	5	1	9	9	501	0	1.3148753312E+02	-2.5294780934E+01	2.8527998273E+01	1.3696757424E+02	4.1800000000E+00	0.000E+00	0.0
</event>
<event>
    11  -1  1.0000000E+00  1.0000000E+00  -1.0000000E+00  -1.0000000E+00
	2212	-1	0	0	0	0	0.0000000000E+00	0.0000000000E+00	6.5000000000E+03	6.5000000000E+03	9.3827000000E-01	0.000E+00	0.0
	2212	-1	0	0	0	0	0.0000000000E+00	0.0000000000E+00	-6.5000000000E+03	6.5000000000E+03	9.3827000000E-01	0.000E+00	0.0
	2212	1	0	0	0	0	0.0000000000E+00	0.0000000000E+00	6.1687899191E+03	6.1687899191E+03	9.3827000000E-01	0.000E+00	0.0
	2212	1	0	0	0	0	0.0000000000E+00	0.0000000000E+00	-5.6784572777E+03	5.6784572777E+03	9.3827000000E-01	0.000E+00	0.0
	51	2	1	2	0	0	-5.1179177885E+01	1.7538260450E+02	-4.4127584149E+02	1.1473951632E+03	1.0432703034E+03	0.000E+00	0.0
	1000022	2	5	5	0	0	5.1179177885E+01	-1.7538260450E+02	-4.4055843787E+02	9.2576263137E+02	7.9345217011E+02	0.000E+00	0.0
	14	1	6	6	0	0	1.6974943909E+02	-2.3468242393E+02	-3.6176168061E+02	5.6602758390E+02	3.2500000000E+02	0.000E+00	0.0
	-14	1	6	6	0	0	-1.1857026121E+02	5.9299819429E+01	-7.8796757264E+01	3.5973504748E+02	3.2500000000E+02	0.000E+00	0.0
	25	2	5	5	0	0	-5.1179177885E+01	1.7538260450E+02	-4.9774203536E+01	2.2699017177E+02	1.2517468008E+02	0.000E+00	0.0
	-5	1	9	9	0	501	1.1456961744E+00	-9.5815301479E+00	-3.2254225928E+01	3.3925297787E+01	4.1800000000E+00	0.000E+00	0.0
	5	1	9	9	501	0	-5.2324874060E+01	1.8496413465E+02	-1.7519977608E+01	1.9306487399E+02	4.1800000000E+00	0.000E+00	0.0
</event>
<event>
    11  -1  1.0000000E+00  1.0000000E+00  -1.0000000E+00  -1.0000000E+00
	2212	-1	0	0	0	0	0.0000000000E+00	0.0000000000E+00	6.5000000000E+03	6.5000000000E+03	9.3827000000E-01	0.000E+00	0.0
	2212	-1	0	0	0	0	0.0000000000E+00	0.0000000000E+00	-6.5000000000E+03	6.5000000000E+03	9.3827000000E-01	0.000E+00	0.0
	2212	1	0	0	0	0	0.0000000000E+00	0.0000000000E+00	5.2991091139E+03	5.2991091139E+03	9.3827000000E-01	0.000E+00	0.0
	2212	1	0	0	0	0	0.0000000000E+00	0.0000000000E+00	-6.2729881097E+03	6.2729881097E+03	9.3827000000E-01	0.000E+00	0.0
	51	2	1	2	0	0	1.2898431344E+02	1.0335080240E+02	9.7066387511E+02	1.4352605131E+03	1.0442538199E+03	0.000E+00	0.0
	1000022	2	5	5	0	0	-1.2898431344E+02	-1.0335080240E+02	7.9571189499E+02	1.1546021673E+03	8.2014047784E+02	0.000E+00	0.0
	14	1	6	6	0	0	1.0096993423E+02	-2.3205044775E+02	3.2400977804E+02	5.2407029508E+02	3.2500000000E+02	0.000E+00	0.0
	-14	1	6	6	0	0	-2.2995424766E+02	1.2869964535E+02	4.7170211695E+02	6.3053187221E+02	3.2500000000E+02	0.000E+00	0.0
	25	2	5	5	0	0	1.2898431344E+02	1.0335080240E+02	1.7816710075E+02	2.7330060909E+02	1.2502546008E+02	0.000E+00	0.0
	-5	1	9	9	0	501	1.5046425332E+02	1.0749547521E+02	1.5838910312E+02	2.4351457678E+02	4.1800000000E+00	0.000E+00	0.0
	5	1	9	9	501	0	-2.1479939886E+01	-4.1446728086E+00	1.9777997636E+01	2.9786032309E+01	4.1800000000E+00	0.000E+00	0.0
</event>
<event>
    11  -1  1.0000000E+00  1.0000000E+00  -1.0000000E+00  -1.0000000E+00
	2212	-1	0	0	0	0	0.0000000000E+00	0.0000000000E+00	6.5000000000E+03	6.5000000000E+03	9.3827000000E-01	0.000E+00	0.0
	2212	-1	0	0	0	0	0.0000000000E+00	0.0000000000E+00	-6.5000000000E+03	6.5000000000E+03	9.3827000000E-01	0.000E+00	0.0
	2212	1	0	0	0	0	0.0000000000E+00	0.0000000000E+00	6.2547238883E+03	6.2547238883E+03	9.3827000000E-01	0.000E+00	0.0
	2212	1	0	0	0	0	0.0000000000E+00	0.0000000000E+00	-5.4009629008E+03	5.4009629008E+03	9.3827000000E-01	0.000E+00	0.0
	51	2	1	2	0	0	2.1710396634E+01	4.3021439754E+01	-1.0158574466E+03	1.4534643865E+03	1.0383978935E+03	0.000E+00	0.0
	1000022	2	5	5	0	0	-2.1710396634E+01	-4.3021439754E+01	-5.5023116519E+02	1.0124641827E+03	8.4853238035E+02	0.000E+00	0.0
	14	1	6	6	0	0	2.0442116695E+02	-4.2543581509E-01	-4.6888646311E+02	6.0602616263E+02	3.2500000000E+02	0.000E+00	0.0
	-14	1	6	6	0	0	-2.2613156359E+02	-4.2596003939E+01	-8.1344702071E+01	4.0643802007E+02	3.2500000000E+02	0.000E+00	0.0
	25	2	5	5	0	0	2.1710396634E+01	4.3021439754E+01	-3.0352982234E+02	3.3184902825E+02	1.2518481899E+02	0.000E+00	0.0
	-5	1	9	9	0	501	5.6110628816E+01	6.9720040179E+01	-1.8630026949E+02	2.0672336462E+02	4.1800000000E+00	0.000E+00	0.0
	5	1	9	9	501	0	-3.4400232182E+01	-2.6698600424E+01	-1.1722955285E+02	1.2512566363E+02	4.1800000000E+00	0.000E+00	0.0
</event>
<event>
    11  -1  1.0000000E+00  1.0000000E+00  -1.0000000E+00  -1.0000000E+00
	2212	-1	0	0	0	0	0.0000000000E+00	0.0000000000E+00	6.5000000000E+03	6.5000000000E+03	9.3827000000E-01	0.000E+00	0.0
	2212	-1	0	0	0	0	0.0000000000E+00	0.0000000000E+00	-6.5000000000E+03	6.5000000000E+03	9.3827000000E-01	0.000E+00	0.0
	2212	1	0	0	0	0	0.0000000000E+00	0.0000000000E+00	6.1227404781E+03	6.1227404781E+03	9.3827000000E-01	0.000E+00	0.0
	2212	1	0	0	0	0	0.0000000000E+00	0.0000000000E+00	-5.7691937797E+03	5.7691937797E+03	9.3827000000E-01	0.000E+00	0.0
	51	2	1	2	0	0	-4.8352251484E+01	-2.1506089546E+02	-2.3673880345E+02	1.0988397568E+03	1.0501497136E+03	0.000E+00	0.0
	1000022	2	5	5	0	0	4.8352251484E+01	2.1506089546E+02	-3.8587280156E+02	8.5251375158E+02	7.2752508456E+02	0.000E+00	0.0
	14	1	6	6	0	0	-4.2101641006E+01	1.4497751494E+02	-3.3877227962E+01	3.5994957228E+02	3.2500000000E+02	0.000E+00	0.0
	-14	1	6	6	0	0	9.0453892490E+01	7.0083380525E+01	-3.5199557360E+02	4.9256417929E+02	3.2500000000E+02	0.000E+00	0.0
	25	2	5	5	0	0	-4.8352251484E+01	-2.1506089546E+02	3.2326103213E+01	2.5555199058E+02	1.2519071035E+02	0.000E+00	0.0
	-5	1	9	9	0	501	-4.7605485927E+01	-2.0909374707E+02	-7.9331894967E+00	2.1463197630E+02	4.1800000000E+00	0.000E+00	0.0
	5	1	9	9	501	0	-7.4676555746E-01	-5.9671483894E+00	4.0259292710E+01	4.0920014274E+01	4.1800000000E+00	0.000E+00	0.0
</event>
<event>
    11  -1  1.0000000E+00  1.0000000E+00  -1.0000000E+00  -1.0000000E+00
	2212	-1	0	0	0	0	0.0000000000E+00	0.0000000000E+00	6.5000000000E+03	6.5000000000E+03	9.3827000000E-01	0.000E+00	0.0
	2212	-1	0	0	0	0	0.0000000000E+00	0.0000000000E+00	-6.5000000000E+03	6.5000000000E+03	9.3827000000E-01	0.000E+00	0.0
	2212	1	0	0	0	0	0.0000000000E+00	0.0000000000E+00	5.4260484103E+03	5.4260484103E+03	9.3827000000E-01	0.000E+00	0.0
	2212	1	0	0	0	0	0.0000000000E+00	0.0000000000E+00	-6.2427399295E+03	6.2427399295E+03	9.3827000000E-01	0.000E+00	0.0
	51	2	1	2	0	0	1.2485832032E+02	-6.2510550133E+01	8.4760819184E+02	1.3575994485E+03	1.0512561281E+03	0.000E+00	0.0
	1000022	2	5	5	0	0	-1.2485832032E+02	6.2510550133E+01	6.4667017483E+02	1.0780824932E+03	8.5122404694E+02	0.000E+00	0.0
	14	1	6	6	0	0	1.6662616167E+02	-5.4924466731E+01	1.2998419861E+02	3.9153782281E+02	3.2500000000E+02	0.000E+00	0.0
	-14	1	6	6	0	0	-2.9148448199E+02	1.1743501686E+02	5.1668597622E+02	6.8654467040E+02	3.2500000000E+02	0.000E+00	0.0
	25	2	5	5	0	0	1.2485832032E+02	-6.2510550133E+01	1.7002134439E+02	2.5312916703E+02	1.2517966537E+02	0.000E+00	0.0
	-5	1	9	9	0	501	1.1761940471E+02	5.7172603802E+00	1.1948721505E+02	1.6781441652E+02	4.1800000000E+00	0.000E+00	0.0
	5	1	9	9	501	0	7.2389156053E+00	-6.8227810514E+01	5.0534129340E+01	8.5314750511E+01	4.1800000000E+00	0.000E+00	0.0
</event>
<event>
    11  -1  1.0000000E+00  1.0000000E+00  -1.0000000E+00  -1.0000000E+00
	2212	-1	0	0	0	0	0.0000000000E+00	0.0000000000E+00	6.5000000000E+03	6.5000000000E+03	9.3827000000E-01	0.000E+00	0.0
	2212	-1	0	0	0	0	0.0000000000E+00	0.0000000000E+00	-6.5000000000E+03	6.5000000000E+03	9.3827000000E-01	0.000E+00	0.0
	2212	1	0	0	0	0	0.0000000000E+00	0.0000000000E+00	6.2907788624E+03	6.2907788624E+03	9.3827000000E-01	0.000E+00	0.0
	2212	1	0	0	0	0	0.0000000000E+00	0.0000000000E+00	-5.1837960497E+03	5.1837960497E+03	9.3827000000E-01	0.000E+00	0.0
	51	2	1	2	0	0	-1.0422008865E+02	3.2290225193E+01	-1.2437217038E+03	1.6310300160E+03	1.0495288234E+03	0.000E+00	0.0
	1000022	2	5	5	0	0	1.0422008865E+02	-3.2290225193E+01	-7.8211655651E+02	1.1605801795E+03	8.5049136361E+02	0.000E+00	0.0
	14	1	6	6	0	0	4.9169800819E+01	-2.6307512734E+01	-7.6199414439E+02	8.3028298226E+02	3.2500000000E+02	0.000E+00	0.0
	-14	1	6	6	0	0	5.5050287830E+01	-5.9827124582E+00	-2.0122412116E+01	3.3029719725E+02	3.2500000000E+02	0.000E+00	0.0
	25	2	5	5	0	0	-1.0422008865E+02	3.2290225193E+01	-3.2486625624E+02	3.6484490840E+02	1.2517682380E+02	0.000E+00	0.0
	-5	1	9	9	0	501	-1.0439977585E+02	2.4622008489E+00	-1.2596768813E+02	1.6367866838E+02	4.1800000000E+00	0.000E+00	0.0
	5	1	9	9	501	0	1.7968720085E-01	2.9828024344E+01	-1.9889856812E+02	2.0116624002E+02	4.1800000000E+00	0.000E+00	0.0
</event>
<event>
    11  -1  1.0000000E+00  1.0000000E+00  -1.0000000E+00  -1.0000000E+00
	2212	-1	0	0	0	0	0.0000000000E+00	0.0000000000E+00	6.5000000000E+03	6.5000000000E+03	9.3827000000E-01	0.000E+00	0.0
	2212	-1	0	0	0	0	0.0000000000E+00	0.0000000000E+00	-6.5000000000E+03	6.5000000000E+03	9.3827000000E-01	0.000E+00	0.0
	2212	1	0	0	0	0	0.0000000000E+00	0.0000000000E+00	4.8896480417E+03	4.8896480417E+03	9.3827000000E-01	0.000E+00	0.0
	2212	1	0	0	0	0	0.0000000000E+00	0.0000000000E+00	-6.3310447552E+03	6.3310447552E+03	9.3827000000E-01	0.000E+00	0.0
	51	2	1	2	0	0	8.5322080369E+01	-3.3332493489E+01	1.2868877710E+03	1.6591505915E+03	1.0432208000E+03	0.000E+00	0.0
	1000022	2	5	5	0	0	-8.5322080369E+01	3.3332493489E+01	1.3545577348E+03	1.6015360545E+03	8.4952937821E+02	0.000E+00	0.0
	14	1	6	6	0	0	1.7202159799E+01	2.1457748869E+02	3.4448479259E+02	5.2022512942E+02	3.2500000000E+02	0.000E+00	0.0
	-14	1	6	6	0	0	-1.0252424017E+02	-1.8124499520E+02	1.0100729422E+03	1.0813109251E+03	3.2500000000E+02	0.000E+00	0.0
	25	2	5	5	0	0	8.5322080369E+01	-3.3332493489E+01	8.6838978700E+01	1.7777114869E+02	1.2518250901E+02	0.000E+00	0.0
	-5	1	9	9	0	501	5.0891323616E+01	3.6625684563E+01	7.6508229408E+01	9.9006813686E+01	4.1800000000E+00	0.000E+00	0.0
	5	1	9	9	501	0	3.4430756753E+01	-6.9958178052E+01	1.0330749292E+01	7.8764334999E+01	4.1800000000E+00	0.000E+00	0.0
</event>
<event>
    11  -1  1.0000000E+00  1.0000000E+00  -1.0000000E+00  -1.0000000E+00
	2212	-1	0	0	0	0	0.0000000000E+00	0.0000000000E+00	6.5000000000E+03	6.5000000000E+03	9.3827000000E-01	0.000E+00	0.0
	2212	-1	0	0	0	0	0.0000000000E+00	0.0000000000E+00	-6.5000000000E+03	6.5000000000E+03	9.3827000000E-01	0.000E+00	0.0
	2212	1	0	0	0	0	0.0000000000E+00	0.0000000000E+00	6.3102460532E+03	6.3102460532E+03	9.3827000000E-01	0.000E+00	0.0
	2212	1	0	0	0	0	0.0000000000E+00	0.0000000000E+00	-5.0344586648E+03	5.0344586648E+03	9.3827000000E-01	0.000E+00	0.0
	51	2	1	2	0	0	9.2599906048E+01	-1.1562819652E+02	-1.2480454938E+03	1.6407105738E+03	1.0546890585E+03	0.000E+00	0.0
	1000022	2	5	5	0	0	-9.2599906048E+01	1.1562819652E+02	-1.0797497103E+03	1.3795328098E+03	8.4575807053E+02	0.000E+00	0.0
	14	1	6	6	0	0	1.7664368098E+02	-3.3114002095E+01	-2.8757000300E+02	4.6970313368E+02	3.2500000000E+02	0.000E+00	0.0
	-14	1	6	6	0	0	-2.6924358703E+02	1.4874219861E+02	-7.9217970732E+02	9.0982967609E+02	3.2500000000E+02	0.000E+00	0.0
	25	2	5	5	0	0	9.2599906048E+01	-1.1562819652E+02	-1.9603767813E+02	2.7576247224E+02	1.2517806286E+02	0.000E+00	0.0
	-5	1	9	9	0	501	9.5658561257E+01	-9.5803888509E+01	-7.8707424829E+01	1.5665655594E+02	4.1800000000E+00	0.000E+00	0.0
	5	1	9	9	501	0	-3.0586552088E+00	-1.9824308011E+01	-1.1733025330E+02	1.1910591630E+02	4.1800000000E+00	0.000E+00	0.0
</event>
<event>
    11  -1  1.0000000E+00  1.0000000E+00  -1.0000000E+00  -1.0000000E+00
	2212	-1	0	0	0	0	0.0000000000E+00	0.0000000000E+00	6.5000000000E+03	6.5000000000E+03	9.3827000000E-01	0.000E+00	0.0
	2212	-1	0	0	0	0	0.0000000000E+00	0.0000000000E+00	-6.5000000000E+03	6.5000000000E+03	9.3827000000E-01	0.000E+00	0.0
	2212	1	0	0	0	0	0.0000000000E+00	0.0000000000E+00	5.9326744208E+03	5.9326744208E+03	9.3827000000E-01	0.000E+00	0.0
	2212	1	0	0	0	0	0.0000000000E+00	0.0000000000E+00	-6.0269425502E+03	6.0269425502E+03	9.3827000000E-01	0.000E+00	0.0
	51	2	1	2	0	0	1.0560351793E+02	-1.1317930950E+02	2.5637235447E+02	1.0785169494E+03	1.0361034538E+03	0.000E+00	0.0
	1000022	2	5	5	0	0	-1.0560351793E+02	1.1317930950E+02	-8.8892011539E+01	7.6986709644E+02	7.4888710589E+02	0.000E+00	0.0
	14	1	6	6	0	0	-1.7335774314E+02	-6.9525868244E+01	-1.0905151351E+02	3.9038953119E+02	3.2500000000E+02	0.000E+00	0.0
	-14	1	6	6	0	0	6.7754225209E+01	1.8270517775E+02	2.0159501972E+01	3.7947756525E+02	3.2500000000E+02	0.000E+00	0.0
	25	2	5	5	0	0	1.0560351793E+02	-1.1317930950E+02	1.8316014098E+02	2.7051593260E+02	1.2517816682E+02	0.000E+00	0.0
	-5	1	9	9	0	501	1.1700152074E+02	-8.5818717858E+01	8.5718540906E+01	1.6858039283E+02	4.1800000000E+00	0.000E+00	0.0
	5	1	9	9	501	0	-1.1398002817E+01	-2.7360591646E+01	9.7441600073E+01	1.0193553977E+02	4.1800000000E+00	0.000E+00	0.0
</event>
<event>
    11  -1  1.0000000E+00  1.0000000E+00  -1.0000000E+00  -1.0000000E+00
	2212	-1	0	0	0	0	0.0000000000E+00	0.0000000000E+00	6.5000000000E+03	6.5000000000E+03	9.3827000000E-01	0.000E+00	0.0
	2212	-1	0	0	0	0	0.0000000000E+00	0.0000000000E+00	-6.5000000000E+03	6.5000000000E+03	9.3827000000E-01	0.000E+00	0.0
	2212	1	0	0	0	0	0.0000000000E+00	0.0000000000E+00	6.2644317959E+03	6.2644317959E+03	9.3827000000E-01	0.000E+00	0.0
	2212	1	0	0	0	0	0.0000000000E+00	0.0000000000E+00	-5.3038987639E+03	5.3038987639E+03	9.3827000000E-01	0.000E+00	0.0
	51	2	1	2	0	0	4.7546606032E+01	1.1767302920E+02	-1.0799480888E+03	1.5196871970E+03	1.0616278447E+03	0.000E+00	0.0
	1000022	2	5	5	0	0	-4.7546606032E+01	-1.1767302920E+02	-6.7345271268E+02	1.0937474903E+03	8.5243028729E+02	0.000E+00	0.0
	14	1	6	6	0	0	-3.5505038797E+01	2.1341397021E+02	-3.7896471899E+02	5.4410053180E+02	3.2500000000E+02	0.000E+00	0.0
	-14	1	6	6	0	0	-1.2041567235E+01	-3.3108699941E+02	-2.9448799368E+02	5.4964695846E+02	3.2500000000E+02	0.000E+00	0.0
	25	2	5	5	0	0	4.7546606032E+01	1.1767302920E+02	-2.8708031929E+02	3.3792195000E+02	1.2517393108E+02	0.000E+00	0.0
	-5	1	9	9	0	501	-2.2452754190E+01	-1.5239549548E+01	-3.5535807185E+01	4.4906970878E+01	4.1800000000E+00	0.000E+00	0.0
	5	1	9	9	501	0	6.9999360222E+01	1.3291257874E+02	-2.5154451210E+02	2.9301497912E+02	4.1800000000E+00	0.000E+00	0.0
</event>
<event>
    11  -1  1.0000000E+00  1.0000000E+00  -1.0000000E+00  -1.0000000E+00
	2212	-1	0	0	0	0	0.0000000000E+00	0.0000000000E+00	6.5000000000E+03	6.5000000000E+03	9.3827000000E-01	0.000E+00	0.0
	2212	-1	0	0	0	0	0.0000000000E+00	0.0000000000E+00	-6.5000000000E+03	6.5000000000E+03	9.3827000000E-01	0.000E+00	0.0
	2212	1	0	0	0	0	0.0000000000E+00	0.0000000000E+00	6.1267112930E+03	6.1267112930E+03	9.3827000000E-01	0.000E+00	0.0
	2212	1	0	0	0	0	0.0000000000E+00	0.0000000000E+00	-5.7629360395E+03	5.7629360395E+03	9.3827000000E-01	0.000E+00	0.0
	51	2	1	2	0	0	-7.6188618814E+01	6.9086834454E+01	-4.6086777482E+02	1.1504466148E+03	1.0490713089E+03	0.000E+00	0.0
	1000022	2	5	5	0	0	7.6188618814E+01	-6.9086834454E+01	-2.0562932421E+02	8.8390515776E+02	8.5347947404E+02	0.000E+00	0.0
	14	1	6	6	0	0	8.9468202044E+00	2.3861839185E+02	-1.3829035533E+02	4.2634259100E+02	3.2500000000E+02	0.000E+00	0.0
	-14	1	6	6	0	0	6.7241798610E+01	-3.0770522630E+02	-6.7338968886E+01	4.5756256677E+02	3.2500000000E+02	0.000E+00	0.0
	25	2	5	5	0	0	-7.6188618814E+01	6.9086834454E+01	-1.5814592931E+02	2.2644750977E+02	1.2526229835E+02	0.000E+00	0.0
	-5	1	9	9	0	501	-1.7657608235E+01	-3.2219563680E+01	-7.2516041301E+01	8.1399877508E+01	4.1800000000E+00	0.000E+00	0.0
	5	1	9	9	501	0	-5.8531010580E+01	1.0130639813E+02	-8.5629888014E+01	1.4504763226E+02	4.1800000000E+00	0.000E+00	0.0
</event>
<event>
    11  -1  1.0000000E+00  1.0000000E+00  -1.0000000E+00  -1.0000000E+00
	2212	-1	0	0	0	0	0.0000000000E+00	0.0000000000E+00	6.5000000000E+03	6.5000000000E+03	9.3827000000E-01	0.000E+00	0.0
	2212	-1	0	0	0	0	0.0000000000E+00	0.0000000000E+00	-6.5000000000E+03	6.5000000000E+03	9.3827000000E-01	0.000E+00	0.0
	2212	1	0	0	0	0	0.0000000000E+00	0.0000000000E+00	6.0396707058E+03	6.0396707058E+03	9.3827000000E-01	0.000E+00	0.0
	2212	1	0	0	0	0	0.0000000000E+00	0.0000000000E+00	-5.8980849755E+03	5.8980849755E+03	9.3827000000E-01	0.000E+00	0.0
	51	2	1	2	0	0	1.0283420016E+02	-5.0607910946E+01	-6.2942514169E+01	1.0608554411E+03	1.0527661058E+03	0.000E+00	0.0
	1000022	2	5	5	0	0	-1.0283420016E+02	5.0607910946E+01	-1.9627697598E+02	8.8393398233E+02	8.5421226896E+02	0.000E+00	0.0
	14	1	6	6	0	0	-1.8065100323E+02	-2.0470065271E+02	-1.8556825690E+02	4.6324693216E+02	3.2500000000E+02	0.000E+00	0.0
	-14	1	6	6	0	0	7.7816803073E+01	2.5530856365E+02	-1.0708719082E+01	4.2068705017E+02	3.2500000000E+02	0.000E+00	0.0
	25	2	5	5	0	0	1.0283420016E+02	-5.0607910946E+01	5.4691245734E+01	1.7831033634E+02	1.2516952630E+02	0.000E+00	0.0
	-5	1	9	9	0	501	1.1845887105E+02	-8.4791518834E+00	1.8086365420E+01	1.2020394820E+02	4.1800000000E+00	0.000E+00	0.0
	5	1	9	9	501	0	-1.5624670897E+01	-4.2128759063E+01	3.6604880314E+01	5.8106388148E+01	4.1800000000E+00	0.000E+00	0.0
</event>
<event>
    11  -1  1.0000000E+00  1.0000000E+00  -1.0000000E+00  -1.0000000E+00
	2212	-1	0	0	0	0	0.0000000000E+00	0.0000000000E+00	6.5000000000E+03	6.5000000000E+03	9.3827000000E-01	0.000E+00	0.0
	2212	-1	0	0	0	0	0.0000000000E+00	0.0000000000E+00	-6.5000000000E+03	6.5000000000E+03	9.3827000000E-01	0.000E+00	0.0
	2212	1	0	0	0	0	0.0000000000E+00	0.0000000000E+00	5.0874987833E+03	5.0874987833E+03	9.3827000000E-01	0.000E+00	0.0
	2212	1	0	0	0	0	0.0000000000E+00	0.0000000000E+00	-6.3058597331E+03	6.3058597331E+03	9.3827000000E-01	0.000E+00	0.0
	51	2	1	2	0	0	7.3905276921E+01	1.1956654957E+02	1.2319363258E+03	1.6230584442E+03	1.0473268128E+03	0.000E+00	0.0
	1000022	2	5	5	0	0	-7.3905276921E+01	-1.1956654957E+02	9.9674260907E+02	1.3158801609E+03	8.4751791691E+02	0.000E+00	0.0
	14	1	6	6	0	0	1.3223790802E+02	1.5557398955E+02	4.0011950838E+02	5.5444634684E+02	3.2500000000E+02	0.000E+00	0.0
	-14	1	6	6	0	0	-2.0614318494E+02	-2.7514053912E+02	5.9662310069E+02	7.6143381410E+02	3.2500000000E+02	0.000E+00	0.0
	25	2	5	5	0	0	7.3905276921E+01	1.1956654957E+02	2.2161834070E+02	2.9076132265E+02	1.2517710685E+02	0.000E+00	0.0
	-5	1	9	9	0	501	9.2350415777E+01	9.2515423890E+01	9.9701257874E+01	1.6445521023E+02	4.1800000000E+00	0.000E+00	0.0
	5	1	9	9	501	0	-1.8445138856E+01	2.7051125680E+01	1.2191708283E+02	1.2630611242E+02	4.1800000000E+00	0.000E+00	0.0
</event>
<event>
    11  -1  1.0000000E+00  1.0000000E+00  -1.0000000E+00  -1.0000000E+00
	2212	-1	0	0	0	0	0.0000000000E+00	0.0000000000E+00	6.5000000000E+03	6.5000000000E+03	9.3827000000E-01	0.000E+00	0.0
	2212	-1	0	0	0	0	0.0000000000E+00	0.0000000000E+00	-6.5000000000E+03	6.5000000000E+03	9.3827000000E-01	0.000E+00	0.0
	2212	1	0	0	0	0	0.0000000000E+00	0.0000000000E+00	5.9043471778E+03	5.9043471778E+03	9.3827000000E-01	0.000E+00	0.0
	2212	1	0	0	0	0	0.0000000000E+00	0.0000000000E+00	-6.0300738534E+03	6.0300738534E+03	9.3827000000E-01	0.000E+00	0.0
	51	2	1	2	0	0	-8.3844187018E+01	-2.9316543130E+01	6.2407269585E+01	1.0636894832E+03	1.0581357861E+03	0.000E+00	0.0
	1000022	2	5	5	0	0	8.3844187018E+01	2.9316543130E+01	1.6997549513E+02	9.0583834851E+02	8.8530341538E+02	0.000E+00	0.0
	14	1	6	6	0	0	-1.6691131553E+02	-1.8352896945E+02	1.7168121139E+02	4.4344301576E+02	3.2500000000E+02	0.000E+00	0.0
	-14	1	6	6	0	0	2.5075550255E+02	2.1284551258E+02	-1.7057162590E+00	4.6239533275E+02	3.2500000000E+02	0.000E+00	0.0
	25	2	5	5	0	0	-8.3844187018E+01	-2.9316543130E+01	-4.4248819516E+01	1.5974062036E+02	1.2517907319E+02	0.000E+00	0.0
	-5	1	9	9	0	501	-8.8371549111E+01	5.0573040945E+00	-7.2759732121E+01	1.1465844075E+02	4.1800000000E+00	0.000E+00	0.0
	5	1	9	9	501	0	4.5273620933E+00	-3.4373847224E+01	2.8510912604E+01	4.5082179606E+01	4.1800000000E+00	0.000E+00	0.0
</event>
<event>
    11  -1  1.0000000E+00  1.0000000E+00  -1.0000000E+00  -1.0000000E+00
	2212	-1	0	0	0	0	0.0000000000E+00	0.0000000000E+00	6.5000000000E+03	6.5000000000E+03	9.3827000000E-01	0.000E+00	0.0
	2212	-1	0	0	0	0	0.0000000000E+00	0.0000000000E+00	-6.5000000000E+03	6.5000000000E+03	9.3827000000E-01	0.000E+00	0.0
	2212	1	0	0	0	0	0.0000000000E+00	0.0000000000E+00	6.2165106652E+03	6.2165106652E+03	9.3827000000E-01	0.000E+00	0.0
	2212	1	0	0	0	0	0.0000000000E+00	0.0000000000E+00	-5.4984280276E+03	5.4984280276E+03	9.3827000000E-01	0.000E+00	0.0
	51	2	1	2	0	0	1.3707054507E+02	-8.3755724782E+01	-7.4976166523E+02	1.3128921507E+03	1.0657109781E+03	0.000E+00	0.0
	1000022	2	5	5	0	0	-1.3707054507E+02	8.3755724782E+01	-5.5677200889E+02	1.0252452494E+03	8.4577147965E+02	0.000E+00	0.0
	14	1	6	6	0	0	-3.2419435863E+02	-4.5621910040E+01	-3.4090488424E+02	5.7360655587E+02	3.2500000000E+02	0.000E+00	0.0
	-14	1	6	6	0	0	1.8712381355E+02	1.2937763482E+02	-2.1586712465E+02	4.5163869353E+02	3.2500000000E+02	0.000E+00	0.0
	25	2	5	5	0	0	1.3707054507E+02	-8.3755724782E+01	-1.6131062863E+02	2.5981605778E+02	1.2521944422E+02	0.000E+00	0.0
	-5	1	9	9	0	501	1.3588655500E+02	-3.5905837655E+01	-7.1002392599E+01	1.5752205294E+02	4.1800000000E+00	0.000E+00	0.0
	5	1	9	9	501	0	1.1839900688E+00	-4.7849887127E+01	-9.0308236035E+01	1.0229400484E+02	4.1800000000E+00	0.000E+00	0.0
</event>
<event>
    11  -1  1.0000000E+00  1.0000000E+00  -1.0000000E+00  -1.0000000E+00
	2212	-1	0	0	0	0	0.0000000000E+00	0.0000000000E+00	6.5000000000E+03	6.5000000000E+03	9.3827000000E-01	0.000E+00	0.0
	2212	-1	0	0	0	0	0.0000000000E+00	0.0000000000E+00	-6.5000000000E+03	6.5000000000E+03	9.3827000000E-01	0.000E+00	0.0
	2212	1	0	0	0	0	0.0000000000E+00	0.0000000000E+00	6.1528040629E+03	6.1528040629E+03	9.3827000000E-01	0.000E+00	0.0
	2212	1	0	0	0	0	0.0000000000E+00	0.0000000000E+00	-5.7049926975E+03	5.7049926975E+03	9.3827000000E-01	0.000E+00	0.0
	51	2	1	2	0	0	-8.6114467847E+01	-8.6612943766E+01	-5.1617898379E+02	1.1770520246E+03	1.0507584031E+03	0.000E+00	0.0
	1000022	2	5	5	0	0	8.6114467847E+01	8.6612943766E+01	-3.0444014993E+02	9.1604767214E+02	8.5530230278E+02	0.000E+00	0.0
	14	1	6	6	0	0	-6.3485685192E+01	4.3556002125E+01	1.2394431212E+02	3.5625096499E+02	3.2500000000E+02	0.000E+00	0.0
	-14	1	6	6	0	0	1.4960015304E+02	4.3056941641E+01	-4.2838446205E+02	5.5979670716E+02	3.2500000000E+02	0.000E+00	0.0
	25	2	5	5	0	0	-8.6114467847E+01	-8.6612943766E+01	-1.4337121543E+02	2.2615556747E+02	1.2519397622E+02	0.000E+00	0.0
	-5	1	9	9	0	501	1.8803840131E+01	2.2659279387E+00	8.5571721209E+00	2.1199444045E+01	4.1800000000E+00	0.000E+00	0.0
	5	1	9	9	501	0	-1.0491830798E+02	-8.8878871705E+01	-1.5192838755E+02	2.0495612342E+02	4.1800000000E+00	0.000E+00	0.0
</event>
<event>
    11  -1  1.0000000E+00  1.0000000E+00  -1.0000000E+00  -1.0000000E+00
	2212	-1	0	0	0	0	0.0000000000E+00	0.0000000000E+00	6.5000000000E+03	6.5000000000E+03	9.3827000000E-01	0.000E+00	0.0
	2212	-1	0	0	0	0	0.0000000000E+00	0.0000000000E+00	-6.5000000000E+03	6.5000000000E+03	9.3827000000E-01	0.000E+00	0.0
	2212	1	0	0	0	0	0.0000000000E+00	0.0000000000E+00	6.0238563409E+03	6.0238563409E+03	9.3827000000E-01	0.000E+00	0.0
	2212	1	0	0	0	0	0.0000000000E+00	0.0000000000E+00	-5.9177974413E+03	5.9177974413E+03	9.3827000000E-01	0.000E+00	0.0
	51	2	1	2	0	0	-1.1975505485E+02	-9.5587945149E+01	-1.5209055640E+02	1.0749223657E+03	1.0530186259E+03	0.000E+00	0.0
	1000022	2	5	5	0	0	1.1975505485E+02	9.5587945149E+01	-4.0809724006E+01	8.5000126677E+02	8.3507987134E+02	0.000E+00	0.0
	14	1	6	6	0	0	-7.9248710158E+01	2.5215473323E+02	-1.0788417428E+02	4.3258104745E+02	3.2500000000E+02	0.000E+00	0.0
	-14	1	6	6	0	0	1.9900376501E+02	-1.5656678808E+02	6.7074450279E+01	4.1742021932E+02	3.2500000000E+02	0.000E+00	0.0
	25	2	5	5	0	0	-1.1975505485E+02	-9.5587945149E+01	-6.5249175540E+01	2.0834495099E+02	1.2518720092E+02	0.000E+00	0.0
	-5	1	9	9	0	501	-5.0437818089E+01	-5.6729038045E+01	-9.6502922708E+01	1.2285130745E+02	4.1800000000E+00	0.000E+00	0.0
	5	1	9	9	501	0	-6.9317236764E+01	-3.8858907104E+01	3.1253747167E+01	8.5493643541E+01	4.1800000000E+00	0.000E+00	0.0
</event>
<event>
    11  -1  1.0000000E+00  1.0000000E+00  -1.0000000E+00  -1.0000000E+00
	2212	-1	0	0	0	0	0.0000000000E+00	0.0000000000E+00	6.5000000000E+03	6.5000000000E+03	9.3827000000E-01	0.000E+00	0.0
	2212	-1	0	0	0	0	0.0000000000E+00	0.0000000000E+00	-6.5000000000E+03	6.5000000000E+03	9.3827000000E-01	0.000E+00	0.0
	2212	1	0	0	0	0	0.0000000000E+00	0.0000000000E+00	5.8219703736E+03	5.8219703736E+03	9.3827000000E-01	0.000E+00	0.0
	2212	1	0	0	0	0	0.0000000000E+00	0.0000000000E+00	-6.1209515130E+03	6.1209515130E+03	9.3827000000E-01	0.000E+00	0.0
	51	2	1	2	0	0	-5.3291362783E+01	-5.7428766219E+01	2.2889383270E+02	1.0423794104E+03	1.0139153890E+03	0.000E+00	0.0
	1000022	2	5	5	0	0	5.3291362783E+01	5.7428766219E+01	3.2261395121E+02	9.0753224232E+02	8.4462830689E+02	0.000E+00	0.0
	14	1	6	6	0	0	1.9956823132E+02	1.4863313508E+02	-1.3044405079E+01	4.0952954020E+02	3.2500000000E+02	0.000E+00	0.0
	-14	1	6	6	0	0	-1.4627686854E+02	-9.1204368857E+01	3.3565835629E+02	4.9800270212E+02	3.2500000000E+02	0.000E+00	0.0
	25	2	5	5	0	0	-5.3291362783E+01	-5.7428766219E+01	-2.3632811775E+01	1.4954587107E+02	1.2516958586E+02	0.000E+00	0.0
	-5	1	9	9	0	501	-8.3434359732E+01	-7.4811114380E+01	-1.2825687816E+01	1.1287145736E+02	4.1800000000E+00	0.000E+00	0.0
	5	1	9	9	501	0	3.0142996948E+01	1.7382348161E+01	-1.0807123959E+01	3.6674413709E+01	4.1800000000E+00	0.000E+00	0.0
</event>
<event>
    11  -1  1.0000000E+00  1.0000000E+00  -1.0000000E+00  -1.0000000E+00
	2212	-1	0	0	0	0	0.0000000000E+00	0.0000000000E+00	6.5000000000E+03	6.5000000000E+03	9.3827000000E-01	0.000E+00	0.0
	2212	-1	0	0	0	0	0.0000000000E+00	0.0000000000E+00	-6.5000000000E+03	6.5000000000E+03	9.3827000000E-01	0.000E+00	0.0
	2212	1	0	0	0	0	0.0000000000E+00	0.0000000000E+00	6.1506007030E+03	6.1506007030E+03	9.3827000000E-01	0.000E+00	0.0
	2212	1	0	0	0	0	0.0000000000E+00	0.0000000000E+00	-5.7092149501E+03	5.7092149501E+03	9.3827000000E-01	0.000E+00	0.0
	51	2	1	2	0	0	1.0686320060E+02	-9.0109332507E+01	-3.9682652311E+02	1.1323469817E+03	1.0512844344E+03	0.000E+00	0.0
	1000022	2	5	5	0	0	-1.0686320060E+02	9.0109332507E+01	-4.0920978300E+02	9.4979992282E+02	8.4565229937E+02	0.000E+00	0.0
	14	1	6	6	0	0	-1.4770193518E+02	2.6835975556E+02	-3.6003201913E+02	5.7365571108E+02	3.2500000000E+02	0.000E+00	0.0
	-14	1	6	6	0	0	4.0838734584E+01	-1.7825042306E+02	-4.9177763876E+01	3.7614421174E+02	3.2500000000E+02	0.000E+00	0.0
	25	2	5	5	0	0	1.0686320060E+02	-9.0109332507E+01	-3.2175969986E+01	1.9038442407E+02	1.2518586357E+02	0.000E+00	0.0
	-5	1	9	9	0	501	3.7552463051E+01	-6.7900042206E+01	-7.3181966973E+01	1.0674116311E+02	4.1800000000E+00	0.000E+00	0.0
	5	1	9	9	501	0	6.9310737549E+01	-2.2209290302E+01	4.1005996987E+01	8.3643260961E+01	4.1800000000E+00	0.000E+00	0.0
</event>
<event>
    11  -1  1.0000000E+00  1.0000000E+00  -1.0000000E+00  -1.0000000E+00
	2212	-1	0	0	0	0	0.0000000000E+00	0.0000000000E+00	6.5000000000E+03	6.5000000000E+03	9.3827000000E-01	0.000E+00	0.0
	2212	-1	0	0	0	0	0.0000000000E+00	0.0000000000E+00	-6.5000000000E+03	6.5000000000E+03	9.3827000000E-01	0.000E+00	0.0
	2212	1	0	0	0	0	0.0000000000E+00	0.0000000000E+00	5.4528738062E+03	5.4528738062E+03	9.3827000000E-01	0.000E+00	0.0
	2212	1	0	0	0	0	0.0000000000E+00	0.0000000000E+00	-6.2381003608E+03	6.2381003608E+03	9.3827000000E-01	0.000E+00	0.0
	51	2	1	2	0	0	1.6217862197E+01	1.2833799943E+02	6.8987186776E+02	1.2608032141E+03	1.0473623488E+03	0.000E+00	0.0
	1000022	2	5	5	0	0	-1.6217862197E+01	-1.2833799943E+02	7.4037379564E+02	1.1235131466E+03	8.3510165384E+02	0.000E+00	0.0
	14	1	6	6	0	0	-3.5808241344E+00	-3.2891446025E+02	3.8550008795E+02	6.0202397151E+02	3.2500000000E+02	0.000E+00	0.0
	-14	1	6	6	0	0	-1.2637038063E+01	2.0057646082E+02	3.5487370769E+02	5.2148917513E+02	3.2500000000E+02	0.000E+00	0.0
	25	2	5	5	0	0	1.6217862197E+01	1.2833799943E+02	4.4852758968E+01	1.8551268645E+02	1.2517797607E+02	0.000E+00	0.0
	-5	1	9	9	0	501	-1.9341411117E+01	-1.3714993100E+01	-1.3755100830E+01	2.7728440608E+01	4.1800000000E+00	0.000E+00	0.0
	5	1	9	9	501	0	3.5559273315E+01	1.4205299253E+02	5.8607859798E+01	1.5778424584E+02	4.1800000000E+00	0.000E+00	0.0
</event>
<event>
    11  -1  1.0000000E+00  1.0000000E+00  -1.0000000E+00  -1.0000000E+00
	2212	-1	0	0	0	0	0.0000000000E+00	0.0000000000E+00	6.5000000000E+03	6.5000000000E+03	9.3827000000E-01	0.000E+00	0.0
	2212	-1	0	0	0	0	0.0000000000E+00	0.0000000000E+00	-6.5000000000E+03	6.5000000000E+03	9.3827000000E-01	0.000E+00	0.0
	2212	1	0	0	0	0	0.0000000000E+00	0.0000000000E+00	6.2400733526E+03	6.2400733526E+03	9.3827000000E-01	0.000E+00	0.0
	2212	1	0	0	0	0	0.0000000000E+00	0.0000000000E+00	-5.4415017017E+03	5.4415017017E+03	9.3827000000E-01	0.000E+00	0.0
	51	2	1	2	0	0	2.6606044399E+01	2.5268958219E+01	-6.4840399573E+02	1.2338159504E+03	1.0490603681E+03	0.000E+00	0.0
	1000022	2	5	5	0	0	-2.6606044399E+01	-2.5268958219E+01	-8.1762377864E+02	1.1865649719E+03	8.5911663196E+02	0.000E+00	0.0
	14	1	6	6	0	0	-3.9359243169E+01	1.6411311433E+02	-7.0377951132E+02	7.9335544674E+02	3.2500000000E+02	0.000E+00	0.0
	-14	1	6	6	0	0	1.2753198770E+01	-1.8938207255E+02	-1.1384426732E+02	3.9320952517E+02	3.2500000000E+02	0.000E+00	0.0
	25	2	5	5	0	0	2.6606044399E+01	2.5268958219E+01	1.9052127774E+01	1.3185997382E+02	1.2521049187E+02	0.000E+00	0.0
	-5	1	9	9	0	501	4.3977119004E+01	4.7795148230E+01	5.5432168202E+01	8.5490121428E+01	4.1800000000E+00	0.000E+00	0.0
	5	1	9	9	501	0	-1.7371074605E+01	-2.2526190010E+01	-3.6380040428E+01	4.6369852392E+01	4.1800000000E+00	0.000E+00	0.0
</event>
<event>
    11  -1  1.0000000E+00  1.0000000E+00  -1.0000000E+00  -1.0000000E+00
	2212	-1	0	0	0	0	0.0000000000E+00	0.0000000000E+00	6.5000000000E+03	6.5000000000E+03	9.3827000000E-01	0.000E+00	0.0
	2212	-1	0	0	0	0	0.0000000000E+00	0.0000000000E+00	-6.5000000000E+03	6.5000000000E+03	9.3827000000E-01	0.000E+00	0.0
	2212	1	0	0	0	0	0.0000000000E+00	0.0000000000E+00	5.3091380106E+03	5.3091380106E+03	9.3827000000E-01	0.000E+00	0.0
	2212	1	0	0	0	0	0.0000000000E+00	0.0000000000E+00	-6.2606903704E+03	6.2606903704E+03	9.3827000000E-01	0.000E+00	0.0
	51	2	1	2	0	0	-1.1147895835E+02	2.2696474021E+01	1.1029806513E+03	1.5393011308E+03	1.0676792431E+03	0.000E+00	0.0
	1000022	2	5	5	0	0	1.1147895835E+02	-2.2696474021E+01	6.3241171470E+02	1.0689724801E+03	8.5429204505E+02	0.000E+00	0.0
	14	1	6	6	0	0	1.0136823623E+02	-1.3967501896E+01	6.5976158118E+02	7.4255030430E+02	3.2500000000E+02	0.000E+00	0.0
	-14	1	6	6	0	0	1.0110722123E+01	-8.7289721244E+00	-2.7349866481E+01	3.2642217580E+02	3.2500000000E+02	0.000E+00	0.0
	25	2	5	5	0	0	-1.1147895835E+02	2.2696474021E+01	3.1914064516E+02	3.6119913886E+02	1.2518537627E+02	0.000E+00	0.0
	-5	1	9	9	0	501	-7.9717600063E+01	2.8871183659E+01	7.0269075615E+01	1.1019825948E+02	4.1800000000E+00	0.000E+00	0.0
	5	1	9	9	501	0	-3.1761358289E+01	-6.1747096382E+00	2.4887156954E+02	2.5100087937E+02	4.1800000000E+00	0.000E+00	0.0
</event>
<event>
    11  -1  1.0000000E+00  1.0000000E+00  -1.0000000E+00  -1.0000000E+00
	2212	-1	0	0	0	0	0.0000000000E+00	0.0000000000E+00	6.5000000000E+03	6.5000000000E+03	9.3827000000E-01	0.000E+00	0.0
	2212	-1	0	0	0	0	0.0000000000E+00	0.0000000000E+00	-6.5000000000E+03	6.5000000000E+03	9.3827000000E-01	0.000E+00	0.0
	2212	1	0	0	0	0	0.0000000000E+00	0.0000000000E+00	6.0255622063E+03	6.0255622063E+03	9.3827000000E-01	0.000E+00	0.0
	2212	1	0	0	0	0	0.0000000000E+00	0.0000000000E+00	-5.9177939936E+03	5.9177939936E+03	9.3827000000E-01	0.000E+00	0.0
	51	2	1	2	0	0	8.8636438229E+01	8.9922662248E+01	-1.4856831109E+02	1.0690636926E+03	1.0511337367E+03	0.000E+00	0.0
	1000022	2	5	5	0	0	-8.8636438229E+01	-8.9922662248E+01	-4.9140270666E+01	8.6942579268E+02	8.5880378400E+02	0.000E+00	0.0
	14	1	6	6	0	0	-1.3546235020E+02	-2.9054949169E+02	8.0158512511E+01	4.6348618380E+02	3.2500000000E+02	0.000E+00	0.0
	-14	1	6	6	0	0	4.6825911972E+01	2.0062682945E+02	-1.2929878318E+02	4.0593960888E+02	3.2500000000E+02	0.000E+00	0.0
	25	2	5	5	0	0	8.8636438229E+01	8.9922662248E+01	-5.8627942012E+01	1.8721800736E+02	1.2518323900E+02	0.000E+00	0.0
	-5	1	9	9	0	501	9.5299558359E+01	5.3964914987E+01	-8.7656920089E+01	1.4034039302E+02	4.1800000000E+00	0.000E+00	0.0
	5	1	9	9	501	0	-6.6631201299E+00	3.5957747261E+01	2.9028978077E+01	4.6877614340E+01	4.1800000000E+00	0.000E+00	0.0
</event>
<event>
    11  -1  1.0000000E+00  1.0000000E+00  -1.0000000E+00  -1.0000000E+00
	2212	-1	0	0	0	0	0.0000000000E+00	0.0000000000E+00	6.5000000000E+03	6.5000000000E+03	9.3827000000E-01	0.000E+00	0.0
	2212	-1	0	0	0	0	0.0000000000E+00	0.0000000000E+00	-6.5000000000E+03	6.5000000000E+03	9.3827000000E-01	0.000E+00	0.0
	2212	1	0	0	0	0	0.0000000000E+00	0.0000000000E+00	6.2271205644E+03	6.2271205644E+03	9.3827000000E-01	0.000E+00	0.0
	2212	1	0	0	0	0	0.0000000000E+00	0.0000000000E+00	-5.4495754352E+03	5.4495754352E+03	9.3827000000E-01	0.000E+00	0.0
	51	2	1	2	0	0	9.1681576466E+01	-3.9817419533E+01	-9.2329420193E+02	1.4173990867E+03	1.0707740422E+03	0.000E+00	0.0
	1000022	2	5	5	0	0	-9.1681576466E+01	3.9817419533E+01	-4.9753648876E+02	1.0007125652E+03	8.6249182152E+02	0.000E+00	0.0
	14	1	6	6	0	0	-2.2467212410E+02	-1.9917910240E+02	-2.7817161926E+02	5.2264168217E+02	3.2500000000E+02	0.000E+00	0.0
	-14	1	6	6	0	0	1.3299054763E+02	2.3899652193E+02	-2.1936486950E+02	4.7807088306E+02	3.2500000000E+02	0.000E+00	0.0
	25	2	5	5	0	0	9.1681576466E+01	-3.9817419533E+01	-2.8000864042E+02	3.2259143512E+02	1.2517770146E+02	0.000E+00	0.0
	-5	1	9	9	0	501	3.1502303585E+01	-6.9130745819E+01	-7.4780472874E+01	1.0668198851E+02	4.1800000000E+00	0.000E+00	0.0
	5	1	9	9	501	0	6.0179272881E+01	2.9313326286E+01	-2.0522816755E+02	2.1590944661E+02	4.1800000000E+00	0.000E+00	0.0
</event>
<event>
    11  -1  1.0000000E+00  1.0000000E+00  -1.0000000E+00  -1.0000000E+00
	2212	-1	0	0	0	0	0.0000000000E+00	0.0000000000E+00	6.5000000000E+03	6.5000000000E+03	9.3827000000E-01	0.000E+00	0.0
	2212	-1	0	0	0	0	0.0000000000E+00	0.0000000000E+00	-6.5000000000E+03	6.5000000000E+03	9.3827000000E-01	0.000E+00	0.0
	2212	1	0	0	0	0	0.0000000000E+00	0.0000000000E+00	5.1870900480E+03	5.1870900480E+03	9.3827000000E-01	0.000E+00	0.0
	2212	1	0	0	0	0	0.0000000000E+00	0.0000000000E+00	-6.2941005685E+03	6.2941005685E+03	9.3827000000E-01	0.000E+00	0.0
	51	2	1	2	0	0	1.2177330454E+02	6.2141575197E+00	1.0577917380E+03	1.4883213246E+03	1.0398603996E+03	0.000E+00	0.0
	1000022	2	5	5	0	0	-1.2177330454E+02	-6.2141575197E+00	9.7388580286E+02	1.2991236509E+03	8.5111770626E+02	0.000E+00	0.0
	14	1	6	6	0	0	-6.0022942985E+01	-2.1035656356E+02	2.1600992715E+02	4.4736777504E+02	3.2500000000E+02	0.000E+00	0.0
	-14	1	6	6	0	0	-6.1750361556E+01	2.0414240605E+02	7.5787587571E+02	8.5175587587E+02	3.2500000000E+02	0.000E+00	0.0
	25	2	5	5	0	0	1.2177330454E+02	6.2141575197E+00	1.3312471767E+02	2.1968573255E+02	1.2518896588E+02	0.000E+00	0.0
	-5	1	9	9	0	501	9.8574163304E+01	4.0451957916E+01	3.3556375255E+01	1.1178877086E+02	4.1800000000E+00	0.000E+00	0.0
	5	1	9	9	501	0	2.3199141237E+01	-3.4237800397E+01	9.9568342412E+01	1.0789696169E+02	4.1800000000E+00	0.000E+00	0.0
</event>
<event>
    11  -1  1.0000000E+00  1.0000000E+00  -1.0000000E+00  -1.0000000E+00
	2212	-1	0	0	0	0	0.0000000000E+00	0.0000000000E+00	6.5000000000E+03	6.5000000000E+03	9.3827000000E-01	0.000E+00	0.0
	2212	-1	0	0	0	0	0.0000000000E+00	0.0000000000E+00	-6.5000000000E+03	6.5000000000E+03	9.3827000000E-01	0.000E+00	0.0
	2212	1	0	0	0	0	0.0000000000E+00	0.0000000000E+00	5.6491552726E+03	5.6491552726E+03	9.3827000000E-01	0.000E+00	0.0
	2212	1	0	0	0	0	0.0000000000E+00	0.0000000000E+00	-6.1774771907E+03	6.1774771907E+03	9.3827000000E-01	0.000E+00	0.0
	51	2	1	2	0	0	-4.8040076225E+01	-9.8950392763E+01	6.1199665859E+02	1.2183210851E+03	1.0476961998E+03	0.000E+00	0.0
	1000022	2	5	5	0	0	4.8040076225E+01	9.8950392763E+01	3.5740725319E+02	9.3465996884E+02	8.5659225047E+02	0.000E+00	0.0
	14	1	6	6	0	0	-1.1106896625E+02	-1.3846080300E+02	3.3810012464E+02	5.0144232321E+02	3.2500000000E+02	0.000E+00	0.0
	-14	1	6	6	0	0	1.5910904248E+02	2.3741119576E+02	1.9307128552E+01	4.3321764563E+02	3.2500000000E+02	0.000E+00	0.0
	25	2	5	5	0	0	-4.8040076225E+01	-9.8950392763E+01	1.7091466491E+02	2.3870756787E+02	1.2518167248E+02	0.000E+00	0.0
	-5	1	9	9	0	501	-8.9275281878E+00	1.8763802890E+00	-1.8217697940E+01	2.0798521120E+01	4.1800000000E+00	0.000E+00	0.0
	5	1	9	9	501	0	-3.9112548038E+01	-1.0082677305E+02	1.8913236285E+02	2.1790904675E+02	4.1800000000E+00	0.000E+00	0.0
</event>
<event>
    11  -1  1.0000000E+00  1.0000000E+00  -1.0000000E+00  -1.0000000E+00
	2212	-1	0	0	0	0	0.0000000000E+00	0.0000000000E+00	6.5000000000E+03	6.5000000000E+03	9.3827000000E-01	0.000E+00	0.0
	2212	-1	0	0	0	0	0.0000000000E+00	0.0000000000E+00	-6.5000000000E+03	6.5000000000E+03	9.3827000000E-01	0.000E+00	0.0
	2212	1	0	0	0	0	0.0000000000E+00	0.0000000000E+00	6.2771094068E+03	6.2771094068E+03	9.3827000000E-01	0.000E+00	0.0
	2212	1	0	0	0	0	0.0000000000E+00	0.0000000000E+00	-5.2627937066E+03	5.2627937066E+03	9.3827000000E-01	0.000E+00	0.0
	51	2	1	2	0	0	7.7867919385E+01	-9.1825964778E+01	-1.1278517773E+03	1.5458304018E+03	1.0502602434E+03	0.000E+00	0.0
	1000022	2	5	5	0	0	-7.7867919385E+01	9.1825964778E+01	-7.2726483838E+02	1.1245906461E+03	8.4929061901E+02	0.000E+00	0.0
	14	1	6	6	0	0	-2.4558266597E+02	2.1775722278E+02	-4.7642975226E+02	6.6358071306E+02	3.2500000000E+02	0.000E+00	0.0
	-14	1	6	6	0	0	1.6771474659E+02	-1.2593125800E+02	-2.5083508611E+02	4.6100993307E+02	3.2500000000E+02	0.000E+00	0.0
	25	2	5	5	0	0	7.7867919385E+01	-9.1825964778E+01	-2.8705086178E+02	3.3550624052E+02	1.2518314383E+02	0.000E+00	0.0
	-5	1	9	9	0	501	8.6649681901E+01	-2.6823650557E+01	-9.0266808208E+01	1.2803610689E+02	4.1800000000E+00	0.000E+00	0.0
	5	1	9	9	501	0	-8.7817625164E+00	-6.5002314221E+01	-1.9678405357E+02	2.0747013363E+02	4.1800000000E+00	0.000E+00	0.0
</event>
<event>
    11  -1  1.0000000E+00  1.0000000E+00  -1.0000000E+00  -1.0000000E+00
	2212	-1	0	0	0	0	0.0000000000E+00	0.0000000000E+00	6.5000000000E+03	6.5000000000E+03	9.3827000000E-01	0.000E+00	0.0
	2212	-1	0	0	0	0	0.0000000000E+00	0.0000000000E+00	-6.5000000000E+03	6.5000000000E+03	9.3827000000E-01	0.000E+00	0.0
	2212	1	0	0	0	0	0.0000000000E+00	0.0000000000E+00	6.2952012177E+03	6.2952012177E+03	9.3827000000E-01	0.000E+00	0.0
	2212	1	0	0	0	0	0.0000000000E+00	0.0000000000E+00	-4.8531664899E+03	4.8531664899E+03	9.3827000000E-01	0.000E+00	0.0
	51	2	1	2	0	0	1.9523487602E+02	3.2213451690E+01	-1.2071876145E+03	1.6868711538E+03	1.1614981661E+03	0.000E+00	0.0
	1000022	2	5	5	0	0	-1.9523487602E+02	-3.2213451690E+01	-1.3535992697E+03	1.6012852247E+03	8.3230344516E+02	0.000E+00	0.0
	14	1	6	6	0	0	-1.1859223471E+02	1.8730781060E+02	-3.7190931470E+02	5.4137775389E+02	3.2500000000E+02	0.000E+00	0.0
	-14	1	6	6	0	0	-7.6642641311E+01	-2.1952126229E+02	-9.8168995498E+02	1.0599074709E+03	3.2500000000E+02	0.000E+00	0.0
	25	2	5	5	0	0	1.9523487602E+02	3.2213451690E+01	-8.8435458217E+01	2.5034706765E+02	1.2529349835E+02	0.000E+00	0.0
	-5	1	9	9	0	501	1.4733411587E+01	-3.3936248506E+01	-3.4207208062E+01	5.0560338834E+01	4.1800000000E+00	0.000E+00	0.0
	5	1	9	9	501	0	1.8050146443E+02	6.6149700196E+01	-5.4228250156E+01	1.9978672882E+02	4.1800000000E+00	0.000E+00	0.0
</event>
<event>
    11  -1  1.0000000E+00  1.0000000E+00  -1.0000000E+00  -1.0000000E+00
	2212	-1	0	0	0	0	0.0000000000E+00	0.0000000000E+00	6.5000000000E+03	6.5000000000E+03	9.3827000000E-01	0.000E+00	0.0
	2212	-1	0	0	0	0	0.0000000000E+00	0.0000000000E+00	-6.5000000000E+03	6.5000000000E+03	9.3827000000E-01	0.000E+00	0.0
	2212	1	0	0	0	0	0.0000000000E+00	0.0000000000E+00	6.1409412961E+03	6.1409412961E+03	9.3827000000E-01	0.000E+00	0.0
	2212	1	0	0	0	0	0.0000000000E+00	0.0000000000E+00	-5.7237525993E+03	5.7237525993E+03	9.3827000000E-01	0.000E+00	0.0
	51	2	1	2	0	0	7.6663641848E+00	-8.5982847837E+01	-3.0772288940E+02	1.1031857244E+03	1.0558757231E+03	0.000E+00	0.0
	1000022	2	5	5	0	0	-7.6663641848E+00	8.5982847837E+01	-4.5707861692E+02	9.7808787112E+02	8.6039711664E+02	0.000E+00	0.0
	14	1	6	6	0	0	-2.1077614877E+01	3.2208776322E+02	-1.9229742949E+02	4.9677771131E+02	3.2500000000E+02	0.000E+00	0.0
	-14	1	6	6	0	0	1.3411250693E+01	-2.3610491539E+02	-2.6478118743E+02	4.8131015981E+02	3.2500000000E+02	0.000E+00	0.0
	25	2	5	5	0	0	7.6663641848E+00	-8.5982847837E+01	3.9889920124E+01	1.5721823356E+02	1.2519801905E+02	0.000E+00	0.0
	-5	1	9	9	0	501	-5.3456278568E+01	-2.8744096709E+01	4.1006086690E+01	7.3367352137E+01	4.1800000000E+00	0.000E+00	0.0
	5	1	9	9	501	0	6.1122642753E+01	-5.7238751128E+01	-1.1161665654E+00	8.3850881424E+01	4.1800000000E+00	0.000E+00	0.0
</event>
<event>
    11  -1  1.0000000E+00  1.0000000E+00  -1.0000000E+00  -1.0000000E+00
	2212	-1	0	0	0	0	0.0000000000E+00	0.0000000000E+00	6.5000000000E+03	6.5000000000E+03	9.3827000000E-01	0.000E+00	0.0
	2212	-1	0	0	0	0	0.0000000000E+00	0.0000000000E+00	-6.5000000000E+03	6.5000000000E+03	9.3827000000E-01	0.000E+00	0.0
	2212	1	0	0	0	0	0.0000000000E+00	0.0000000000E+00	6.1393716942E+03	6.1393716942E+03	9.3827000000E-01	0.000E+00	0.0
	2212	1	0	0	0	0	0.0000000000E+00	0.0000000000E+00	-5.7338366298E+03	5.7338366298E+03	9.3827000000E-01	0.000E+00	0.0
	51	2	1	2	0	0	-1.1812236545E+02	-3.6338481342E+01	-3.3144828343E+02	1.1092033789E+03	1.0512853051E+03	0.000E+00	0.0
	1000022	2	5	5	0	0	1.1812236545E+02	3.6338481342E+01	-4.0996045591E+02	9.5082365538E+02	8.4895504579E+02	0.000E+00	0.0
	14	1	6	6	0	0	-1.1168762158E+01	8.8935418676E+01	8.0034494534E+01	3.4650363672E+02	3.2500000000E+02	0.000E+00	0.0
	-14	1	6	6	0	0	1.2929112760E+02	-5.2596937334E+01	-4.8999495045E+02	6.0432001867E+02	3.2500000000E+02	0.000E+00	0.0
	25	2	5	5	0	0	-1.1812236545E+02	-3.6338481342E+01	4.4253915097E+00	1.7596802063E+02	1.2518698714E+02	0.000E+00	0.0
	-5	1	9	9	0	501	-3.2297913641E+01	4.5822009291E+01	-6.4566296611E+00	5.6585972004E+01	4.1800000000E+00	0.000E+00	0.0
	5	1	9	9	501	0	-8.5824451805E+01	-8.2160490633E+01	1.0882021171E+01	1.1938204862E+02	4.1800000000E+00	0.000E+00	0.0
</event>
<event>
    11  -1  1.0000000E+00  1.0000000E+00  -1.0000000E+00  -1.0000000E+00
	2212	-1	0	0	0	0	0.0000000000E+00	0.0000000000E+00	6.5000000000E+03	6.5000000000E+03	9.3827000000E-01	0.000E+00	0.0
	2212	-1	0	0	0	0	0.0000000000E+00	0.0000000000E+00	-6.5000000000E+03	6.5000000000E+03	9.3827000000E-01	0.000E+00	0.0
	2212	1	0	0	0	0	0.0000000000E+00	0.0000000000E+00	5.4129817132E+03	5.4129817132E+03	9.3827000000E-01	0.000E+00	0.0
	2212	1	0	0	0	0	0.0000000000E+00	0.0000000000E+00	-6.1040198440E+03	6.1040198440E+03	9.3827000000E-01	0.000E+00	0.0
	51	2	1	2	0	0	1.8630571155E+02	-2.3153510369E+02	4.7809391911E+02	1.4278104920E+03	1.3121549768E+03	0.000E+00	0.0
	1000022	2	5	5	0	0	-1.8630571155E+02	2.3153510369E+02	7.2706741168E+02	1.1585191145E+03	8.5159919870E+02	0.000E+00	0.0
	14	1	6	6	0	0	1.0474190627E+02	1.0117323585E+02	7.6206444058E+01	3.6419680490E+02	3.2500000000E+02	0.000E+00	0.0
	-14	1	6	6	0	0	-2.9104761782E+02	1.3036186784E+02	6.5086096762E+02	7.9432230964E+02	3.2500000000E+02	0.000E+00	0.0
	25	2	5	5	0	0	1.8630571155E+02	-2.3153510369E+02	-3.6029280897E+01	3.2447932827E+02	1.2518148024E+02	0.000E+00	0.0
	-5	1	9	9	0	501	1.5078397780E+02	-2.1765172458E+02	-6.9262604158E+01	2.7372040828E+02	4.1800000000E+00	0.000E+00	0.0
	5	1	9	9	501	0	3.5521733748E+01	-1.3883379118E+01	3.3233323262E+01	5.0758919997E+01	4.1800000000E+00	0.000E+00	0.0
</event>
<event>
    11  -1  1.0000000E+00  1.0000000E+00  -1.0000000E+00  -1.0000000E+00
	2212	-1	0	0	0	0	0.0000000000E+00	0.0000000000E+00	6.5000000000E+03	6.5000000000E+03	9.3827000000E-01	0.000E+00	0.0
	2212	-1	0	0	0	0	0.0000000000E+00	0.0000000000E+00	-6.5000000000E+03	6.5000000000E+03	9.3827000000E-01	0.000E+00	0.0
	2212	1	0	0	0	0	0.0000000000E+00	0.0000000000E+00	5.8210850244E+03	5.8210850244E+03	9.3827000000E-01	0.000E+00	0.0
	2212	1	0	0	0	0	0.0000000000E+00	0.0000000000E+00	-6.0893612870E+03	6.0893612870E+03	9.3827000000E-01	0.000E+00	0.0
	51	2	1	2	0	0	5.3900246091E+01	7.8049540624E+01	4.6093939106E+02	1.1561216099E+03	1.0560090375E+03	0.000E+00	0.0
	1000022	2	5	5	0	0	-5.3900246091E+01	-7.8049540624E+01	1.9579125034E+01	7.9541415644E+02	7.8949564331E+02	0.000E+00	0.0
	14	1	6	6	0	0	-7.1521133221E+01	-4.8219722478E+01	2.2937263218E+02	4.0703466502E+02	3.2500000000E+02	0.000E+00	0.0
	-14	1	6	6	0	0	1.7620887129E+01	-2.9829818146E+01	-2.0979350715E+02	3.8837949142E+02	3.2500000000E+02	0.000E+00	0.0
	25	2	5	5	0	0	5.3900246091E+01	7.8049540624E+01	2.4869713753E+02	2.9413953214E+02	1.2518318910E+02	0.000E+00	0.0
	-5	1	9	9	0	501	4.5227970084E+01	1.0637416594E+02	2.3351600294E+02	2.6059207296E+02	4.1800000000E+00	0.000E+00	0.0
	5	1	9	9	501	0	8.6722760072E+00	-2.8324625315E+01	1.5181134586E+01	3.3547459184E+01	4.1800000000E+00	0.000E+00	0.0
</event>
<event>
    11  -1  1.0000000E+00  1.0000000E+00  -1.0000000E+00  -1.0000000E+00
	2212	-1	0	0	0	0	0.0000000000E+00	0.0000000000E+00	6.5000000000E+03	6.5000000000E+03	9.3827000000E-01	0.000E+00	0.0
	2212	-1	0	0	0	0	0.0000000000E+00	0.0000000000E+00	-6.5000000000E+03	6.5000000000E+03	9.3827000000E-01	0.000E+00	0.0
	2212	1	0	0	0	0	0.0000000000E+00	0.0000000000E+00	6.0758003015E+03	6.0758003015E+03	9.3827000000E-01	0.000E+00	0.0
	2212	1	0	0	0	0	0.0000000000E+00	0.0000000000E+00	-5.8518083966E+03	5.8518083966E+03	9.3827000000E-01	0.000E+00	0.0
	51	2	1	2	0	0	1.0265306677E+02	3.2797245777E+01	-3.0246584526E+02	1.0967906044E+03	1.0487376845E+03	0.000E+00	0.0
	1000022	2	5	5	0	0	-1.0265306677E+02	-3.2797245777E+01	-1.0850427723E+02	8.7078400485E+02	8.5725042635E+02	0.000E+00	0.0
	14	1	6	6	0	0	1.7876681467E+02	-1.7416198572E+02	-7.8579485470E+01	4.1724058627E+02	3.2500000000E+02	0.000E+00	0.0
	-14	1	6	6	0	0	-2.8141988144E+02	1.4136473995E+02	-2.9924791765E+01	4.5354341857E+02	3.2500000000E+02	0.000E+00	0.0
	25	2	5	5	0	0	1.0265306677E+02	3.2797245777E+01	-1.1548762764E+02	2.0160729707E+02	1.2527888348E+02	0.000E+00	0.0
	-5	1	9	9	0	501	1.7161342285E+01	-4.5035857908E+01	-4.5397733346E+01	6.6341290004E+01	4.1800000000E+00	0.000E+00	0.0
	5	1	9	9	501	0	8.5491724486E+01	7.7833103685E+01	-7.0089894293E+01	1.3526600706E+02	4.1800000000E+00	0.000E+00	0.0
</event>
<event>
    11  -1  1.0000000E+00  1.0000000E+00  -1.0000000E+00  -1.0000000E+00
	2212	-1	0	0	0	0	0.0000000000E+00	0.0000000000E+00	6.5000000000E+03	6.5000000000E+03	9.3827000000E-01	0.000E+00	0.0
	2212	-1	0	0	0	0	0.0000000000E+00	0.0000000000E+00	-6.5000000000E+03	6.5000000000E+03	9.3827000000E-01	0.000E+00	0.0
	2212	1	0	0	0	0	0.0000000000E+00	0.0000000000E+00	5.4258561961E+03	5.4258561961E+03	9.3827000000E-01	0.000E+00	0.0
	2212	1	0	0	0	0	0.0000000000E+00	0.0000000000E+00	-6.2418718168E+03	6.2418718168E+03	9.3827000000E-01	0.000E+00	0.0
	51	2	1	2	0	0	-8.9907325222E+01	4.1894302639E+01	9.4127619392E+02	1.4159472050E+03	1.0531225733E+03	0.000E+00	0.0
	1000022	2	5	5	0	0	8.9907325222E+01	-4.1894302639E+01	5.5412662448E+02	1.0255296906E+03	8.5721430844E+02	0.000E+00	0.0
	14	1	6	6	0	0	-4.4342330763E+01	1.0436681567E+02	5.4497465309E+02	6.4457819310E+02	3.2500000000E+02	0.000E+00	0.0
	-14	1	6	6	0	0	1.3424965599E+02	-1.4626111830E+02	9.1519713992E+00	3.8095149749E+02	3.2500000000E+02	0.000E+00	0.0
	25	2	5	5	0	0	-8.9907325222E+01	4.1894302639E+01	2.6188899623E+02	3.0674229654E+02	1.2516601142E+02	0.000E+00	0.0
	-5	1	9	9	0	501	-4.8567780235E+01	6.2229209236E+01	5.8981913485E+01	9.8628810586E+01	4.1800000000E+00	0.000E+00	0.0
	5	1	9	9	501	0	-4.1339544988E+01	-2.0334906597E+01	2.0290708275E+02	2.0811348595E+02	4.1800000000E+00	0.000E+00	0.0
</event>
<event>
    11  -1  1.0000000E+00  1.0000000E+00  -1.0000000E+00  -1.0000000E+00
	2212	-1	0	0	0	0	0.0000000000E+00	0.0000000000E+00	6.5000000000E+03	6.5000000000E+03	9.3827000000E-01	0.000E+00	0.0
	2212	-1	0	0	0	0	0.0000000000E+00	0.0000000000E+00	-6.5000000000E+03	6.5000000000E+03	9.3827000000E-01	0.000E+00	0.0
	2212	1	0	0	0	0	0.0000000000E+00	0.0000000000E+00	4.9951248568E+03	4.9951248568E+03	9.3827000000E-01	0.000E+00	0.0
	2212	1	0	0	0	0	0.0000000000E+00	0.0000000000E+00	-6.3190660589E+03	6.3190660589E+03	9.3827000000E-01	0.000E+00	0.0
	51	2	1	2	0	0	-5.4586066897E+01	-1.2342460152E+02	1.2995788163E+03	1.6721992503E+03	1.0436148532E+03	0.000E+00	0.0
	1000022	2	5	5	0	0	5.4586066897E+01	1.2342460152E+02	1.1244979713E+03	1.4144413520E+03	8.4731067489E+02	0.000E+00	0.0
	14	1	6	6	0	0	-2.1224951155E+02	1.7548732637E+02	4.6571383807E+02	6.3115769491E+02	3.2500000000E+02	0.000E+00	0.0
	-14	1	6	6	0	0	2.6683557845E+02	-5.2062724848E+01	6.5878413327E+02	7.8328365711E+02	3.2500000000E+02	0.000E+00	0.0
	25	2	5	5	0	0	-5.4586066897E+01	-1.2342460152E+02	1.9944323079E+02	2.7136773223E+02	1.2509825269E+02	0.000E+00	0.0
	-5	1	9	9	0	501	2.3548532991E+01	-2.7815320180E+01	1.1755878110E+02	1.2314935996E+02	4.1800000000E+00	0.000E+00	0.0
	5	1	9	9	501	0	-7.8134599888E+01	-9.5609281342E+01	8.1884449691E+01	1.4821837227E+02	4.1800000000E+00	0.000E+00	0.0
</event>
<event>
    11  -1  1.0000000E+00  1.0000000E+00  -1.0000000E+00  -1.0000000E+00
	2212	-1	0	0	0	0	0.0000000000E+00	0.0000000000E+00	6.5000000000E+03	6.5000000000E+03	9.3827000000E-01	0.000E+00	0.0
	2212	-1	0	0	0	0	0.0000000000E+00	0.0000000000E+00	-6.5000000000E+03	6.5000000000E+03	9.3827000000E-01	0.000E+00	0.0
	2212	1	0	0	0	0	0.0000000000E+00	0.0000000000E+00	6.2778635063E+03	6.2778635063E+03	9.3827000000E-01	0.000E+00	0.0
	2212	1	0	0	0	0	0.0000000000E+00	0.0000000000E+00	-5.2578609349E+03	5.2578609349E+03	9.3827000000E-01	0.000E+00	0.0
	51	2	1	2	0	0	-1.1695357966E+02	-2.3264450744E+01	-9.2377972407E+02	1.4040249356E+03	1.0505701627E+03	0.000E+00	0.0
	1000022	2	5	5	0	0	1.1695357966E+02	2.3264450744E+01	-9.4219300063E+02	1.2746920902E+03	8.5023108613E+02	0.000E+00	0.0
	14	1	6	6	0	0	8.5349254954E+01	2.3605776021E+02	-7.1229479029E+02	8.2219014209E+02	3.2500000000E+02	0.000E+00	0.0
	-14	1	6	6	0	0	3.1604324709E+01	-2.1279330947E+02	-2.2989821034E+02	4.5250194808E+02	3.2500000000E+02	0.000E+00	0.0
	25	2	5	5	0	0	-1.1695357966E+02	-2.3264450744E+01	-7.7809570767E+01	1.8958346871E+02	1.2517263216E+02	0.000E+00	0.0
	-5	1	9	9	0	501	-8.3573020271E+01	4.2782962247E+01	-6.5236292322E+01	1.1440313725E+02	4.1800000000E+00	0.000E+00	0.0
	5	1	9	9	501	0	-3.3380559392E+01	-6.6047412991E+01	-1.2573278445E+01	7.5180331463E+01	4.1800000000E+00	0.000E+00	0.0
</event>
<event>
    11  -1  1.0000000E+00  1.0000000E+00  -1.0000000E+00  -1.0000000E+00
	2212	-1	0	0	0	0	0.0000000000E+00	0.0000000000E+00	6.5000000000E+03	6.5000000000E+03	9.3827000000E-01	0.000E+00	0.0
	2212	-1	0	0	0	0	0.0000000000E+00	0.0000000000E+00	-6.5000000000E+03	6.5000000000E+03	9.3827000000E-01	0.000E+00	0.0
	2212	1	0	0	0	0	0.0000000000E+00	0.0000000000E+00	6.0969322711E+03	6.0969322711E+03	9.3827000000E-01	0.000E+00	0.0
	2212	1	0	0	0	0	0.0000000000E+00	0.0000000000E+00	-5.8003649724E+03	5.8003649724E+03	9.3827000000E-01	0.000E+00	0.0
	51	2	1	2	0	0	-1.2422294579E+02	-4.4955770395E+01	-3.0036201034E+02	1.1116073521E+03	1.0620740117E+03	0.000E+00	0.0
	1000022	2	5	5	0	0	1.2422294579E+02	4.4955770395E+01	-2.4422948987E+02	9.1330419762E+02	8.7007134886E+02	0.000E+00	0.0
	14	1	6	6	0	0	-1.5164869945E+02	2.1753563712E+02	-9.8575848291E+01	4.3088429924E+02	3.2500000000E+02	0.000E+00	0.0
	-14	1	6	6	0	0	2.7587164524E+02	-1.7257986673E+02	-1.4565364158E+02	4.8241989838E+02	3.2500000000E+02	0.000E+00	0.0
	25	2	5	5	0	0	-1.2422294579E+02	-4.4955770395E+01	-5.2337808832E+01	1.8939855880E+02	1.2522063045E+02	0.000E+00	0.0
	-5	1	9	9	0	501	-1.0617880415E+02	-2.6964057689E+01	-9.1292206532E+01	1.4266302335E+02	4.1800000000E+00	0.000E+00	0.0
	5	1	9	9	501	0	-1.8044141639E+01	-1.7991712706E+01	3.8954397701E+01	4.6735535450E+01	4.1800000000E+00	0.000E+00	0.0
</event>
<event>
    11  -1  1.0000000E+00  1.0000000E+00  -1.0000000E+00  -1.0000000E+00
	2212	-1	0	0	0	0	0.0000000000E+00	0.0000000000E+00	6.5000000000E+03	6.5000000000E+03	9.3827000000E-01	0.000E+00	0.0
	2212	-1	0	0	0	0	0.0000000000E+00	0.0000000000E+00	-6.5000000000E+03	6.5000000000E+03	9.3827000000E-01	0.000E+00	0.0
	2212	1	0	0	0	0	0.0000000000E+00	0.0000000000E+00	5.2785217215E+03	5.2785217215E+03	9.3827000000E-01	0.000E+00	0.0
	2212	1	0	0	0	0	0.0000000000E+00	0.0000000000E+00	-6.2786133055E+03	6.2786133055E+03	9.3827000000E-01	0.000E+00	0.0
	51	2	1	2	0	0	8.4147396253E+01	-5.7556293546E+01	1.1082502979E+03	1.5232492862E+03	1.0400366119E+03	0.000E+00	0.0
	1000022	2	5	5	0	0	-8.4147396253E+01	5.7556293546E+01	7.2887245305E+02	1.1272280410E+03	8.5381174299E+02	0.000E+00	0.0
	14	1	6	6	0	0	-8.8010844343E+01	-1.2379680868E+02	6.5641084514E+02	7.4804529019E+02	3.2500000000E+02	0.000E+00	0.0
	-14	1	6	6	0	0	3.8634480900E+00	1.8135310222E+02	7.2461607910E+01	3.7918275084E+02	3.2500000000E+02	0.000E+00	0.0
	25	2	5	5	0	0	8.4147396253E+01	-5.7556293546E+01	2.7121913089E+02	3.1563693198E+02	1.2519322924E+02	0.000E+00	0.0
	-5	1	9	9	0	501	8.6594222556E+01	9.3703934194E+00	1.0565715323E+02	1.3699368629E+02	4.1800000000E+00	0.000E+00	0.0
	5	1	9	9	501	0	-2.4468263029E+00	-6.6926686966E+01	1.6556197765E+02	1.7864324569E+02	4.1800000000E+00	0.000E+00	0.0
</event>
<event>
    11  -1  1.0000000E+00  1.0000000E+00  -1.0000000E+00  -1.0000000E+00
	2212	-1	0	0	0	0	0.0000000000E+00	0.0000000000E+00	6.5000000000E+03	6.5000000000E+03	9.3827000000E-01	0.000E+00	0.0
	2212	-1	0	0	0	0	0.0000000000E+00	0.0000000000E+00	-6.5000000000E+03	6.5000000000E+03	9.3827000000E-01	0.000E+00	0.0
	2212	1	0	0	0	0	0.0000000000E+00	0.0000000000E+00	5.2802385609E+03	5.2802385609E+03	9.3827000000E-01	0.000E+00	0.0
	2212	1	0	0	0	0	0.0000000000E+00	0.0000000000E+00	-6.2698427034E+03	6.2698427034E+03	9.3827000000E-01	0.000E+00	0.0
	51	2	1	2	0	0	-1.5722774825E+02	4.5456285047E+01	1.0229470240E+03	1.4819431278E+03	1.0596923994E+03	0.000E+00	0.0
	1000022	2	5	5	0	0	1.5722774825E+02	-4.5456285047E+01	7.7512523905E+02	1.1525028597E+03	8.3705248746E+02	0.000E+00	0.0
	14	1	6	6	0	0	-1.1016355623E+02	-1.4407539896E+02	1.7081123589E+02	4.0950605369E+02	3.2500000000E+02	0.000E+00	0.0
	-14	1	6	6	0	0	2.6739130448E+02	9.8619113909E+01	6.0431400317E+02	7.4299680602E+02	3.2500000000E+02	0.000E+00	0.0
	25	2	5	5	0	0	-1.5722774825E+02	4.5456285047E+01	2.1447890344E+02	2.9741587602E+02	1.2517253938E+02	0.000E+00	0.0
	-5	1	9	9	0	501	-1.0867387124E+02	5.2394146010E+00	4.7329103683E+01	1.1872227344E+02	4.1800000000E+00	0.000E+00	0.0
	5	1	9	9	501	0	-4.8553877010E+01	4.0216870446E+01	1.6714979976E+02	1.7869360257E+02	4.1800000000E+00	0.000E+00	0.0
</event>
<event>
    11  -1  1.0000000E+00  1.0000000E+00  -1.0000000E+00  -1.0000000E+00
	2212	-1	0	0	0	0	0.0000000000E+00	0.0000000000E+00	6.5000000000E+03	6.5000000000E+03	9.3827000000E-01	0.000E+00	0.0
	2212	-1	0	0	0	0	0.0000000000E+00	0.0000000000E+00	-6.5000000000E+03	6.5000000000E+03	9.3827000000E-01	0.000E+00	0.0
	2212	1	0	0	0	0	0.0000000000E+00	0.0000000000E+00	5.5184674694E+03	5.5184674694E+03	9.3827000000E-01	0.000E+00	0.0
	2212	1	0	0	0	0	0.0000000000E+00	0.0000000000E+00	-6.2178620902E+03	6.2178620902E+03	9.3827000000E-01	0.000E+00	0.0
	51	2	1	2	0	0	1.3386104118E+02	2.2077056350E+01	7.7668958293E+02	1.3150524816E+03	1.0524780979E+03	0.000E+00	0.0
	1000022	2	5	5	0	0	-1.3386104118E+02	-2.2077056350E+01	5.0024905458E+02	9.9212798935E+02	8.4596847216E+02	0.000E+00	0.0
	14	1	6	6	0	0	-1.5175579496E+02	2.1850796773E+02	1.2007594103E+02	4.3682809534E+02	3.2500000000E+02	0.000E+00	0.0
	-14	1	6	6	0	0	1.7894753778E+01	-2.4058502408E+02	3.8017311355E+02	5.5529989401E+02	3.2500000000E+02	0.000E+00	0.0
	25	2	5	5	0	0	1.3386104118E+02	2.2077056350E+01	1.9914556614E+02	2.7154245107E+02	1.2518055542E+02	0.000E+00	0.0
	-5	1	9	9	0	501	1.2168591564E+02	5.8940810107E+01	1.8670951305E+02	2.3056321438E+02	4.1800000000E+00	0.000E+00	0.0
	5	1	9	9	501	0	1.2175125539E+01	-3.6863753757E+01	1.2436053090E+01	4.0979236686E+01	4.1800000000E+00	0.000E+00	0.0
</event>
<event>
    11  -1  1.0000000E+00  1.0000000E+00  -1.0000000E+00  -1.0000000E+00
	2212	-1	0	0	0	0	0.0000000000E+00	0.0000000000E+00	6.5000000000E+03	6.5000000000E+03	9.3827000000E-01	0.000E+00	0.0
	2212	-1	0	0	0	0	0.0000000000E+00	0.0000000000E+00	-6.5000000000E+03	6.5000000000E+03	9.3827000000E-01	0.000E+00	0.0
	2212	1	0	0	0	0	0.0000000000E+00	0.0000000000E+00	6.2818629649E+03	6.2818629649E+03	9.3827000000E-01	0.000E+00	0.0
	2212	1	0	0	0	0	0.0000000000E+00	0.0000000000E+00	-5.2321125449E+03	5.2321125449E+03	9.3827000000E-01	0.000E+00	0.0
	51	2	1	2	0	0	2.2077358123E+01	3.8193348795E+01	-8.6932321312E+02	1.3652698751E+03	1.0518045642E+03	0.000E+00	0.0
	1000022	2	5	5	0	0	-2.2077358123E+01	-3.8193348795E+01	-1.0511119578E+03	1.3532941202E+03	8.5124760576E+02	0.000E+00	0.0
	14	1	6	6	0	0	-1.9100712764E+02	1.8533975337E+02	-4.6128737069E+02	6.2389549233E+02	3.2500000000E+02	0.000E+00	0.0
	-14	1	6	6	0	0	1.6892976951E+02	-2.2353310216E+02	-5.8982458709E+02	7.2939862786E+02	3.2500000000E+02	0.000E+00	0.0
	25	2	5	5	0	0	2.2077358123E+01	3.8193348795E+01	1.3615377498E+00	1.3273037007E+02	1.2517729714E+02	0.000E+00	0.0
	-5	1	9	9	0	501	4.2226120468E+01	-1.9337910009E+01	-3.7910427538E+01	6.0097195687E+01	4.1800000000E+00	0.000E+00	0.0
	5	1	9	9	501	0	-2.0148762345E+01	5.7531258804E+01	3.9271965288E+01	7.2633174385E+01	4.1800000000E+00	0.000E+00	0.0
</event>
<event>
    11  -1  1.0000000E+00  1.0000000E+00  -1.0000000E+00  -1.0000000E+00
	2212	-1	0	0	0	0	0.0000000000E+00	0.0000000000E+00	6.5000000000E+03	6.5000000000E+03	9.3827000000E-01	0.000E+00	0.0
	2212	-1	0	0	0	0	0.0000000000E+00	0.0000000000E+00	-6.5000000000E+03	6.5000000000E+03	9.3827000000E-01	0.000E+00	0.0
	2212	1	0	0	0	0	0.0000000000E+00	0.0000000000E+00	5.0932069060E+03	5.0932069060E+03	9.3827000000E-01	0.000E+00	0.0
	2212	1	0	0	0	0	0.0000000000E+00	0.0000000000E+00	-6.3037464770E+03	6.3037464770E+03	9.3827000000E-01	0.000E+00	0.0
	51	2	1	2	0	0	-6.9121630656E+01	1.1314386831E+02	1.1135385702E+03	1.5368473853E+03	1.0508817267E+03	0.000E+00	0.0
	1000022	2	5	5	0	0	6.9121630656E+01	-1.1314386831E+02	1.0942287834E+03	1.3867695474E+03	8.4155440252E+02	0.000E+00	0.0
	14	1	6	6	0	0	-7.7595784649E+00	-3.2229538266E+02	5.7731643787E+02	7.3678612512E+02	3.2500000000E+02	0.000E+00	0.0
	-14	1	6	6	0	0	7.6881209120E+01	2.0915151434E+02	5.1691234554E+02	6.4998342228E+02	3.2500000000E+02	0.000E+00	0.0
	25	2	5	5	0	0	-6.9121630656E+01	1.1314386831E+02	1.1631078760E+02	2.1627706968E+02	1.2517282771E+02	0.000E+00	0.0
	-5	1	9	9	0	501	-6.0174716469E+01	-5.9646487298E+00	2.3717696150E+01	6.5088977925E+01	4.1800000000E+00	0.000E+00	0.0
	5	1	9	9	501	0	-8.9469141862E+00	1.1910851704E+02	9.2593091450E+01	1.5118809176E+02	4.1800000000E+00	0.000E+00	0.0
</event>
<event>
    11  -1  1.0000000E+00  1.0000000E+00  -1.0000000E+00  -1.0000000E+00
	2212	-1	0	0	0	0	0.0000000000E+00	0.0000000000E+00	6.5000000000E+03	6.5000000000E+03	9.3827000000E-01	0.000E+00	0.0
	2212	-1	0	0	0	0	0.0000000000E+00	0.0000000000E+00	-6.5000000000E+03	6.5000000000E+03	9.3827000000E-01	0.000E+00	0.0
	2212	1	0	0	0	0	0.0000000000E+00	0.0000000000E+00	5.7900892059E+03	5.7900892059E+03	9.3827000000E-01	0.000E+00	0.0
	2212	1	0	0	0	0	0.0000000000E+00	0.0000000000E+00	-6.1156705826E+03	6.1156705826E+03	9.3827000000E-01	0.000E+00	0.0
	51	2	1	2	0	0	5.4732364748E+01	-8.4511081890E+01	4.2121515984E+02	1.1308927328E+03	1.0446810076E+03	0.000E+00	0.0
	1000022	2	5	5	0	0	-5.4732364748E+01	8.4511081890E+01	1.7541064580E+02	8.7429550736E+02	8.5057979333E+02	0.000E+00	0.0
	14	1	6	6	0	0	2.3350398914E+02	-4.0815598347E+01	1.1341816098E+02	4.1794581617E+02	3.2500000000E+02	0.000E+00	0.0
	-14	1	6	6	0	0	-2.8823635389E+02	1.2532668024E+02	6.1992484821E+01	4.5634969120E+02	3.2500000000E+02	0.000E+00	0.0
	25	2	5	5	0	0	5.4732364748E+01	-8.4511081890E+01	1.5017073088E+02	2.1994470410E+02	1.2524643602E+02	0.000E+00	0.0
	-5	1	9	9	0	501	1.7654837241E+01	3.2334118146E+01	2.5151732266E+01	4.4802572586E+01	4.1800000000E+00	0.000E+00	0.0
	5	1	9	9	501	0	3.7077527506E+01	-1.1684520004E+02	1.2501899861E+02	1.7514213151E+02	4.1800000000E+00	0.000E+00	0.0
</event>
<event>
    11  -1  1.0000000E+00  1.0000000E+00  -1.0000000E+00  -1.0000000E+00
	2212	-1	0	0	0	0	0.0000000000E+00	0.0000000000E+00	6.5000000000E+03	6.5000000000E+03	9.3827000000E-01	0.000E+00	0.0
	2212	-1	0	0	0	0	0.0000000000E+00	0.0000000000E+00	-6.5000000000E+03	6.5000000000E+03	9.3827000000E-01	0.000E+00	0.0
	2212	1	0	0	0	0	0.0000000000E+00	0.0000000000E+00	6.2830632078E+03	6.2830632078E+03	9.3827000000E-01	0.000E+00	0.0
	2212	1	0	0	0	0	0.0000000000E+00	0.0000000000E+00	-5.2141247542E+03	5.2141247542E+03	9.3827000000E-01	0.000E+00	0.0
	51	2	1	2	0	0	-5.4244474417E+01	-2.3456634692E+01	-1.2735202494E+03	1.6556452235E+03	1.0563212597E+03	0.000E+00	0.0
	1000022	2	5	5	0	0	5.4244474417E+01	2.3456634692E+01	-6.7822817983E+02	1.0883023111E+03	8.4906759426E+02	0.000E+00	0.0
	14	1	6	6	0	0	2.0060677022E+02	4.6242807645E+01	-6.1524745063E+02	7.2562793429E+02	3.2500000000E+02	0.000E+00	0.0
	-14	1	6	6	0	0	-1.4636229581E+02	-2.2786172953E+01	-6.2980729196E+01	3.6267437676E+02	3.2500000000E+02	0.000E+00	0.0
	25	2	5	5	0	0	-5.4244474417E+01	-2.3456634692E+01	-3.9071027386E+02	4.1450972693E+02	1.2518433972E+02	0.000E+00	0.0
	-5	1	9	9	0	501	2.5386156515E+00	-6.1353676812E+01	-2.5765899416E+02	2.6490818768E+02	4.1800000000E+00	0.000E+00	0.0
	5	1	9	9	501	0	-5.6783090068E+01	3.7897042120E+01	-1.3305127970E+02	1.4960153926E+02	4.1800000000E+00	0.000E+00	0.0
</event>
<event>
    11  -1  1.0000000E+00  1.0000000E+00  -1.0000000E+00  -1.0000000E+00
	2212	-1	0	0	0	0	0.0000000000E+00	0.0000000000E+00	6.5000000000E+03	6.5000000000E+03	9.3827000000E-01	0.000E+00	0.0
	2212	-1	0	0	0	0	0.0000000000E+00	0.0000000000E+00	-6.5000000000E+03	6.5000000000E+03	9.3827000000E-01	0.000E+00	0.0
	2212	1	0	0	0	0	0.0000000000E+00	0.0000000000E+00	6.2631689860E+03	6.2631689860E+03	9.3827000000E-01	0.000E+00	0.0
	2212	1	0	0	0	0	0.0000000000E+00	0.0000000000E+00	-5.3011747718E+03	5.3011747718E+03	9.3827000000E-01	0.000E+00	0.0
	51	2	1	2	0	0	1.2271618700E+02	9.3611427551E+01	-1.0019310635E+03	1.4708379229E+03	1.0656809924E+03	0.000E+00	0.0
	1000022	2	5	5	0	0	-1.2271618700E+02	-9.3611427551E+01	-7.5180005766E+02	1.1463867901E+03	8.5157324045E+02	0.000E+00	0.0
	14	1	6	6	0	0	-2.9836472508E+02	1.9875363499E+01	-2.3260360583E+02	4.9914524609E+02	3.2500000000E+02	0.000E+00	0.0
	-14	1	6	6	0	0	1.7564853808E+02	-1.1348679105E+02	-5.1919645183E+02	6.4724154399E+02	3.2500000000E+02	0.000E+00	0.0
	25	2	5	5	0	0	1.2271618700E+02	9.3611427551E+01	-2.1019415656E+02	2.8926945211E+02	1.2519133576E+02	0.000E+00	0.0
	-5	1	9	9	0	501	8.4401177017E+00	7.6746008395E+01	-1.1955696489E+02	1.4238161976E+02	4.1800000000E+00	0.000E+00	0.0
	5	1	9	9	501	0	1.1427606930E+02	1.6865419156E+01	-9.0637191666E+01	1.4688783235E+02	4.1800000000E+00	0.000E+00	0.0
</event>
<event>
    11  -1  1.0000000E+00  1.0000000E+00  -1.0000000E+00  -1.0000000E+00
	2212	-1	0	0	0	0	0.0000000000E+00	0.0000000000E+00	6.5000000000E+03	6.5000000000E+03	9.3827000000E-01	0.000E+00	0.0
	2212	-1	0	0	0	0	0.0000000000E+00	0.0000000000E+00	-6.5000000000E+03	6.5000000000E+03	9.3827000000E-01	0.000E+00	0.0
	2212	1	0	0	0	0	0.0000000000E+00	0.0000000000E+00	5.4127894616E+03	5.4127894616E+03	9.3827000000E-01	0.000E+00	0.0
	2212	1	0	0	0	0	0.0000000000E+00	0.0000000000E+00	-6.2427311066E+03	6.2427311066E+03	9.3827000000E-01	0.000E+00	0.0
	51	2	1	2	0	0	1.1649439780E+02	-8.7625159739E+01	7.7848212919E+02	1.3214027952E+03	1.0577437347E+03	0.000E+00	0.0
	1000022	2	5	5	0	0	-1.1649439780E+02	8.7625159739E+01	7.3480735952E+02	1.1300787084E+03	8.4610100952E+02	0.000E+00	0.0
	14	1	6	6	0	0	1.6254216748E+02	-1.1808436567E+02	2.9679235112E+02	4.8381253943E+02	3.2500000000E+02	0.000E+00	0.0
	-14	1	6	6	0	0	-2.7903656528E+02	2.0570952541E+02	4.3801500840E+02	6.4626616900E+02	3.2500000000E+02	0.000E+00	0.0
	25	2	5	5	0	0	1.1649439780E+02	-8.7625159739E+01	9.5134285515E+01	2.1440072332E+02	1.2517197986E+02	0.000E+00	0.0
	-5	1	9	9	0	501	7.4610573334E+01	-7.6810505840E+01	1.2272141083E+02	1.6292516238E+02	4.1800000000E+00	0.000E+00	0.0
	5	1	9	9	501	0	4.1883824471E+01	-1.0814653900E+01	-2.7587125315E+01	5.1475560943E+01	4.1800000000E+00	0.000E+00	0.0
</event>
<event>
    11  -1  1.0000000E+00  1.0000000E+00  -1.0000000E+00  -1.0000000E+00
	2212	-1	0	0	0	0	0.0000000000E+00	0.0000000000E+00	6.5000000000E+03	6.5000000000E+03	9.3827000000E-01	0.000E+00	0.0
	2212	-1	0	0	0	0	0.0000000000E+00	0.0000000000E+00	-6.5000000000E+03	6.5000000000E+03	9.3827000000E-01	0.000E+00	0.0
	2212	1	0	0	0	0	0.0000000000E+00	0.0000000000E+00	4.8764296124E+03	4.8764296124E+03	9.3827000000E-01	0.000E+00	0.0
	2212	1	0	0	0	0	0.0000000000E+00	0.0000000000E+00	-6.3311392559E+03	6.3311392559E+03	9.3827000000E-01	0.000E+00	0.0
	51	2	1	2	0	0	-1.1976606530E+02	1.6340915027E+02	1.3369701214E+03	1.7103113112E+03	1.0472006564E+03	0.000E+00	0.0
	1000022	2	5	5	0	0	1.1976606530E+02	-1.6340915027E+02	1.2519656894E+03	1.4796648919E+03	7.6219659149E+02	0.000E+00	0.0
	14	1	6	6	0	0	1.0880516361E+02	-2.3419537708E+02	9.2141652656E+02	1.0106035096E+03	3.2500000000E+02	0.000E+00	0.0
	-14	1	6	6	0	0	1.0960901694E+01	7.0786226814E+01	3.3054916285E+02	4.6906138227E+02	3.2500000000E+02	0.000E+00	0.0
	25	2	5	5	0	0	-1.1976606530E+02	1.6340915027E+02	2.0274395409E+02	3.1276623973E+02	1.2518445993E+02	0.000E+00	0.0
	-5	1	9	9	0	501	-1.3961796903E+02	1.0218825946E+02	1.3767955010E+02	2.2115322417E+02	4.1800000000E+00	0.000E+00	0.0
	5	1	9	9	501	0	1.9851903730E+01	6.1220890812E+01	6.5064403988E+01	9.1613015559E+01	4.1800000000E+00	0.000E+00	0.0
</event>
<event>
    11  -1  1.0000000E+00  1.0000000E+00  -1.0000000E+00  -1.0000000E+00
	2212	-1	0	0	0	0	0.0000000000E+00	0.0000000000E+00	6.5000000000E+03	6.5000000000E+03	9.3827000000E-01	0.000E+00	0.0
	2212	-1	0	0	0	0	0.0000000000E+00	0.0000000000E+00	-6.5000000000E+03	6.5000000000E+03	9.3827000000E-01	0.000E+00	0.0
	2212	1	0	0	0	0	0.0000000000E+00	0.0000000000E+00	6.2494081976E+03	6.2494081976E+03	9.3827000000E-01	0.000E+00	0.0
	2212	1	0	0	0	0	0.0000000000E+00	0.0000000000E+00	-5.3825115462E+03	5.3825115462E+03	9.3827000000E-01	0.000E+00	0.0
	51	2	1	2	0	0	-1.2458477153E+02	2.2267505229E+01	-8.5706171977E+02	1.3677374681E+03	1.0583637291E+03	0.000E+00	0.0
	1000022	2	5	5	0	0	1.2458477153E+02	-2.2267505229E+01	-7.3680355803E+02	1.1475976805E+03	8.7068004799E+02	0.000E+00	0.0
	14	1	6	6	0	0	-2.2329215660E+02	-3.9910857124E+01	-4.0760755184E+02	5.6852544361E+02	3.2500000000E+02	0.000E+00	0.0
	-14	1	6	6	0	0	3.4787692814E+02	1.7643351895E+01	-3.2919600619E+02	5.7907223685E+02	3.2500000000E+02	0.000E+00	0.0
	25	2	5	5	0	0	-1.2458477153E+02	2.2267505229E+01	-1.3009309343E+02	2.2048257571E+02	1.2518444851E+02	0.000E+00	0.0
	-5	1	9	9	0	501	-1.0549821907E+02	6.7861901110E+01	-1.1025169058E+02	1.6705693498E+02	4.1800000000E+00	0.000E+00	0.0
	5	1	9	9	501	0	-1.9086552464E+01	-4.5594395881E+01	-1.9841402841E+01	5.3425640730E+01	4.1800000000E+00	0.000E+00	0.0
</event>
<event>
    11  -1  1.0000000E+00  1.0000000E+00  -1.0000000E+00  -1.0000000E+00
	2212	-1	0	0	0	0	0.0000000000E+00	0.0000000000E+00	6.5000000000E+03	6.5000000000E+03	9.3827000000E-01	0.000E+00	0.0
	2212	-1	0	0	0	0	0.0000000000E+00	0.0000000000E+00	-6.5000000000E+03	6.5000000000E+03	9.3827000000E-01	0.000E+00	0.0
	2212	1	0	0	0	0	0.0000000000E+00	0.0000000000E+00	5.2761166766E+03	5.2761166766E+03	9.3827000000E-01	0.000E+00	0.0
	2212	1	0	0	0	0	0.0000000000E+00	0.0000000000E+00	-6.2334144343E+03	6.2334144343E+03	9.3827000000E-01	0.000E+00	0.0
	51	2	1	2	0	0	-9.4065227694E+01	2.0852413314E+02	9.9188113660E+02	1.5301102192E+03	1.1424003294E+03	0.000E+00	0.0
	1000022	2	5	5	0	0	9.4065227694E+01	-2.0852413314E+02	7.2302150347E+02	1.1399148721E+03	8.5106711833E+02	0.000E+00	0.0
	14	1	6	6	0	0	-1.4502542932E+02	-1.2441278040E+02	9.5104398667E+01	3.8881970336E+02	3.2500000000E+02	0.000E+00	0.0
	-14	1	6	6	0	0	2.3909065702E+02	-8.4111352735E+01	6.2791710480E+02	7.5109516869E+02	3.2500000000E+02	0.000E+00	0.0
	25	2	5	5	0	0	-9.4065227694E+01	2.0852413314E+02	2.3427625426E+02	3.5055401709E+02	1.2518855548E+02	0.000E+00	0.0
	-5	1	9	9	0	501	1.8950701959E+00	1.2220243705E+02	1.6065461030E+02	2.0190196414E+02	4.1800000000E+00	0.000E+00	0.0
	5	1	9	9	501	0	-9.5960297890E+01	8.6321696086E+01	7.3621643965E+01	1.4865205295E+02	4.1800000000E+00	0.000E+00	0.0
</event>
<event>
    11  -1  1.0000000E+00  1.0000000E+00  -1.0000000E+00  -1.0000000E+00
	2212	-1	0	0	0	0	0.0000000000E+00	0.0000000000E+00	6.5000000000E+03	6.5000000000E+03	9.3827000000E-01	0.000E+00	0.0
	2212	-1	0	0	0	0	0.0000000000E+00	0.0000000000E+00	-6.5000000000E+03	6.5000000000E+03	9.3827000000E-01	0.000E+00	0.0
	2212	1	0	0	0	0	0.0000000000E+00	0.0000000000E+00	4.9557867601E+03	4.9557867601E+03	9.3827000000E-01	0.000E+00	0.0
	2212	1	0	0	0	0	0.0000000000E+00	0.0000000000E+00	-6.3227129859E+03	6.3227129859E+03	9.3827000000E-01	0.000E+00	0.0
	51	2	1	2	0	0	9.9042411388E+01	5.9125542810E+01	1.5068520484E+03	1.8382013336E+03	1.0464587034E+03	0.000E+00	0.0
	1000022	2	5	5	0	0	-9.9042411388E+01	-5.9125542810E+01	9.9457653833E+02	1.3120856872E+03	8.4798651575E+02	0.000E+00	0.0
	14	1	6	6	0	0	6.3549174666E+01	-9.5069353868E+01	1.2084189736E+02	3.6510881091E+02	3.2500000000E+02	0.000E+00	0.0
	-14	1	6	6	0	0	-1.6259158605E+02	3.5943811058E+01	8.7373464097E+02	9.4697687629E+02	3.2500000000E+02	0.000E+00	0.0
	25	2	5	5	0	0	9.9042411388E+01	5.9125542810E+01	3.7234968751E+02	4.0941456685E+02	1.2518294092E+02	0.000E+00	0.0
	-5	1	9	9	0	501	9.3132742487E+01	7.9139426240E-01	3.1003943855E+02	3.2375339362E+02	4.1800000000E+00	0.000E+00	0.0
	5	1	9	9	501	0	5.9096689003E+00	5.8334148548E+01	6.2310248957E+01	8.5661173225E+01	4.1800000000E+00	0.000E+00	0.0
</event>
<event>
    11  -1  1.0000000E+00  1.0000000E+00  -1.0000000E+00  -1.0000000E+00
	2212	-1	0	0	0	0	0.0000000000E+00	0.0000000000E+00	6.5000000000E+03	6.5000000000E+03	9.3827000000E-01	0.000E+00	0.0
	2212	-1	0	0	0	0	0.0000000000E+00	0.0000000000E+00	-6.5000000000E+03	6.5000000000E+03	9.3827000000E-01	0.000E+00	0.0
	2212	1	0	0	0	0	0.0000000000E+00	0.0000000000E+00	6.1943686848E+03	6.1943686848E+03	9.3827000000E-01	0.000E+00	0.0
	2212	1	0	0	0	0	0.0000000000E+00	0.0000000000E+00	-5.5720969568E+03	5.5720969568E+03	9.3827000000E-01	0.000E+00	0.0
	51	2	1	2	0	0	4.2309894101E+01	-1.0644787046E+02	-8.0502589109E+02	1.3399898773E+03	1.0650750724E+03	0.000E+00	0.0
	1000022	2	5	5	0	0	-4.2309894101E+01	1.0644787046E+02	-3.1706206037E+02	8.8433428677E+02	8.1755581116E+02	0.000E+00	0.0
	14	1	6	6	0	0	-3.4539130844E+00	2.6510728607E+02	-2.9153212318E+01	4.2043871424E+02	3.2500000000E+02	0.000E+00	0.0
	-14	1	6	6	0	0	-3.8855981016E+01	-1.5865941561E+02	-2.8790884805E+02	4.6389557253E+02	3.2500000000E+02	0.000E+00	0.0
	25	2	5	5	0	0	4.2309894101E+01	-1.0644787046E+02	-3.0520966763E+02	3.4920007160E+02	1.2516578016E+02	0.000E+00	0.0
	-5	1	9	9	0	501	6.2620666115E+01	-1.1979291492E+02	-2.9062703107E+02	3.2055145277E+02	4.1800000000E+00	0.000E+00	0.0
	5	1	9	9	501	0	-2.0310772015E+01	1.3345044455E+01	-1.4582636565E+01	2.8648618824E+01	4.1800000000E+00	0.000E+00	0.0
</event>
<event>
    11  -1  1.0000000E+00  1.0000000E+00  -1.0000000E+00  -1.0000000E+00
	2212	-1	0	0	0	0	0.0000000000E+00	0.0000000000E+00	6.5000000000E+03	6.5000000000E+03	9.3827000000E-01	0.000E+00	0.0
	2212	-1	0	0	0	0	0.0000000000E+00	0.0000000000E+00	-6.5000000000E+03	6.5000000000E+03	9.3827000000E-01	0.000E+00	0.0
	2212	1	0	0	0	0	0.0000000000E+00	0.0000000000E+00	4.6476274880E+03	4.6476274880E+03	9.3827000000E-01	0.000E+00	0.0
	2212	1	0	0	0	0	0.0000000000E+00	0.0000000000E+00	-3.2579536382E+03	3.2579536382E+03	9.3827000000E-01	0.000E+00	0.0
	51	2	1	2	0	0	-1.9192724948E+03	1.3905228593E+03	-1.3571818102E+03	5.6107943688E+03	4.9012151812E+03	0.000E+00	0.0
	1000022	2	5	5	0	0	1.9192724948E+03	-1.3905228593E+03	-9.0209034231E+02	2.6714933753E+03	8.4020779386E+02	0.000E+00	0.0
	14	1	6	6	0	0	1.3798516735E+03	-9.1267520973E+02	-8.2555336392E+02	1.8772666396E+03	3.2500000000E+02	0.000E+00	0.0
	-14	1	6	6	0	0	5.3942082126E+02	-4.7784764957E+02	-7.6536978393E+01	7.9422673568E+02	3.2500000000E+02	0.000E+00	0.0
	25	2	5	5	0	0	-1.9192724948E+03	1.3905228593E+03	-4.8758350749E+02	2.4229254985E+03	1.2517812438E+02	0.000E+00	0.0
	-5	1	9	9	0	501	-5.5125542047E+02	3.5618647538E+02	-1.7958146182E+02	6.8045449346E+02	4.1800000000E+00	0.000E+00	0.0
	5	1	9	9	501	0	-1.3680170743E+03	1.0343363839E+03	-3.0800204567E+02	1.7424710050E+03	4.1799999999E+00	0.000E+00	0.0
</event>
<event>
    11  -1  1.0000000E+00  1.0000000E+00  -1.0000000E+00  -1.0000000E+00
	2212	-1	0	0	0	0	0.0000000000E+00	0.0000000000E+00	6.5000000000E+03	6.5000000000E+03	9.3827000000E-01	0.000E+00	0.0
	2212	-1	0	0	0	0	0.0000000000E+00	0.0000000000E+00	-6.5000000000E+03	6.5000000000E+03	9.3827000000E-01	0.000E+00	0.0
	2212	1	0	0	0	0	0.0000000000E+00	0.0000000000E+00	5.2298883986E+03	5.2298883986E+03	9.3827000000E-01	0.000E+00	0.0
	2212	1	0	0	0	0	0.0000000000E+00	0.0000000000E+00	-6.2814343969E+03	6.2814343969E+03	9.3827000000E-01	0.000E+00	0.0
	51	2	1	2	0	0	-1.0966943039E+02	9.8045005096E+00	9.0506464301E+02	1.3934404733E+03	1.0537603297E+03	0.000E+00	0.0
	1000022	2	5	5	0	0	1.0966943039E+02	-9.8045005096E+00	1.0092075061E+03	1.3166010427E+03	8.3834062477E+02	0.000E+00	0.0
	14	1	6	6	0	0	4.3773494616E+01	2.2130280271E+02	7.1328462376E+02	8.1565372788E+02	3.2500000000E+02	0.000E+00	0.0
	-14	1	6	6	0	0	6.5895935777E+01	-2.3110730322E+02	2.9592288231E+02	5.0094731482E+02	3.2500000000E+02	0.000E+00	0.0
	25	2	5	5	0	0	-1.0966943039E+02	9.8045005096E+00	4.2338492242E+01	1.7207616174E+02	1.2527627597E+02	0.000E+00	0.0
	-5	1	9	9	0	501	-1.0625780728E+01	-4.0166125714E+01	-1.8287233073E+01	4.5586403284E+01	4.1800000000E+00	0.000E+00	0.0
	5	1	9	9	501	0	-9.9043649665E+01	4.9970626224E+01	6.0625725315E+01	1.2648975846E+02	4.1800000000E+00	0.000E+00	0.0
</event>
<event>
    11  -1  1.0000000E+00  1.0000000E+00  -1.0000000E+00  -1.0000000E+00
	2212	-1	0	0	0	0	0.0000000000E+00	0.0000000000E+00	6.5000000000E+03	6.5000000000E+03	9.3827000000E-01	0.000E+00	0.0
	2212	-1	0	0	0	0	0.0000000000E+00	0.0000000000E+00	-6.5000000000E+03	6.5000000000E+03	9.3827000000E-01	0.000E+00	0.0
	2212	1	0	0	0	0	0.0000000000E+00	0.0000000000E+00	6.1205626013E+03	6.1205626013E+03	9.3827000000E-01	0.000E+00	0.0
	2212	1	0	0	0	0	0.0000000000E+00	0.0000000000E+00	-5.7920388008E+03	5.7920388008E+03	9.3827000000E-01	0.000E+00	0.0
	51	2	1	2	0	0	6.6339785012E+01	-1.0571147433E+02	-2.8588834124E+02	1.0825044340E+03	1.0365846918E+03	0.000E+00	0.0
	1000022	2	5	5	0	0	-6.6339785012E+01	1.0571147433E+02	-3.1614714546E+02	9.1020520574E+02	8.4436284624E+02	0.000E+00	0.0
	14	1	6	6	0	0	2.4880668102E+00	-1.9677514175E+02	-2.5308449463E+02	4.5651222143E+02	3.2500000000E+02	0.000E+00	0.0
	-14	1	6	6	0	0	-6.8827851822E+01	3.0248661608E+02	-6.3062650826E+01	4.5369298432E+02	3.2500000000E+02	0.000E+00	0.0
	25	2	5	5	0	0	6.6339785012E+01	-1.0571147433E+02	-1.2376655017E+01	1.7719339213E+02	1.2517361441E+02	0.000E+00	0.0
	-5	1	9	9	0	501	5.2440970711E+01	-1.3448413635E+02	-7.5162888066E+00	1.4460292299E+02	4.1800000000E+00	0.000E+00	0.0
	5	1	9	9	501	0	1.3898814301E+01	2.8772662025E+01	-4.8603662099E+00	3.2590469139E+01	4.1800000000E+00	0.000E+00	0.0
</event>
<event>
    11  -1  1.0000000E+00  1.0000000E+00  -1.0000000E+00  -1.0000000E+00
	2212	-1	0	0	0	0	0.0000000000E+00	0.0000000000E+00	6.5000000000E+03	6.5000000000E+03	9.3827000000E-01	0.000E+00	0.0
	2212	-1	0	0	0	0	0.0000000000E+00	0.0000000000E+00	-6.5000000000E+03	6.5000000000E+03	9.3827000000E-01	0.000E+00	0.0
	2212	1	0	0	0	0	0.0000000000E+00	0.0000000000E+00	6.1377632477E+03	6.1377632477E+03	9.3827000000E-01	0.000E+00	0.0
	2212	1	0	0	0	0	0.0000000000E+00	0.0000000000E+00	-5.7254047546E+03	5.7254047546E+03	9.3827000000E-01	0.000E+00	0.0
	51	2	1	2	0	0	-7.9684920291E+01	-1.0534872458E+02	-4.5018741831E+02	1.1586475807E+03	1.0594090165E+03	0.000E+00	0.0
	1000022	2	5	5	0	0	7.9684920291E+01	1.0534872458E+02	-3.0599145799E+02	9.2606355546E+02	8.6401093517E+02	0.000E+00	0.0
	14	1	6	6	0	0	1.9105204495E+02	-3.8827653382E+01	8.2417440695E+01	3.8784804380E+02	3.2500000000E+02	0.000E+00	0.0
	-14	1	6	6	0	0	-1.1136712466E+02	1.4417637796E+02	-3.8840889868E+02	5.3821551166E+02	3.2500000000E+02	0.000E+00	0.0
	25	2	5	5	0	0	-7.9684920291E+01	-1.0534872458E+02	-1.0636703509E+02	2.1076844229E+02	1.2514531481E+02	0.000E+00	0.0
	-5	1	9	9	0	501	-6.8942998735E+01	-3.2269317547E+01	5.7380881590E+00	7.6451579351E+01	4.1800000000E+00	0.000E+00	0.0
	5	1	9	9	501	0	-1.0741921556E+01	-7.3079407032E+01	-1.1210512325E+02	1.3431686294E+02	4.1800000000E+00	0.000E+00	0.0
</event>
<event>
    11  -1  1.0000000E+00  1.0000000E+00  -1.0000000E+00  -1.0000000E+00
	2212	-1	0	0	0	0	0.0000000000E+00	0.0000000000E+00	6.5000000000E+03	6.5000000000E+03	9.3827000000E-01	0.000E+00	0.0
	2212	-1	0	0	0	0	0.0000000000E+00	0.0000000000E+00	-6.5000000000E+03	6.5000000000E+03	9.3827000000E-01	0.000E+00	0.0
	2212	1	0	0	0	0	0.0000000000E+00	0.0000000000E+00	4.9213746164E+03	4.9213746164E+03	9.3827000000E-01	0.000E+00	0.0
	2212	1	0	0	0	0	0.0000000000E+00	0.0000000000E+00	-6.3227054269E+03	6.3227054269E+03	9.3827000000E-01	0.000E+00	0.0
	51	2	1	2	0	0	5.4876923074E+01	-1.2774435498E+02	1.3124045009E+03	1.6915266847E+03	1.0580769604E+03	0.000E+00	0.0
	1000022	2	5	5	0	0	-5.4876923074E+01	1.2774435498E+02	1.2435567632E+03	1.5111884478E+03	8.4730573254E+02	0.000E+00	0.0
	14	1	6	6	0	0	1.0978417290E+02	1.1176800221E+02	1.0235632538E+03	1.0852886185E+03	3.2500000000E+02	0.000E+00	0.0
	-14	1	6	6	0	0	-1.6466109597E+02	1.5976352771E+01	2.1999350942E+02	4.2589982926E+02	3.2500000000E+02	0.000E+00	0.0
	25	2	5	5	0	0	5.4876923074E+01	-1.2774435498E+02	1.5777404728E+02	2.4473150900E+02	1.2518292451E+02	0.000E+00	0.0
	-5	1	9	9	0	501	-9.3117652013E+00	2.0542991840E+01	3.4589049656E+01	4.1504195463E+01	4.1800000000E+00	0.000E+00	0.0
	5	1	9	9	501	0	6.4188688276E+01	-1.4828734682E+02	1.2318499762E+02	2.0322731354E+02	4.1800000000E+00	0.000E+00	0.0
</event>
<event>
    11  -1  1.0000000E+00  1.0000000E+00  -1.0000000E+00  -1.0000000E+00
	2212	-1	0	0	0	0	0.0000000000E+00	0.0000000000E+00	6.5000000000E+03	6.5000000000E+03	9.3827000000E-01	0.000E+00	0.0
	2212	-1	0	0	0	0	0.0000000000E+00	0.0000000000E+00	-6.5000000000E+03	6.5000000000E+03	9.3827000000E-01	0.000E+00	0.0
	2212	1	0	0	0	0	0.0000000000E+00	0.0000000000E+00	6.1194993668E+03	6.1194993668E+03	9.3827000000E-01	0.000E+00	0.0
	2212	1	0	0	0	0	0.0000000000E+00	0.0000000000E+00	-5.7766663026E+03	5.7766663026E+03	9.3827000000E-01	0.000E+00	0.0
	51	2	1	2	0	0	1.0216524451E+02	-6.8166772214E+01	-4.5556597668E+02	1.1504523130E+03	1.0492453094E+03	0.000E+00	0.0
	1000022	2	5	5	0	0	-1.0216524451E+02	6.8166772214E+01	-1.6757640008E+02	8.5590594119E+02	8.3030637977E+02	0.000E+00	0.0
	14	1	6	6	0	0	7.0699915333E+01	-1.7277598078E+02	-1.7998422692E+02	4.1577558791E+02	3.2500000000E+02	0.000E+00	0.0
	-14	1	6	6	0	0	-1.7286515985E+02	2.4094275300E+02	1.2407826847E+01	4.4013035328E+02	3.2500000000E+02	0.000E+00	0.0
	25	2	5	5	0	0	1.0216524451E+02	-6.8166772214E+01	-1.7525666419E+02	2.4792838938E+02	1.2517644306E+02	0.000E+00	0.0
	-5	1	9	9	0	501	1.0995163153E+02	-9.5985579044E+01	-1.4995031974E+02	2.0929683096E+02	4.1800000000E+00	0.000E+00	0.0
	5	1	9	9	501	0	-7.7863870201E+00	2.7818806829E+01	-2.5306344451E+01	3.8631558417E+01	4.1800000000E+00	0.000E+00	0.0
</event>
<event>
    11  -1  1.0000000E+00  1.0000000E+00  -1.0000000E+00  -1.0000000E+00
	2212	-1	0	0	0	0	0.0000000000E+00	0.0000000000E+00	6.5000000000E+03	6.5000000000E+03	9.3827000000E-01	0.000E+00	0.0
	2212	-1	0	0	0	0	0.0000000000E+00	0.0000000000E+00	-6.5000000000E+03	6.5000000000E+03	9.3827000000E-01	0.000E+00	0.0
	2212	1	0	0	0	0	0.0000000000E+00	0.0000000000E+00	5.1396371688E+03	5.1396371688E+03	9.3827000000E-01	0.000E+00	0.0
	2212	1	0	0	0	0	0.0000000000E+00	0.0000000000E+00	-6.2973900030E+03	6.2973900030E+03	9.3827000000E-01	0.000E+00	0.0
	51	2	1	2	0	0	-6.0788686784E+01	-1.1756724446E+02	1.1048329054E+03	1.5299233663E+03	1.0499963983E+03	0.000E+00	0.0
	1000022	2	5	5	0	0	6.0788686784E+01	1.1756724446E+02	1.0145234764E+03	1.3312196515E+03	8.5168688781E+02	0.000E+00	0.0
	14	1	6	6	0	0	-1.3609900812E+01	-1.9059737518E+02	2.8768406667E+02	4.7423592340E+02	3.2500000000E+02	0.000E+00	0.0
	-14	1	6	6	0	0	7.4398587597E+01	3.0816461964E+02	7.2683940975E+02	8.5698372808E+02	3.2500000000E+02	0.000E+00	0.0
	25	2	5	5	0	0	-6.0788686784E+01	-1.1756724446E+02	1.4322935784E+02	2.3175317673E+02	1.2521008172E+02	0.000E+00	0.0
	-5	1	9	9	0	501	-6.3791809253E+01	-3.7200344909E+01	1.3080522420E+02	1.5026889122E+02	4.1800000000E+00	0.000E+00	0.0
	5	1	9	9	501	0	3.0031224689E+00	-8.0366899553E+01	1.2424133638E+01	8.1484285509E+01	4.1800000000E+00	0.000E+00	0.0
</event>
<event>
    11  -1  1.0000000E+00  1.0000000E+00  -1.0000000E+00  -1.0000000E+00
	2212	-1	0	0	0	0	0.0000000000E+00	0.0000000000E+00	6.5000000000E+03	6.5000000000E+03	9.3827000000E-01	0.000E+00	0.0
	2212	-1	0	0	0	0	0.0000000000E+00	0.0000000000E+00	-6.5000000000E+03	6.5000000000E+03	9.3827000000E-01	0.000E+00	0.0
	2212	1	0	0	0	0	0.0000000000E+00	0.0000000000E+00	4.8871511725E+03	4.8871511725E+03	9.3827000000E-01	0.000E+00	0.0
	2212	1	0	0	0	0	0.0000000000E+00	0.0000000000E+00	-4.8241218877E+03	4.8241218877E+03	9.3827000000E-01	0.000E+00	0.0
	51	2	1	2	0	0	-5.4521547366E+02	-9.5598338175E+02	-1.1406522567E+03	3.6502060084E+03	3.2881228982E+03	0.000E+00	0.0
	1000022	2	5	5	0	0	5.4521547366E+02	9.5598338175E+02	1.0375918753E+03	1.7272539080E+03	8.3405337002E+02	0.000E+00	0.0
	14	1	6	6	0	0	2.7708934883E+02	1.3167047018E+02	2.5181371825E+02	5.1298223035E+02	3.2500000000E+02	0.000E+00	0.0
	-14	1	6	6	0	0	2.6812612482E+02	8.2431291157E+02	7.8577815709E+02	1.2142716777E+03	3.2500000000E+02	0.000E+00	0.0
	25	2	5	5	0	0	-5.4521547366E+02	-9.5598338175E+02	-1.1006211602E+03	1.5614730318E+03	1.2516769553E+02	0.000E+00	0.0
	-5	1	9	9	0	501	-5.0007904349E+02	-8.4101081645E+02	-9.2317846649E+02	1.3452338817E+03	4.1800000000E+00	0.000E+00	0.0
	5	1	9	9	501	0	-4.5136430163E+01	-1.1497256530E+02	-1.7744269367E+02	2.1623915010E+02	4.1800000000E+00	0.000E+00	0.0
</event>
<event>
    11  -1  1.0000000E+00  1.0000000E+00  -1.0000000E+00  -1.0000000E+00
	2212	-1	0	0	0	0	0.0000000000E+00	0.0000000000E+00	6.5000000000E+03	6.5000000000E+03	9.3827000000E-01	0.000E+00	0.0
	2212	-1	0	0	0	0	0.0000000000E+00	0.0000000000E+00	-6.5000000000E+03	6.5000000000E+03	9.3827000000E-01	0.000E+00	0.0
	2212	1	0	0	0	0	0.0000000000E+00	0.0000000000E+00	6.2886356316E+03	6.2886356316E+03	9.3827000000E-01	0.000E+00	0.0
	2212	1	0	0	0	0	0.0000000000E+00	0.0000000000E+00	-5.1955930973E+03	5.1955930973E+03	9.3827000000E-01	0.000E+00	0.0
	51	2	1	2	0	0	-1.0530591337E+02	-6.2545218629E+01	-1.0309370126E+03	1.4767033989E+03	1.0501526387E+03	0.000E+00	0.0
	1000022	2	5	5	0	0	1.0530591337E+02	6.2545218629E+01	-9.7446231190E+02	1.3042740909E+03	8.5822658254E+02	0.000E+00	0.0
	14	1	6	6	0	0	1.6901973728E+02	-1.8848233360E+02	-2.9097653262E+02	5.0436653755E+02	3.2500000000E+02	0.000E+00	0.0
	-14	1	6	6	0	0	-6.3713823912E+01	2.5102755223E+02	-6.8348577929E+02	7.9990755330E+02	3.2500000000E+02	0.000E+00	0.0
	25	2	5	5	0	0	-1.0530591337E+02	-6.2545218629E+01	-1.1858022241E+02	2.1149718027E+02	1.2517407220E+02	0.000E+00	0.0
	-5	1	9	9	0	501	-6.0869863484E+01	5.2604517328E+00	7.3409636877E+00	6.1677992678E+01	4.1800000000E+00	0.000E+00	0.0
	5	1	9	9	501	0	-4.4436049883E+01	-6.7805670362E+01	-1.2592118609E+02	1.4981918759E+02	4.1800000000E+00	0.000E+00	0.0
</event>
<event>
    11  -1  1.0000000E+00  1.0000000E+00  -1.0000000E+00  -1.0000000E+00
	2212	-1	0	0	0	0	0.0000000000E+00	0.0000000000E+00	6.5000000000E+03	6.5000000000E+03	9.3827000000E-01	0.000E+00	0.0
	2212	-1	0	0	0	0	0.0000000000E+00	0.0000000000E+00	-6.5000000000E+03	6.5000000000E+03	9.3827000000E-01	0.000E+00	0.0
	2212	1	0	0	0	0	0.0000000000E+00	0.0000000000E+00	6.2082411527E+03	6.2082411527E+03	9.3827000000E-01	0.000E+00	0.0
	2212	1	0	0	0	0	0.0000000000E+00	0.0000000000E+00	-5.5519246381E+03	5.5519246381E+03	9.3827000000E-01	0.000E+00	0.0
	51	2	1	2	0	0	-1.1968762475E+02	3.4822208651E+01	-5.8047428986E+02	1.2078599314E+03	1.0518733284E+03	0.000E+00	0.0
	1000022	2	5	5	0	0	1.1968762475E+02	-3.4822208651E+01	-6.1973097408E+02	1.0594234771E+03	8.5016110822E+02	0.000E+00	0.0
	14	1	6	6	0	0	-2.4036193931E+01	-2.4433078043E+01	-6.2342860172E+02	7.0389128092E+02	3.2500000000E+02	0.000E+00	0.0
	-14	1	6	6	0	0	1.4372381868E+02	-1.0389130608E+01	3.6976276396E+00	3.5553219621E+02	3.2500000000E+02	0.000E+00	0.0
	25	2	5	5	0	0	-1.1968762475E+02	3.4822208651E+01	-3.6585540516E+01	1.8041073206E+02	1.2518712687E+02	0.000E+00	0.0
	-5	1	9	9	0	501	-5.4123903978E+01	7.6060173207E+01	2.6546368476E+00	9.3482973994E+01	4.1800000000E+00	0.000E+00	0.0
	5	1	9	9	501	0	-6.5563720773E+01	-4.1237964556E+01	-3.9240177364E+01	8.6927758063E+01	4.1800000000E+00	0.000E+00	0.0
</event>
<event>
    11  -1  1.0000000E+00  1.0000000E+00  -1.0000000E+00  -1.0000000E+00
	2212	-1	0	0	0	0	0.0000000000E+00	0.0000000000E+00	6.5000000000E+03	6.5000000000E+03	9.3827000000E-01	0.000E+00	0.0
	2212	-1	0	0	0	0	0.0000000000E+00	0.0000000000E+00	-6.5000000000E+03	6.5000000000E+03	9.3827000000E-01	0.000E+00	0.0
	2212	1	0	0	0	0	0.0000000000E+00	0.0000000000E+00	5.0834469467E+03	5.0834469467E+03	9.3827000000E-01	0.000E+00	0.0
	2212	1	0	0	0	0	0.0000000000E+00	0.0000000000E+00	-6.3142545679E+03	6.3142545679E+03	9.3827000000E-01	0.000E+00	0.0
	51	2	1	2	0	0	2.1039981405E+01	-7.8072852610E+01	1.1232486425E+03	1.5233839306E+03	1.0259010848E+03	0.000E+00	0.0
	1000022	2	5	5	0	0	-2.1039981405E+01	7.8072852610E+01	1.1460603251E+03	1.4308635562E+03	8.5286470001E+02	0.000E+00	0.0
	14	1	6	6	0	0	-1.0022571673E+02	-1.6682380382E+02	8.2054821735E+02	9.0376974546E+02	3.2500000000E+02	0.000E+00	0.0
	-14	1	6	6	0	0	7.9185735327E+01	2.4489665643E+02	3.2551210774E+02	5.2709381072E+02	3.2500000000E+02	0.000E+00	0.0
	25	2	5	5	0	0	2.1039981405E+01	-7.8072852610E+01	8.4747296178E+01	1.7143492925E+02	1.2517899035E+02	0.000E+00	0.0
	-5	1	9	9	0	501	4.3020369388E+01	-4.5783230578E+01	1.0855984549E+02	1.2549728617E+02	4.1800000000E+00	0.000E+00	0.0
	5	1	9	9	501	0	-2.1980387983E+01	-3.2289622032E+01	-2.3812549308E+01	4.5937643076E+01	4.1800000000E+00	0.000E+00	0.0
</event>
<event>
    11  -1  1.0000000E+00  1.0000000E+00  -1.0000000E+00  -1.0000000E+00
	2212	-1	0	0	0	0	0.0000000000E+00	0.0000000000E+00	6.5000000000E+03	6.5000000000E+03	9.3827000000E-01	0.000E+00	0.0
	2212	-1	0	0	0	0	0.0000000000E+00	0.0000000000E+00	-6.5000000000E+03	6.5000000000E+03	9.3827000000E-01	0.000E+00	0.0
	2212	1	0	0	0	0	0.0000000000E+00	0.0000000000E+00	5.2655597871E+03	5.2655597871E+03	9.3827000000E-01	0.000E+00	0.0
	2212	1	0	0	0	0	0.0000000000E+00	0.0000000000E+00	-6.2816087077E+03	6.2816087077E+03	9.3827000000E-01	0.000E+00	0.0
	51	2	1	2	0	0	7.0130008184E+01	-3.1105639907E+01	1.1560501791E+03	1.5558604593E+03	1.0384430525E+03	0.000E+00	0.0
	1000022	2	5	5	0	0	-7.0130008184E+01	3.1105639907E+01	7.1192973314E+02	1.1151330456E+03	8.5486372338E+02	0.000E+00	0.0
	14	1	6	6	0	0	9.0289903667E+01	-1.3496245766E+02	5.9936071585E+02	7.0087473873E+02	3.2500000000E+02	0.000E+00	0.0
	-14	1	6	6	0	0	-1.6041991185E+02	1.6606809756E+02	1.1256901729E+02	4.1425830686E+02	3.2500000000E+02	0.000E+00	0.0
	25	2	5	5	0	0	7.0130008184E+01	-3.1105639907E+01	3.0411918743E+02	3.3769845956E+02	1.2516385479E+02	0.000E+00	0.0
	-5	1	9	9	0	501	-3.5107439302E+01	-5.2347948767E+00	1.0563956095E+02	1.1152185710E+02	4.1800000000E+00	0.000E+00	0.0
	5	1	9	9	501	0	1.0523744749E+02	-2.5870845031E+01	1.9847962648E+02	2.2617660247E+02	4.1800000000E+00	0.000E+00	0.0
</event>
<event>
    11  -1  1.0000000E+00  1.0000000E+00  -1.0000000E+00  -1.0000000E+00
	2212	-1	0	0	0	0	0.0000000000E+00	0.0000000000E+00	6.5000000000E+03	6.5000000000E+03	9.3827000000E-01	0.000E+00	0.0
	2212	-1	0	0	0	0	0.0000000000E+00	0.0000000000E+00	-6.5000000000E+03	6.5000000000E+03	9.3827000000E-01	0.000E+00	0.0
	2212	1	0	0	0	0	0.0000000000E+00	0.0000000000E+00	6.2758135016E+03	6.2758135016E+03	9.3827000000E-01	0.000E+00	0.0
	2212	1	0	0	0	0	0.0000000000E+00	0.0000000000E+00	-5.2707356680E+03	5.2707356680E+03	9.3827000000E-01	0.000E+00	0.0
	51	2	1	2	0	0	-2.6896796686E+01	1.1991104769E+02	-1.0641213306E+03	1.4999313879E+03	1.0499227900E+03	0.000E+00	0.0
	1000022	2	5	5	0	0	2.6896796686E+01	-1.1991104769E+02	-7.8185275161E+02	1.1695460130E+03	8.6107029583E+02	0.000E+00	0.0
	14	1	6	6	0	0	2.1796465206E+01	5.3291554908E+01	-7.2537041078E+02	7.9693306404E+02	3.2500000000E+02	0.000E+00	0.0
	-14	1	6	6	0	0	5.1003314792E+00	-1.7320260260E+02	-5.6482340824E+01	3.7261294899E+02	3.2500000000E+02	0.000E+00	0.0
	25	2	5	5	0	0	-2.6896796686E+01	1.1991104769E+02	-2.2322508193E+02	2.8390481740E+02	1.2518151265E+02	0.000E+00	0.0
	-5	1	9	9	0	501	-1.5554255315E+01	5.9768550013E+00	1.2878120749E+01	2.1470352772E+01	4.1800000000E+00	0.000E+00	0.0
	5	1	9	9	501	0	-1.1342541370E+01	1.1393419269E+02	-2.3610320268E+02	2.6243446463E+02	4.1800000000E+00	0.000E+00	0.0
</event>
<event>
    11  -1  1.0000000E+00  1.0000000E+00  -1.0000000E+00  -1.0000000E+00
	2212	-1	0	0	0	0	0.0000000000E+00	0.0000000000E+00	6.5000000000E+03	6.5000000000E+03	9.3827000000E-01	0.000E+00	0.0
	2212	-1	0	0	0	0	0.0000000000E+00	0.0000000000E+00	-6.5000000000E+03	6.5000000000E+03	9.3827000000E-01	0.000E+00	0.0
	2212	1	0	0	0	0	0.0000000000E+00	0.0000000000E+00	6.1473914725E+03	6.1473914725E+03	9.3827000000E-01	0.000E+00	0.0
	2212	1	0	0	0	0	0.0000000000E+00	0.0000000000E+00	-5.7207501382E+03	5.7207501382E+03	9.3827000000E-01	0.000E+00	0.0
	51	2	1	2	0	0	-7.7587149787E+01	-1.0983569505E+02	-3.7908414636E+02	1.1228842420E+03	1.0483704427E+03	0.000E+00	0.0
	1000022	2	5	5	0	0	7.7587149787E+01	1.0983569505E+02	-4.0088730787E+02	9.4634150536E+02	8.4662150069E+02	0.000E+00	0.0
	14	1	6	6	0	0	1.7502610018E+02	2.9074863936E+02	-2.5861042825E+02	5.3635180677E+02	3.2500000000E+02	0.000E+00	0.0
	-14	1	6	6	0	0	-9.7438950391E+01	-1.8091294431E+02	-1.4227687962E+02	4.0998969859E+02	3.2500000000E+02	0.000E+00	0.0
	25	2	5	5	0	0	-7.7587149787E+01	-1.0983569505E+02	-2.5754026445E+01	1.8551688391E+02	1.2517826735E+02	0.000E+00	0.0
	-5	1	9	9	0	501	-9.3807842571E+01	-1.0142942008E+02	1.6586775165E+01	1.3921362037E+02	4.1800000000E+00	0.000E+00	0.0
	5	1	9	9	501	0	1.6220692783E+01	-8.4062749614E+00	-4.2340801609E+01	4.6303263535E+01	4.1800000000E+00	0.000E+00	0.0
</event>
<event>
    11  -1  1.0000000E+00  1.0000000E+00  -1.0000000E+00  -1.0000000E+00
	2212	-1	0	0	0	0	0.0000000000E+00	0.0000000000E+00	6.5000000000E+03	6.5000000000E+03	9.3827000000E-01	0.000E+00	0.0
	2212	-1	0	0	0	0	0.0000000000E+00	0.0000000000E+00	-6.5000000000E+03	6.5000000000E+03	9.3827000000E-01	0.000E+00	0.0
	2212	1	0	0	0	0	0.0000000000E+00	0.0000000000E+00	5.8631279571E+03	5.8631279571E+03	9.3827000000E-01	0.000E+00	0.0
	2212	1	0	0	0	0	0.0000000000E+00	0.0000000000E+00	-6.0635703937E+03	6.0635703937E+03	9.3827000000E-01	0.000E+00	0.0
	51	2	1	2	0	0	1.0317856102E+02	-7.4932031046E+01	2.6050417475E+02	1.0935823287E+03	1.0544189204E+03	0.000E+00	0.0
	1000022	2	5	5	0	0	-1.0317856102E+02	7.4932031046E+01	1.0646178613E+02	8.7139663315E+02	8.5541648081E+02	0.000E+00	0.0
	14	1	6	6	0	0	2.2534809044E+02	-3.1314060762E+00	6.6275481256E+01	4.0100998365E+02	3.2500000000E+02	0.000E+00	0.0
	-14	1	6	6	0	0	-3.2852665146E+02	7.8063437122E+01	4.0186304873E+01	4.7038664951E+02	3.2500000000E+02	0.000E+00	0.0
	25	2	5	5	0	0	1.0317856102E+02	-7.4932031046E+01	9.3980650487E+01	2.0190501604E+02	1.2519044733E+02	0.000E+00	0.0
	-5	1	9	9	0	501	-1.6171106035E+01	6.7250091178E+00	-1.2802457314E+01	2.2093115021E+01	4.1800000000E+00	0.000E+00	0.0
	5	1	9	9	501	0	1.1934966706E+02	-8.1657040164E+01	1.0678310780E+02	1.7981190102E+02	4.1800000000E+00	0.000E+00	0.0
</event>
<event>
    11  -1  1.0000000E+00  1.0000000E+00  -1.0000000E+00  -1.0000000E+00
	2212	-1	0	0	0	0	0.0000000000E+00	0.0000000000E+00	6.5000000000E+03	6.5000000000E+03	9.3827000000E-01	0.000E+00	0.0
	2212	-1	0	0	0	0	0.0000000000E+00	0.0000000000E+00	-6.5000000000E+03	6.5000000000E+03	9.3827000000E-01	0.000E+00	0.0
	2212	1	0	0	0	0	0.0000000000E+00	0.0000000000E+00	6.3330498481E+03	6.3330498481E+03	9.3827000000E-01	0.000E+00	0.0
	2212	1	0	0	0	0	0.0000000000E+00	0.0000000000E+00	-4.8569164121E+03	4.8569164121E+03	9.3827000000E-01	0.000E+00	0.0
	51	2	1	2	0	0	7.3389363538E+01	-8.7950516498E+01	-1.5424442799E+03	1.8680224482E+03	1.0474980756E+03	0.000E+00	0.0
	1000022	2	5	5	0	0	-7.3389363538E+01	8.7950516498E+01	-1.1757880387E+03	1.4650720332E+03	8.6650866038E+02	0.000E+00	0.0
	14	1	6	6	0	0	-1.1457865926E+02	2.4266383457E+01	-1.3299178305E+02	3.7017420343E+02	3.2500000000E+02	0.000E+00	0.0
	-14	1	6	6	0	0	4.1189295718E+01	6.3684133041E+01	-1.0427962556E+03	1.0948978298E+03	3.2500000000E+02	0.000E+00	0.0
	25	2	5	5	0	0	7.3389363538E+01	-8.7950516498E+01	-3.0034539727E+02	3.4496170660E+02	1.2517958828E+02	0.000E+00	0.0
	-5	1	9	9	0	501	5.6409421937E+01	-1.2002487511E+02	-2.2455362513E+02	2.6082522210E+02	4.1800000000E+00	0.000E+00	0.0
	5	1	9	9	501	0	1.6979941601E+01	3.2074358613E+01	-7.5791772147E+01	8.4136484490E+01	4.1800000000E+00	0.000E+00	0.0
</event>
<event>
    11  -1  1.0000000E+00  1.0000000E+00  -1.0000000E+00  -1.0000000E+00
	2212	-1	0	0	0	0	0.0000000000E+00	0.0000000000E+00	6.5000000000E+03	6.5000000000E+03	9.3827000000E-01	0.000E+00	0.0
	2212	-1	0	0	0	0	0.0000000000E+00	0.0000000000E+00	-6.5000000000E+03	6.5000000000E+03	9.3827000000E-01	0.000E+00	0.0
	2212	1	0	0	0	0	0.0000000000E+00	0.0000000000E+00	5.1380021400E+03	5.1380021400E+03	9.3827000000E-01	0.000E+00	0.0
	2212	1	0	0	0	0	0.0000000000E+00	0.0000000000E+00	-6.2993482584E+03	6.2993482584E+03	9.3827000000E-01	0.000E+00	0.0
	51	2	1	2	0	0	-1.0258497369E+02	2.7365974910E+01	1.0540464306E+03	1.4884338822E+03	1.0455376466E+03	0.000E+00	0.0
	1000022	2	5	5	0	0	1.0258497369E+02	-2.7365974910E+01	1.0759954221E+03	1.3776445415E+03	8.5373635326E+02	0.000E+00	0.0
	14	1	6	6	0	0	1.6655766580E+02	1.9712119789E+02	3.2655860761E+02	5.2807551250E+02	3.2500000000E+02	0.000E+00	0.0
	-14	1	6	6	0	0	-6.3972692110E+01	-2.2448717280E+02	7.4943681454E+02	8.4956902902E+02	3.2500000000E+02	0.000E+00	0.0
	25	2	5	5	0	0	-1.0258497369E+02	2.7365974910E+01	8.5350696283E+01	1.8500506003E+02	1.2517810300E+02	0.000E+00	0.0
	-5	1	9	9	0	501	-9.6889424239E+01	6.9415474436E+01	7.5791528036E+01	1.4130780850E+02	4.1800000000E+00	0.000E+00	0.0
	5	1	9	9	501	0	-5.6955494535E+00	-4.2049499526E+01	9.5591682470E+00	4.3697251533E+01	4.1800000000E+00	0.000E+00	0.0
</event>
<event>
    11  -1  1.0000000E+00  1.0000000E+00  -1.0000000E+00  -1.0000000E+00
	2212	-1	0	0	0	0	0.0000000000E+00	0.0000000000E+00	6.5000000000E+03	6.5000000000E+03	9.3827000000E-01	0.000E+00	0.0
	2212	-1	0	0	0	0	0.0000000000E+00	0.0000000000E+00	-6.5000000000E+03	6.5000000000E+03	9.3827000000E-01	0.000E+00	0.0
	2212	1	0	0	0	0	0.0000000000E+00	0.0000000000E+00	4.9401964441E+03	4.9401964441E+03	9.3827000000E-01	0.000E+00	0.0
	2212	1	0	0	0	0	0.0000000000E+00	0.0000000000E+00	-6.3227014380E+03	6.3227014380E+03	9.3827000000E-01	0.000E+00	0.0
	51	2	1	2	0	0	8.2165515205E+01	-7.7647144715E+01	1.3009470467E+03	1.6767370633E+03	1.0517621927E+03	0.000E+00	0.0
	1000022	2	5	5	0	0	-8.2165515205E+01	7.7647144715E+01	1.2405723370E+03	1.5166537192E+03	8.6512341887E+02	0.000E+00	0.0
	14	1	6	6	0	0	-8.2206261596E+01	1.4589116280E+02	1.8434565585E+02	4.0945136666E+02	3.2500000000E+02	0.000E+00	0.0
	-14	1	6	6	0	0	4.0746391111E-02	-6.8244018082E+01	1.0562266811E+03	1.1072023526E+03	3.2500000000E+02	0.000E+00	0.0
	25	2	5	5	0	0	8.2165515205E+01	-7.7647144715E+01	1.4193265685E+02	2.2044839866E+02	1.2518932231E+02	0.000E+00	0.0
	-5	1	9	9	0	501	-1.0756678552E+01	2.6007571833E+01	1.5775274582E+01	3.2533545983E+01	4.1800000000E+00	0.000E+00	0.0
	5	1	9	9	501	0	9.2922193757E+01	-1.0365471655E+02	1.2615738227E+02	1.8791485268E+02	4.1800000000E+00	0.000E+00	0.0
</event>
<event>
    11  -1  1.0000000E+00  1.0000000E+00  -1.0000000E+00  -1.0000000E+00
	2212	-1	0	0	0	0	0.0000000000E+00	0.0000000000E+00	6.5000000000E+03	6.5000000000E+03	9.3827000000E-01	0.000E+00	0.0
	2212	-1	0	0	0	0	0.0000000000E+00	0.0000000000E+00	-6.5000000000E+03	6.5000000000E+03	9.3827000000E-01	0.000E+00	0.0
	2212	1	0	0	0	0	0.0000000000E+00	0.0000000000E+00	5.8865501141E+03	5.8865501141E+03	9.3827000000E-01	0.000E+00	0.0
	2212	1	0	0	0	0	0.0000000000E+00	0.0000000000E+00	-6.0501921758E+03	6.0501921758E+03	9.3827000000E-01	0.000E+00	0.0
	51	2	1	2	0	0	1.2292702927E+02	5.8402599223E+01	1.0216578735E+02	1.0642828571E+03	1.0505894696E+03	0.000E+00	0.0
	1000022	2	5	5	0	0	-1.2292702927E+02	-5.8402599223E+01	1.9637505101E+02	8.7547422598E+02	8.4224108281E+02	0.000E+00	0.0
	14	1	6	6	0	0	1.5696557727E+02	-7.1517786718E+01	2.4734187751E+02	4.4334635516E+02	3.2500000000E+02	0.000E+00	0.0
	-14	1	6	6	0	0	-2.7989260654E+02	1.3115187495E+01	-5.0966826494E+01	4.3212787082E+02	3.2500000000E+02	0.000E+00	0.0
	25	2	5	5	0	0	1.2292702927E+02	5.8402599223E+01	-3.2732989371E+01	1.8778348411E+02	1.2517695550E+02	0.000E+00	0.0
	-5	1	9	9	0	501	4.8952432708E+01	9.1381512778E+01	-2.0670203841E+01	1.0579060106E+02	4.1800000000E+00	0.000E+00	0.0
	5	1	9	9	501	0	7.3974596565E+01	-3.2978913554E+01	-1.2062785530E+01	8.1992883051E+01	4.1800000000E+00	0.000E+00	0.0
</event>
<event>
    11  -1  1.0000000E+00  1.0000000E+00  -1.0000000E+00  -1.0000000E+00
	2212	-1	0	0	0	0	0.0000000000E+00	0.0000000000E+00	6.5000000000E+03	6.5000000000E+03	9.3827000000E-01	0.000E+00	0.0
	2212	-1	0	0	0	0	0.0000000000E+00	0.0000000000E+00	-6.5000000000E+03	6.5000000000E+03	9.3827000000E-01	0.000E+00	0.0
	2212	1	0	0	0	0	0.0000000000E+00	0.0000000000E+00	4.8625681917E+03	4.8625681917E+03	9.3827000000E-01	0.000E+00	0.0
	2212	1	0	0	0	0	0.0000000000E+00	0.0000000000E+00	-6.3320117157E+03	6.3320117157E+03	9.3827000000E-01	0.000E+00	0.0
	51	2	1	2	0	0	-1.0601718207E+02	-6.2493376701E+01	1.3760311795E+03	1.7346135917E+03	1.0489411043E+03	0.000E+00	0.0
	1000022	2	5	5	0	0	1.0601718207E+02	6.2493376701E+01	1.3148191275E+03	1.5714782254E+03	8.5185057950E+02	0.000E+00	0.0
	14	1	6	6	0	0	-5.4962395597E+01	-5.2137005544E-01	1.0931699551E+03	1.1417822418E+03	3.2500000000E+02	0.000E+00	0.0
	-14	1	6	6	0	0	1.6097957767E+02	6.3014746757E+01	2.2164917233E+02	4.2969598361E+02	3.2500000000E+02	0.000E+00	0.0
	25	2	5	5	0	0	-1.0601718207E+02	-6.2493376701E+01	1.5462439655E+02	2.3394186721E+02	1.2519995287E+02	0.000E+00	0.0
	-5	1	9	9	0	501	-1.4579955570E+01	-2.2538407813E+01	1.2762399079E+02	1.3048337195E+02	4.1800000000E+00	0.000E+00	0.0
	5	1	9	9	501	0	-9.1437226501E+01	-3.9954968888E+01	2.7000405758E+01	1.0345849525E+02	4.1800000000E+00	0.000E+00	0.0
</event>
<event>
    11  -1  1.0000000E+00  1.0000000E+00  -1.0000000E+00  -1.0000000E+00
	2212	-1	0	0	0	0	0.0000000000E+00	0.0000000000E+00	6.5000000000E+03	6.5000000000E+03	9.3827000000E-01	0.000E+00	0.0
	2212	-1	0	0	0	0	0.0000000000E+00	0.0000000000E+00	-6.5000000000E+03	6.5000000000E+03	9.3827000000E-01	0.000E+00	0.0
	2212	1	0	0	0	0	0.0000000000E+00	0.0000000000E+00	5.3553920668E+03	5.3553920668E+03	9.3827000000E-01	0.000E+00	0.0
	2212	1	0	0	0	0	0.0000000000E+00	0.0000000000E+00	-6.2601105602E+03	6.2601105602E+03	9.3827000000E-01	0.000E+00	0.0
	51	2	1	2	0	0	4.6618046485E+01	-4.6992189087E+01	1.0578929571E+03	1.4905825842E+03	1.0480064044E+03	0.000E+00	0.0
	1000022	2	5	5	0	0	-4.6618046485E+01	4.6992189087E+01	6.0316485624E+02	1.0513464201E+03	8.5856854305E+02	0.000E+00	0.0
	14	1	6	6	0	0	-2.9524050754E+02	-4.3482914651E+01	2.8650798730E+02	5.2608891639E+02	3.2500000000E+02	0.000E+00	0.0
	-14	1	6	6	0	0	2.4862246106E+02	9.0475103737E+01	3.1665686894E+02	5.2525750369E+02	3.2500000000E+02	0.000E+00	0.0
	25	2	5	5	0	0	4.6618046485E+01	-4.6992189087E+01	3.0155363710E+02	3.3315095290E+02	1.2519366307E+02	0.000E+00	0.0
	-5	1	9	9	0	501	5.9014321536E+01	-6.5372244795E+01	2.9742218963E+02	3.1021549255E+02	4.1800000000E+00	0.000E+00	0.0
	5	1	9	9	501	0	-1.2396275051E+01	1.8380055708E+01	4.1314474735E+00	2.2935460344E+01	4.1800000000E+00	0.000E+00	0.0
</event>
<event>
    11  -1  1.0000000E+00  1.0000000E+00  -1.0000000E+00  -1.0000000E+00
	2212	-1	0	0	0	0	0.0000000000E+00	0.0000000000E+00	6.5000000000E+03	6.5000000000E+03	9.3827000000E-01	0.000E+00	0.0
	2212	-1	0	0	0	0	0.0000000000E+00	0.0000000000E+00	-6.5000000000E+03	6.5000000000E+03	9.3827000000E-01	0.000E+00	0.0
	2212	1	0	0	0	0	0.0000000000E+00	0.0000000000E+00	5.2524072317E+03	5.2524072317E+03	9.3827000000E-01	0.000E+00	0.0
	2212	1	0	0	0	0	0.0000000000E+00	0.0000000000E+00	-6.2781887230E+03	6.2781887230E+03	9.3827000000E-01	0.000E+00	0.0
	51	2	1	2	0	0	-6.5344582033E+01	4.0907188657E+01	8.6945445893E+02	1.3670460669E+03	1.0521029323E+03	0.000E+00	0.0
	1000022	2	5	5	0	0	6.5344582033E+01	-4.0907188657E+01	1.0071896114E+03	1.3211954464E+03	8.5157687952E+02	0.000E+00	0.0
	14	1	6	6	0	0	-1.2563161988E+02	1.4979683166E+02	2.5038419510E+02	4.5446632421E+02	3.2500000000E+02	0.000E+00	0.0
	-14	1	6	6	0	0	1.9097620192E+02	-1.9070402031E+02	7.5680541633E+02	8.6672912219E+02	3.2500000000E+02	0.000E+00	0.0
	25	2	5	5	0	0	-6.5344582033E+01	4.0907188657E+01	1.8591879884E+01	1.4820859884E+02	1.2520710159E+02	0.000E+00	0.0
	-5	1	9	9	0	501	-8.1707048634E+01	5.7400204413E+01	4.7692371525E+01	1.1073779827E+02	4.1800000000E+00	0.000E+00	0.0
	5	1	9	9	501	0	1.6362466601E+01	-1.6493015756E+01	-2.9100491641E+01	3.7470800575E+01	4.1800000000E+00	0.000E+00	0.0
</event>
<event>
    11  -1  1.0000000E+00  1.0000000E+00  -1.0000000E+00  -1.0000000E+00
	2212	-1	0	0	0	0	0.0000000000E+00	0.0000000000E+00	6.5000000000E+03	6.5000000000E+03	9.3827000000E-01	0.000E+00	0.0
	2212	-1	0	0	0	0	0.0000000000E+00	0.0000000000E+00	-6.5000000000E+03	6.5000000000E+03	9.3827000000E-01	0.000E+00	0.0
	2212	1	0	0	0	0	0.0000000000E+00	0.0000000000E+00	6.3227352828E+03	6.3227352828E+03	9.3827000000E-01	0.000E+00	0.0
	2212	1	0	0	0	0	0.0000000000E+00	0.0000000000E+00	-4.9487196935E+03	4.9487196935E+03	9.3827000000E-01	0.000E+00	0.0
	51	2	1	2	0	0	-2.0858413994E+01	1.2412146461E+02	-1.3027673801E+03	1.6771979959E+03	1.0487845629E+03	0.000E+00	0.0
	1000022	2	5	5	0	0	2.0858413994E+01	-1.2412146461E+02	-1.2150169256E+03	1.4902358865E+03	8.5363672395E+02	0.000E+00	0.0
	14	1	6	6	0	0	-2.0374267543E+02	-1.5578550373E+02	-8.7515979168E+02	9.6814764470E+02	3.2500000000E+02	0.000E+00	0.0
	-14	1	6	6	0	0	2.2460108942E+02	3.1664039118E+01	-3.3985713392E+02	5.2208824180E+02	3.2500000000E+02	0.000E+00	0.0
	25	2	5	5	0	0	-2.0858413994E+01	1.2412146461E+02	-1.5899866364E+02	2.3830913718E+02	1.2517770733E+02	0.000E+00	0.0
	-5	1	9	9	0	501	-2.9732208587E-02	6.8001838030E+01	2.4956537470E-01	6.8130650535E+01	4.1800000000E+00	0.000E+00	0.0
	5	1	9	9	501	0	-2.0828681785E+01	5.6119626584E+01	-1.5924822902E+02	1.7017848665E+02	4.1800000000E+00	0.000E+00	0.0
</event>
<event>
    11  -1  1.0000000E+00  1.0000000E+00  -1.0000000E+00  -1.0000000E+00
	2212	-1	0	0	0	0	0.0000000000E+00	0.0000000000E+00	6.5000000000E+03	6.5000000000E+03	9.3827000000E-01	0.000E+00	0.0
	2212	-1	0	0	0	0	0.0000000000E+00	0.0000000000E+00	-6.5000000000E+03	6.5000000000E+03	9.3827000000E-01	0.000E+00	0.0
	2212	1	0	0	0	0	0.0000000000E+00	0.0000000000E+00	6.1407857842E+03	6.1407857842E+03	9.3827000000E-01	0.000E+00	0.0
	2212	1	0	0	0	0	0.0000000000E+00	0.0000000000E+00	-5.7334904797E+03	5.7334904797E+03	9.3827000000E-01	0.000E+00	0.0
	51	2	1	2	0	0	8.4568600811E+01	1.0760378080E+02	-3.8558265384E+02	1.1263964088E+03	1.0494591297E+03	0.000E+00	0.0
	1000022	2	5	5	0	0	-8.4568600811E+01	-1.0760378080E+02	-3.5999772149E+02	9.3431363684E+02	8.5124214570E+02	0.000E+00	0.0
	14	1	6	6	0	0	7.1387320166E+01	1.9237687208E+02	-9.6095652747E+01	3.9618731033E+02	3.2500000000E+02	0.000E+00	0.0
	-14	1	6	6	0	0	-1.5595592098E+02	-2.9998065288E+02	-2.6390206874E+02	5.3812632650E+02	3.2500000000E+02	0.000E+00	0.0
	25	2	5	5	0	0	8.4568600811E+01	1.0760378080E+02	-4.7297583093E+01	1.9141009928E+02	1.2518124002E+02	0.000E+00	0.0
	-5	1	9	9	0	501	6.9130275025E+01	5.0213907087E+01	3.2772161572E+01	9.1607414351E+01	4.1800000000E+00	0.000E+00	0.0
	5	1	9	9	501	0	1.5438325786E+01	5.7389873714E+01	-8.0069744665E+01	9.9802684928E+01	4.1800000000E+00	0.000E+00	0.0
</event>
<event>
    11  -1  1.0000000E+00  1.0000000E+00  -1.0000000E+00  -1.0000000E+00
	2212	-1	0	0	0	0	0.0000000000E+00	0.0000000000E+00	6.5000000000E+03	6.5000000000E+03	9.3827000000E-01	0.000E+00	0.0
	2212	-1	0	0	0	0	0.0000000000E+00	0.0000000000E+00	-6.5000000000E+03	6.5000000000E+03	9.3827000000E-01	0.000E+00	0.0
	2212	1	0	0	0	0	0.0000000000E+00	0.0000000000E+00	5.0787237592E+03	5.0787237592E+03	9.3827000000E-01	0.000E+00	0.0
	2212	1	0	0	0	0	0.0000000000E+00	0.0000000000E+00	-6.3064246595E+03	6.3064246595E+03	9.3827000000E-01	0.000E+00	0.0
	51	2	1	2	0	0	-1.1047203040E+02	7.8025143843E+01	1.3048344509E+03	1.6796967184E+03	1.0490453418E+03	0.000E+00	0.0
	1000022	2	5	5	0	0	1.1047203040E+02	-7.8025143843E+01	9.4032949654E+02	1.2734709057E+03	8.4806638478E+02	0.000E+00	0.0
	14	1	6	6	0	0	3.8288194332E+01	-5.8378553755E+01	8.7177220821E+02	9.3299829816E+02	3.2500000000E+02	0.000E+00	0.0
	-14	1	6	6	0	0	7.2183836068E+01	-1.9646590088E+01	6.8557288325E+01	3.4047260752E+02	3.2500000000E+02	0.000E+00	0.0
	25	2	5	5	0	0	-1.1047203040E+02	7.8025143843E+01	2.8737140375E+02	3.4138067564E+02	1.2516568791E+02	0.000E+00	0.0
	-5	1	9	9	0	501	5.2181633110E+00	-2.2576813989E+01	1.2604722120E+01	2.6707549082E+01	4.1800000000E+00	0.000E+00	0.0
	5	1	9	9	501	0	-1.1569019371E+02	1.0060195783E+02	2.7476668163E+02	3.1467312655E+02	4.1800000000E+00	0.000E+00	0.0
</event>
<event>
    11  -1  1.0000000E+00  1.0000000E+00  -1.0000000E+00  -1.0000000E+00
	2212	-1	0	0	0	0	0.0000000000E+00	0.0000000000E+00	6.5000000000E+03	6.5000000000E+03	9.3827000000E-01	0.000E+00	0.0
	2212	-1	0	0	0	0	0.0000000000E+00	0.0000000000E+00	-6.5000000000E+03	6.5000000000E+03	9.3827000000E-01	0.000E+00	0.0
	2212	1	0	0	0	0	0.0000000000E+00	0.0000000000E+00	6.2217502003E+03	6.2217502003E+03	9.3827000000E-01	0.000E+00	0.0
	2212	1	0	0	0	0	0.0000000000E+00	0.0000000000E+00	-5.5174659098E+03	5.5174659098E+03	9.3827000000E-01	0.000E+00	0.0
	51	2	1	2	0	0	4.3529653887E+01	9.6311415680E+01	-6.2706360871E+02	1.2239032413E+03	1.0457340269E+03	0.000E+00	0.0
	1000022	2	5	5	0	0	-4.3529653887E+01	-9.6311415680E+01	-6.6705229355E+02	1.0927755532E+03	8.5908610035E+02	0.000E+00	0.0
	14	1	6	6	0	0	1.0126024753E+02	-5.7284982674E+01	-1.0923616828E+01	3.4536869049E+02	3.2500000000E+02	0.000E+00	0.0
	-14	1	6	6	0	0	-1.4478990141E+02	-3.9026433006E+01	-6.5612867672E+02	7.4740686272E+02	3.2500000000E+02	0.000E+00	0.0
	25	2	5	5	0	0	4.3529653887E+01	9.6311415680E+01	-3.7231997003E+01	1.6800833668E+02	1.2517931153E+02	0.000E+00	0.0
	-5	1	9	9	0	501	-1.3824011498E+01	6.0742588227E+01	3.2912779683E+01	7.0579662686E+01	4.1800000000E+00	0.000E+00	0.0
	5	1	9	9	501	0	5.7353665386E+01	3.5568827453E+01	-7.0144776686E+01	9.7428673992E+01	4.1800000000E+00	0.000E+00	0.0
</event>
<event>
    11  -1  1.0000000E+00  1.0000000E+00  -1.0000000E+00  -1.0000000E+00
	2212	-1	0	0	0	0	0.0000000000E+00	0.0000000000E+00	6.5000000000E+03	6.5000000000E+03	9.3827000000E-01	0.000E+00	0.0
	2212	-1	0	0	0	0	0.0000000000E+00	0.0000000000E+00	-6.5000000000E+03	6.5000000000E+03	9.3827000000E-01	0.000E+00	0.0
	2212	1	0	0	0	0	0.0000000000E+00	0.0000000000E+00	6.2895504299E+03	6.2895504299E+03	9.3827000000E-01	0.000E+00	0.0
	2212	1	0	0	0	0	0.0000000000E+00	0.0000000000E+00	-5.2532319608E+03	5.2532319608E+03	9.3827000000E-01	0.000E+00	0.0
	51	2	1	2	0	0	5.5636826823E+01	1.1798567553E+01	-9.8451452781E+02	1.4219812620E+03	1.0244643437E+03	0.000E+00	0.0
	1000022	2	5	5	0	0	-5.5636826823E+01	-1.1798567553E+01	-9.4612260506E+02	1.2927811504E+03	8.7914757362E+02	0.000E+00	0.0
	14	1	6	6	0	0	-2.9679150135E+02	-8.9920708953E+01	-6.2797733209E+02	7.7210845015E+02	3.2500000000E+02	0.000E+00	0.0
	-14	1	6	6	0	0	2.4115467453E+02	7.8122141401E+01	-3.1814527297E+02	5.2067270020E+02	3.2500000000E+02	0.000E+00	0.0
	25	2	5	5	0	0	5.5636826823E+01	1.1798567553E+01	-9.0195864031E+01	1.6443645894E+02	1.2517744383E+02	0.000E+00	0.0
	-5	1	9	9	0	501	3.7629179756E+01	1.0478859644E+01	2.5780898652E+01	4.6988177278E+01	4.1800000000E+00	0.000E+00	0.0
	5	1	9	9	501	0	1.8007647067E+01	1.3197079089E+00	-1.1597676268E+02	1.1744828166E+02	4.1800000000E+00	0.000E+00	0.0
</event>
<event>
    11  -1  1.0000000E+00  1.0000000E+00  -1.0000000E+00  -1.0000000E+00
	2212	-1	0	0	0	0	0.0000000000E+00	0.0000000000E+00	6.5000000000E+03	6.5000000000E+03	9.3827000000E-01	0.000E+00	0.0
	2212	-1	0	0	0	0	0.0000000000E+00	0.0000000000E+00	-6.5000000000E+03	6.5000000000E+03	9.3827000000E-01	0.000E+00	0.0
	2212	1	0	0	0	0	0.0000000000E+00	0.0000000000E+00	6.2429364407E+03	6.2429364407E+03	9.3827000000E-01	0.000E+00	0.0
	2212	1	0	0	0	0	0.0000000000E+00	0.0000000000E+00	-5.4179317171E+03	5.4179317171E+03	9.3827000000E-01	0.000E+00	0.0
	51	2	1	2	0	0	-1.2448947414E+02	-2.8805756929E+01	-8.6568252464E+02	1.3705381903E+03	1.0548181344E+03	0.000E+00	0.0
	1000022	2	5	5	0	0	1.2448947414E+02	2.8805756929E+01	-6.4913153436E+02	1.0882789332E+03	8.6409020751E+02	0.000E+00	0.0
	14	1	6	6	0	0	1.2867100877E+01	1.7976563363E+02	-4.1314978007E+01	3.7391599689E+02	3.2500000000E+02	0.000E+00	0.0
	-14	1	6	6	0	0	1.1162237326E+02	-1.5095987670E+02	-6.0781655635E+02	7.1436293630E+02	3.2500000000E+02	0.000E+00	0.0
	25	2	5	5	0	0	-1.2448947414E+02	-2.8805756929E+01	-1.7587318927E+02	2.5085290899E+02	1.2517348937E+02	0.000E+00	0.0
	-5	1	9	9	0	501	7.0957398102E+00	2.1058066221E+01	-7.3194739958E+01	7.6607663023E+01	4.1800000000E+00	0.000E+00	0.0
	5	1	9	9	501	0	-1.3158521395E+02	-4.9863823150E+01	-1.0267844931E+02	1.7424524596E+02	4.1800000000E+00	0.000E+00	0.0
</event>
<event>
    11  -1  1.0000000E+00  1.0000000E+00  -1.0000000E+00  -1.0000000E+00
	2212	-1	0	0	0	0	0.0000000000E+00	0.0000000000E+00	6.5000000000E+03	6.5000000000E+03	9.3827000000E-01	0.000E+00	0.0
	2212	-1	0	0	0	0	0.0000000000E+00	0.0000000000E+00	-6.5000000000E+03	6.5000000000E+03	9.3827000000E-01	0.000E+00	0.0
	2212	1	0	0	0	0	0.0000000000E+00	0.0000000000E+00	4.8524002213E+03	4.8524002213E+03	9.3827000000E-01	0.000E+00	0.0
	2212	1	0	0	0	0	0.0000000000E+00	0.0000000000E+00	-6.3328768780E+03	6.3328768780E+03	9.3827000000E-01	0.000E+00	0.0
	51	2	1	2	0	0	-2.8219750773E+01	-1.1118604928E+02	1.4285511573E+03	1.7763235000E+03	1.0494799072E+03	0.000E+00	0.0
	1000022	2	5	5	0	0	2.8219750773E+01	1.1118604928E+02	1.2973310618E+03	1.5649793605E+03	8.6771759399E+02	0.000E+00	0.0
	14	1	6	6	0	0	-9.3482866490E+01	1.1284987304E+02	1.1197637022E+03	1.1751467521E+03	3.2500000000E+02	0.000E+00	0.0
	-14	1	6	6	0	0	1.2170261726E+02	-1.6638237651E+00	1.7756735956E+02	3.8983260836E+02	3.2500000000E+02	0.000E+00	0.0
	25	2	5	5	0	0	-2.8219750773E+01	-1.1118604928E+02	1.8314559493E+02	2.4974354032E+02	1.2518320615E+02	0.000E+00	0.0
	-5	1	9	9	0	501	-2.6828570247E+01	-1.2037723312E+02	8.2172558574E+01	1.4825738504E+02	4.1800000000E+00	0.000E+00	0.0
	5	1	9	9	501	0	-1.3911805268E+00	9.1911838430E+00	1.0097303635E+02	1.0148615528E+02	4.1800000000E+00	0.000E+00	0.0
</event>
<event>
    11  -1  1.0000000E+00  1.0000000E+00  -1.0000000E+00  -1.0000000E+00
	2212	-1	0	0	0	0	0.0000000000E+00	0.0000000000E+00	6.5000000000E+03	6.5000000000E+03	9.3827000000E-01	0.000E+00	0.0
	2212	-1	0	0	0	0	0.0000000000E+00	0.0000000000E+00	-6.5000000000E+03	6.5000000000E+03	9.3827000000E-01	0.000E+00	0.0
	2212	1	0	0	0	0	0.0000000000E+00	0.0000000000E+00	6.3448267101E+03	6.3448267101E+03	9.3827000000E-01	0.000E+00	0.0
	2212	1	0	0	0	0	0.0000000000E+00	0.0000000000E+00	-4.8763187783E+03	4.8763187783E+03	9.3827000000E-01	0.000E+00	0.0
	51	2	1	2	0	0	4.2309430853E+00	-2.8801370558E+01	-1.4915624341E+03	1.7981695532E+03	1.0038963231E+03	0.000E+00	0.0
	1000022	2	5	5	0	0	-4.2309430853E+00	2.8801370558E+01	-1.2572757504E+03	1.5315933306E+03	8.7417869917E+02	0.000E+00	0.0
	14	1	6	6	0	0	-9.7731521240E+01	1.1703305541E+02	-1.8511867469E+02	4.0390854165E+02	3.2500000000E+02	0.000E+00	0.0
	-14	1	6	6	0	0	9.3500578155E+01	-8.8231684848E+01	-1.0721570757E+03	1.1276847889E+03	3.2500000000E+02	0.000E+00	0.0
	25	2	5	5	0	0	4.2309430853E+00	-2.8801370558E+01	-2.1123218145E+02	2.4726118095E+02	1.2518641021E+02	0.000E+00	0.0
	-5	1	9	9	0	501	-3.6614909259E+01	-4.8012105874E+01	-1.8552494440E+02	1.9514812652E+02	4.1800000000E+00	0.000E+00	0.0
	5	1	9	9	501	0	4.0845852345E+01	1.9210735316E+01	-2.5707237044E+01	5.2113054426E+01	4.1800000000E+00	0.000E+00	0.0
</event>
<event>
    11  -1  1.0000000E+00  1.0000000E+00  -1.0000000E+00  -1.0000000E+00
	2212	-1	0	0	0	0	0.0000000000E+00	0.0000000000E+00	6.5000000000E+03	6.5000000000E+03	9.3827000000E-01	0.000E+00	0.0
	2212	-1	0	0	0	0	0.0000000000E+00	0.0000000000E+00	-6.5000000000E+03	6.5000000000E+03	9.3827000000E-01	0.000E+00	0.0
	2212	1	0	0	0	0	0.0000000000E+00	0.0000000000E+00	4.9831493773E+03	4.9831493773E+03	9.3827000000E-01	0.000E+00	0.0
	2212	1	0	0	0	0	0.0000000000E+00	0.0000000000E+00	-6.3208773244E+03	6.3208773244E+03	9.3827000000E-01	0.000E+00	0.0
	51	2	1	2	0	0	-1.4311599350E+02	-1.7312850212E+01	1.3828921167E+03	1.7378095111E+03	1.0425014954E+03	0.000E+00	0.0
	1000022	2	5	5	0	0	1.4311599350E+02	1.7312850212E+01	1.0592013961E+03	1.3582799431E+03	8.3799456077E+02	0.000E+00	0.0
	14	1	6	6	0	0	-3.5799244646E+01	1.8953224771E+02	2.5460621199E+02	4.5569000650E+02	3.2500000000E+02	0.000E+00	0.0
	-14	1	6	6	0	0	1.7891523815E+02	-1.7221939749E+02	8.0459518413E+02	9.0258993659E+02	3.2500000000E+02	0.000E+00	0.0
	25	2	5	5	0	0	-1.4311599350E+02	-1.7312850212E+01	2.7852655105E+02	3.3769335523E+02	1.2521118222E+02	0.000E+00	0.0
	-5	1	9	9	0	501	2.2726035427E+01	1.1642069596E+00	2.4184841740E+01	3.3469494081E+01	4.1800000000E+00	0.000E+00	0.0
	5	1	9	9	501	0	-1.6584202893E+02	-1.8477057172E+01	2.5434170931E+02	3.0422386115E+02	4.1800000000E+00	0.000E+00	0.0
</event>
<event>
    11  -1  1.0000000E+00  1.0000000E+00  -1.0000000E+00  -1.0000000E+00
	2212	-1	0	0	0	0	0.0000000000E+00	0.0000000000E+00	6.5000000000E+03	6.5000000000E+03	9.3827000000E-01	0.000E+00	0.0
	2212	-1	0	0	0	0	0.0000000000E+00	0.0000000000E+00	-6.5000000000E+03	6.5000000000E+03	9.3827000000E-01	0.000E+00	0.0
	2212	1	0	0	0	0	0.0000000000E+00	0.0000000000E+00	6.2255922298E+03	6.2255922298E+03	9.3827000000E-01	0.000E+00	0.0
	2212	1	0	0	0	0	0.0000000000E+00	0.0000000000E+00	-5.4523241951E+03	5.4523241951E+03	9.3827000000E-01	0.000E+00	0.0
	51	2	1	2	0	0	-8.8471293081E+01	-9.0132013314E+01	-9.0712995623E+02	1.4102472242E+03	1.0723625909E+03	0.000E+00	0.0
	1000022	2	5	5	0	0	8.8471293081E+01	9.0132013314E+01	-5.0054724357E+02	9.9650802953E+02	8.5236715115E+02	0.000E+00	0.0
	14	1	6	6	0	0	2.1699677073E+02	-4.3086262366E+01	-4.8202930606E+02	6.2202996424E+02	3.2500000000E+02	0.000E+00	0.0
	-14	1	6	6	0	0	-1.2852547764E+02	1.3321827568E+02	-1.8517937513E+01	3.7447806530E+02	3.2500000000E+02	0.000E+00	0.0
	25	2	5	5	0	0	-8.8471293081E+01	-9.0132013314E+01	-2.7272079111E+02	3.2557554563E+02	1.2518728564E+02	0.000E+00	0.0
	-5	1	9	9	0	501	2.1069158560E+01	-4.1564792757E+01	-1.3551703740E+02	1.4336624869E+02	4.1800000000E+00	0.000E+00	0.0
	5	1	9	9	501	0	-1.0954045164E+02	-4.8567220556E+01	-1.3720375371E+02	1.8220929694E+02	4.1800000000E+00	0.000E+00	0.0
</event>
<event>
    11  -1  1.0000000E+00  1.0000000E+00  -1.0000000E+00  -1.0000000E+00
	2212	-1	0	0	0	0	0.0000000000E+00	0.0000000000E+00	6.5000000000E+03	6.5000000000E+03	9.3827000000E-01	0.000E+00	0.0
	2212	-1	0	0	0	0	0.0000000000E+00	0.0000000000E+00	-6.5000000000E+03	6.5000000000E+03	9.3827000000E-01	0.000E+00	0.0
	2212	1	0	0	0	0	0.0000000000E+00	0.0000000000E+00	4.8898855940E+03	4.8898855940E+03	9.3827000000E-01	0.000E+00	0.0
	2212	1	0	0	0	0	0.0000000000E+00	0.0000000000E+00	-6.3254749352E+03	6.3254749352E+03	9.3827000000E-01	0.000E+00	0.0
	51	2	1	2	0	0	6.6371319045E+01	3.3825693811E+00	1.2262483798E+03	1.6223818807E+03	1.0601987003E+03	0.000E+00	0.0
	1000022	2	5	5	0	0	-6.6371319045E+01	-3.3825693811E+00	1.3960415303E+03	1.6374933099E+03	8.5325013453E+02	0.000E+00	0.0
	14	1	6	6	0	0	1.6965727663E+02	3.3880537073E+01	1.0260985161E+03	1.0901534970E+03	3.2500000000E+02	0.000E+00	0.0
	-14	1	6	6	0	0	-2.3602859567E+02	-3.7263106454E+01	3.6994301417E+02	5.4733981292E+02	3.2500000000E+02	0.000E+00	0.0
	25	2	5	5	0	0	6.6371319045E+01	3.3825693811E+00	3.9547810933E+01	1.4714616083E+02	1.2518534072E+02	0.000E+00	0.0
	-5	1	9	9	0	501	3.0735564523E+01	-3.6009094621E+01	-3.2470453235E+01	5.7559817193E+01	4.1800000000E+00	0.000E+00	0.0
	5	1	9	9	501	0	3.5635754522E+01	3.9391664002E+01	7.2018264168E+01	8.9586343641E+01	4.1800000000E+00	0.000E+00	0.0
</event>
<event>
    11  -1  1.0000000E+00  1.0000000E+00  -1.0000000E+00  -1.0000000E+00
	2212	-1	0	0	0	0	0.0000000000E+00	0.0000000000E+00	6.5000000000E+03	6.5000000000E+03	9.3827000000E-01	0.000E+00	0.0
	2212	-1	0	0	0	0	0.0000000000E+00	0.0000000000E+00	-6.5000000000E+03	6.5000000000E+03	9.3827000000E-01	0.000E+00	0.0
	2212	1	0	0	0	0	0.0000000000E+00	0.0000000000E+00	5.5397834962E+03	5.5397834962E+03	9.3827000000E-01	0.000E+00	0.0
	2212	1	0	0	0	0	0.0000000000E+00	0.0000000000E+00	-6.2103518781E+03	6.2103518781E+03	9.3827000000E-01	0.000E+00	0.0
	51	2	1	2	0	0	-1.3987813098E+02	-8.3283781778E+00	6.6075084400E+02	1.2524881472E+03	1.0547509790E+03	0.000E+00	0.0
	1000022	2	5	5	0	0	1.3987813098E+02	8.3283781778E+00	5.6657797829E+02	1.0351158025E+03	8.5487944515E+02	0.000E+00	0.0
	14	1	6	6	0	0	3.0984464845E+02	-7.7205769205E+01	1.6500260663E+02	4.8457744187E+02	3.2500000000E+02	0.000E+00	0.0
	-14	1	6	6	0	0	-1.6996651747E+02	8.5534147382E+01	4.0157537166E+02	5.5053836065E+02	3.2500000000E+02	0.000E+00	0.0
	25	2	5	5	0	0	-1.3987813098E+02	-8.3283781778E+00	1.0399040362E+02	2.1474882311E+02	1.2517108122E+02	0.000E+00	0.0
	-5	1	9	9	0	501	-1.6252058781E+02	-1.6520431261E+01	8.8943810433E+01	1.8604929435E+02	4.1800000000E+00	0.000E+00	0.0
	5	1	9	9	501	0	2.2642456831E+01	8.1920530831E+00	1.5046593183E+01	2.8699528768E+01	4.1800000000E+00	0.000E+00	0.0
</event>
<event>
    11  -1  1.0000000E+00  1.0000000E+00  -1.0000000E+00  -1.0000000E+00
	2212	-1	0	0	0	0	0.0000000000E+00	0.0000000000E+00	6.5000000000E+03	6.5000000000E+03	9.3827000000E-01	0.000E+00	0.0
	2212	-1	0	0	0	0	0.0000000000E+00	0.0000000000E+00	-6.5000000000E+03	6.5000000000E+03	9.3827000000E-01	0.000E+00	0.0
	2212	1	0	0	0	0	0.0000000000E+00	0.0000000000E+00	5.2667752367E+03	5.2667752367E+03	9.3827000000E-01	0.000E+00	0.0
	2212	1	0	0	0	0	0.0000000000E+00	0.0000000000E+00	-6.2881806041E+03	6.2881806041E+03	9.3827000000E-01	0.000E+00	0.0
	51	2	1	2	0	0	4.5735452155E+01	-1.4127541698E+01	8.8497774522E+02	1.3529082106E+03	1.0221955281E+03	0.000E+00	0.0
	1000022	2	5	5	0	0	-4.5735452155E+01	1.4127541698E+01	9.9634023316E+02	1.3087065049E+03	8.4718801739E+02	0.000E+00	0.0
	14	1	6	6	0	0	-3.6400669232E+01	8.8019780855E+01	9.0004596343E+02	9.6165494166E+02	3.2500000000E+02	0.000E+00	0.0
	-14	1	6	6	0	0	-9.3347829225E+00	-7.3892239157E+01	9.6294269733E+01	3.4705156326E+02	3.2500000000E+02	0.000E+00	0.0
	25	2	5	5	0	0	4.5735452155E+01	-1.4127541698E+01	2.5065134252E+01	1.3633765434E+02	1.2517338383E+02	0.000E+00	0.0
	-5	1	9	9	0	501	8.7798100225E+01	-3.2863661310E+00	2.8765408118E+01	9.2543112708E+01	4.1800000000E+00	0.000E+00	0.0
	5	1	9	9	501	0	-4.2062648070E+01	-1.0841175567E+01	-3.7002738657E+00	4.3794541635E+01	4.1800000000E+00	0.000E+00	0.0
</event>
<event>
    11  -1  1.0000000E+00  1.0000000E+00  -1.0000000E+00  -1.0000000E+00
	2212	-1	0	0	0	0	0.0000000000E+00	0.0000000000E+00	6.5000000000E+03	6.5000000000E+03	9.3827000000E-01	0.000E+00	0.0
	2212	-1	0	0	0	0	0.0000000000E+00	0.0000000000E+00	-6.5000000000E+03	6.5000000000E+03	9.3827000000E-01	0.000E+00	0.0
	2212	1	0	0	0	0	0.0000000000E+00	0.0000000000E+00	5.8324764797E+03	5.8324764797E+03	9.3827000000E-01	0.000E+00	0.0
	2212	1	0	0	0	0	0.0000000000E+00	0.0000000000E+00	-6.0894635333E+03	6.0894635333E+03	9.3827000000E-01	0.000E+00	0.0
	51	2	1	2	0	0	1.5722929100E+02	2.8246190779E+00	3.6713953142E+02	1.1205763935E+03	1.0469818479E+03	0.000E+00	0.0
	1000022	2	5	5	0	0	-1.5722929100E+02	-2.8246190779E+00	9.5506564750E+01	8.2022271405E+02	7.9932144242E+02	0.000E+00	0.0
	14	1	6	6	0	0	-1.0584514753E+02	1.9489631017E+02	1.7096848482E+02	4.2900231908E+02	3.2500000000E+02	0.000E+00	0.0
	-14	1	6	6	0	0	-5.1384143472E+01	-1.9772092924E+02	-7.5461920068E+01	3.9122039497E+02	3.2500000000E+02	0.000E+00	0.0
	25	2	5	5	0	0	1.5722929100E+02	2.8246190779E+00	1.6148048892E+02	2.5783727294E+02	1.2520017011E+02	0.000E+00	0.0
	-5	1	9	9	0	501	5.8058175389E+01	-5.2678482477E+01	3.0113213822E+01	8.4083602994E+01	4.1800000000E+00	0.000E+00	0.0
	5	1	9	9	501	0	9.9171115611E+01	5.5503101555E+01	1.3136727510E+02	1.7375366995E+02	4.1800000000E+00	0.000E+00	0.0
</event>
<event>
    11  -1  1.0000000E+00  1.0000000E+00  -1.0000000E+00  -1.0000000E+00
	2212	-1	0	0	0	0	0.0000000000E+00	0.0000000000E+00	6.5000000000E+03	6.5000000000E+03	9.3827000000E-01	0.000E+00	0.0
	2212	-1	0	0	0	0	0.0000000000E+00	0.0000000000E+00	-6.5000000000E+03	6.5000000000E+03	9.3827000000E-01	0.000E+00	0.0
	2212	1	0	0	0	0	0.0000000000E+00	0.0000000000E+00	6.1843187573E+03	6.1843187573E+03	9.3827000000E-01	0.000E+00	0.0
	2212	1	0	0	0	0	0.0000000000E+00	0.0000000000E+00	-5.5854262367E+03	5.5854262367E+03	9.3827000000E-01	0.000E+00	0.0
	51	2	1	2	0	0	1.5912772256E+02	3.0095525690E+01	-5.9061986963E+02	1.2368970579E+03	1.0746418606E+03	0.000E+00	0.0
	1000022	2	5	5	0	0	-1.5912772256E+02	-3.0095525690E+01	-4.9966400993E+02	1.0027822745E+03	8.5421355326E+02	0.000E+00	0.0
	14	1	6	6	0	0	-1.1058459831E+02	-2.8326974352E+02	-3.3240681835E+02	5.5550877028E+02	3.2500000000E+02	0.000E+00	0.0
	-14	1	6	6	0	0	-4.8543124249E+01	2.5317421783E+02	-1.6725719158E+02	4.4727350427E+02	3.2500000000E+02	0.000E+00	0.0
	25	2	5	5	0	0	1.5912772256E+02	3.0095525690E+01	-9.9228510717E+01	2.2747273148E+02	1.2518056349E+02	0.000E+00	0.0
	-5	1	9	9	0	501	1.1199611025E+02	5.4608305462E+01	-1.1989243443E+01	1.2524539949E+02	4.1800000000E+00	0.000E+00	0.0
	5	1	9	9	501	0	4.7131612309E+01	-2.4512779773E+01	-8.7239267274E+01	1.0222733199E+02	4.1800000000E+00	0.000E+00	0.0
</event>
<event>
    11  -1  1.0000000E+00  1.0000000E+00  -1.0000000E+00  -1.0000000E+00
	2212	-1	0	0	0	0	0.0000000000E+00	0.0000000000E+00	6.5000000000E+03	6.5000000000E+03	9.3827000000E-01	0.000E+00	0.0
	2212	-1	0	0	0	0	0.0000000000E+00	0.0000000000E+00	-6.5000000000E+03	6.5000000000E+03	9.3827000000E-01	0.000E+00	0.0
	2212	1	0	0	0	0	0.0000000000E+00	0.0000000000E+00	6.3183945857E+03	6.3183945857E+03	9.3827000000E-01	0.000E+00	0.0
	2212	1	0	0	0	0	0.0000000000E+00	0.0000000000E+00	-5.0043267235E+03	5.0043267235E+03	9.3827000000E-01	0.000E+00	0.0
	51	2	1	2	0	0	-4.2001175402E+01	8.0618042992E+00	-1.1218794289E+03	1.5319699751E+03	1.0423480514E+03	0.000E+00	0.0
	1000022	2	5	5	0	0	4.2001175402E+01	-8.0618042992E+00	-1.2865824729E+03	1.5421953261E+03	8.4926019161E+02	0.000E+00	0.0
	14	1	6	6	0	0	-5.6145924223E+01	-2.0542719780E+02	-3.3597721859E+02	5.1367148044E+02	3.2500000000E+02	0.000E+00	0.0
	-14	1	6	6	0	0	9.8147099625E+01	1.9736539350E+02	-9.5060525427E+02	1.0285238457E+03	3.2500000000E+02	0.000E+00	0.0
	25	2	5	5	0	0	-4.2001175402E+01	8.0618042992E+00	-2.7485389364E+01	1.3508336473E+02	1.2515181731E+02	0.000E+00	0.0
	-5	1	9	9	0	501	-4.6922336167E+00	6.0567892115E+01	8.0145048372E+00	6.1418167502E+01	4.1800000000E+00	0.000E+00	0.0
	5	1	9	9	501	0	-3.7308941785E+01	-5.2506087815E+01	-3.5499894201E+01	7.3665197231E+01	4.1800000000E+00	0.000E+00	0.0
</event>
<event>
    11  -1  1.0000000E+00  1.0000000E+00  -1.0000000E+00  -1.0000000E+00
	2212	-1	0	0	0	0	0.0000000000E+00	0.0000000000E+00	6.5000000000E+03	6.5000000000E+03	9.3827000000E-01	0.000E+00	0.0
	2212	-1	0	0	0	0	0.0000000000E+00	0.0000000000E+00	-6.5000000000E+03	6.5000000000E+03	9.3827000000E-01	0.000E+00	0.0
	2212	1	0	0	0	0	0.0000000000E+00	0.0000000000E+00	6.2800670083E+03	6.2800670083E+03	9.3827000000E-01	0.000E+00	0.0
	2212	1	0	0	0	0	0.0000000000E+00	0.0000000000E+00	-5.2473886496E+03	5.2473886496E+03	9.3827000000E-01	0.000E+00	0.0
	51	2	1	2	0	0	9.7390701562E+01	7.4127944801E+01	-9.5987755890E+02	1.4276929208E+03	1.0497438959E+03	0.000E+00	0.0
	1000022	2	5	5	0	0	-9.7390701562E+01	-7.4127944801E+01	-9.3260772863E+02	1.2708903111E+03	8.5464911296E+02	0.000E+00	0.0
	14	1	6	6	0	0	-6.8543419762E+01	-3.1500003276E+02	-5.0111592157E+02	6.7872335150E+02	3.2500000000E+02	0.000E+00	0.0
	-14	1	6	6	0	0	-2.8847281801E+01	2.4087208795E+02	-4.3149180706E+02	5.9216695955E+02	3.2500000000E+02	0.000E+00	0.0
	25	2	5	5	0	0	9.7390701562E+01	7.4127944801E+01	-1.0007063009E+02	2.0165403106E+02	1.2518113390E+02	0.000E+00	0.0
	-5	1	9	9	0	501	6.4635178372E+01	2.2018993695E+01	-1.1888090063E+02	1.3715933545E+02	4.1800000000E+00	0.000E+00	0.0
	5	1	9	9	501	0	3.2755523191E+01	5.2108951106E+01	1.8810270535E+01	6.4494695615E+01	4.1800000000E+00	0.000E+00	0.0
</event>
<event>
    11  -1  1.0000000E+00  1.0000000E+00  -1.0000000E+00  -1.0000000E+00
	2212	-1	0	0	0	0	0.0000000000E+00	0.0000000000E+00	6.5000000000E+03	6.5000000000E+03	9.3827000000E-01	0.000E+00	0.0
	2212	-1	0	0	0	0	0.0000000000E+00	0.0000000000E+00	-6.5000000000E+03	6.5000000000E+03	9.3827000000E-01	0.000E+00	0.0
	2212	1	0	0	0	0	0.0000000000E+00	0.0000000000E+00	6.1567983244E+03	6.1567983244E+03	9.3827000000E-01	0.000E+00	0.0
	2212	1	0	0	0	0	0.0000000000E+00	0.0000000000E+00	-5.5654116996E+03	5.5654116996E+03	9.3827000000E-01	0.000E+00	0.0
	51	2	1	2	0	0	4.2253450590E+00	-2.0564736749E+02	-7.8075289835E+02	1.3910042647E+03	1.1326999085E+03	0.000E+00	0.0
	1000022	2	5	5	0	0	-4.2253450590E+00	2.0564736749E+02	-2.6770838189E+02	8.7437215380E+02	8.0656691744E+02	0.000E+00	0.0
	14	1	6	6	0	0	5.5589024893E+01	-9.4300849055E+01	-2.5596330548E+02	4.2793107339E+02	3.2500000000E+02	0.000E+00	0.0
	-14	1	6	6	0	0	-5.9814369951E+01	2.9994821654E+02	-1.1745076413E+01	4.4644108041E+02	3.2500000000E+02	0.000E+00	0.0
	25	2	5	5	0	0	4.2253450590E+00	-2.0564736749E+02	-3.2367824295E+02	4.0341782220E+02	1.2517843670E+02	0.000E+00	0.0
	-5	1	9	9	0	501	6.2889381774E+01	-1.3380624972E+02	-1.9550119226E+02	2.4514766036E+02	4.1800000000E+00	0.000E+00	0.0
	5	1	9	9	501	0	-5.8664036715E+01	-7.1841117772E+01	-1.2817705069E+02	1.5827016184E+02	4.1800000000E+00	0.000E+00	0.0
</event>
<event>
    11  -1  1.0000000E+00  1.0000000E+00  -1.0000000E+00  -1.0000000E+00
	2212	-1	0	0	0	0	0.0000000000E+00	0.0000000000E+00	6.5000000000E+03	6.5000000000E+03	9.3827000000E-01	0.000E+00	0.0
	2212	-1	0	0	0	0	0.0000000000E+00	0.0000000000E+00	-6.5000000000E+03	6.5000000000E+03	9.3827000000E-01	0.000E+00	0.0
	2212	1	0	0	0	0	0.0000000000E+00	0.0000000000E+00	6.2629116497E+03	6.2629116497E+03	9.3827000000E-01	0.000E+00	0.0
	2212	1	0	0	0	0	0.0000000000E+00	0.0000000000E+00	-5.3245695164E+03	5.3245695164E+03	9.3827000000E-01	0.000E+00	0.0
	51	2	1	2	0	0	-1.3301173821E+02	2.2723050202E+01	-8.7226968891E+02	1.3761491077E+03	1.0558046680E+03	0.000E+00	0.0
	1000022	2	5	5	0	0	1.3301173821E+02	-2.2723050202E+01	-8.4234712173E+02	1.2049228190E+03	8.5093000114E+02	0.000E+00	0.0
	14	1	6	6	0	0	2.7177627120E+02	1.3225937820E+02	-6.1041279901E+02	7.5470767182E+02	3.2500000000E+02	0.000E+00	0.0
	-14	1	6	6	0	0	-1.3876453299E+02	-1.5498242840E+02	-2.3193432272E+02	4.5021514722E+02	3.2500000000E+02	0.000E+00	0.0
	25	2	5	5	0	0	-1.3301173821E+02	2.2723050202E+01	-9.5995011570E+01	2.0759601488E+02	1.2519026974E+02	0.000E+00	0.0
	-5	1	9	9	0	501	-3.5211129356E+01	-5.1106864695E+00	2.9226615035E+01	4.6234296503E+01	4.1800000000E+00	0.000E+00	0.0
	5	1	9	9	501	0	-9.7800608853E+01	2.7833736672E+01	-1.2522162661E+02	1.6136171838E+02	4.1800000000E+00	0.000E+00	0.0
</event>
<event>
    11  -1  1.0000000E+00  1.0000000E+00  -1.0000000E+00  -1.0000000E+00
	2212	-1	0	0	0	0	0.0000000000E+00	0.0000000000E+00	6.5000000000E+03	6.5000000000E+03	9.3827000000E-01	0.000E+00	0.0
	2212	-1	0	0	0	0	0.0000000000E+00	0.0000000000E+00	-6.5000000000E+03	6.5000000000E+03	9.3827000000E-01	0.000E+00	0.0
	2212	1	0	0	0	0	0.0000000000E+00	0.0000000000E+00	6.0258694741E+03	6.0258694741E+03	9.3827000000E-01	0.000E+00	0.0
	2212	1	0	0	0	0	0.0000000000E+00	0.0000000000E+00	-5.9168503266E+03	5.9168503266E+03	9.3827000000E-01	0.000E+00	0.0
	51	2	1	2	0	0	-8.5821032769E+00	-1.3880832591E+02	-6.7293199109E+01	1.0629327466E+03	1.0516445432E+03	0.000E+00	0.0
	1000022	2	5	5	0	0	8.5821032769E+00	1.3880832591E+02	-1.3189004514E+02	8.6876920732E+02	8.4736270141E+02	0.000E+00	0.0
	14	1	6	6	0	0	1.1513091503E+02	1.7284913916E+02	1.6027189638E+02	4.1766497732E+02	3.2500000000E+02	0.000E+00	0.0
	-14	1	6	6	0	0	-1.0654881175E+02	-3.4040813258E+01	-2.9216194152E+02	4.5110423000E+02	3.2500000000E+02	0.000E+00	0.0
	25	2	5	5	0	0	-8.5821032769E+00	-1.3880832591E+02	2.2870897670E+01	1.8851099200E+02	1.2518750858E+02	0.000E+00	0.0
	-5	1	9	9	0	501	-4.8148013935E+00	2.0770883301E+01	-1.2353085436E+01	2.4993659703E+01	4.1800000000E+00	0.000E+00	0.0
	5	1	9	9	501	0	-3.7673018834E+00	-1.5957920921E+02	3.5223983106E+01	1.6351733229E+02	4.1800000000E+00	0.000E+00	0.0
</event>
<event>
    11  -1  1.0000000E+00  1.0000000E+00  -1.0000000E+00  -1.0000000E+00
	2212	-1	0	0	0	0	0.0000000000E+00	0.0000000000E+00	6.5000000000E+03	6.5000000000E+03	9.3827000000E-01	0.000E+00	0.0
	2212	-1	0	0	0	0	0.0000000000E+00	0.0000000000E+00	-6.5000000000E+03	6.5000000000E+03	9.3827000000E-01	0.000E+00	0.0
	2212	1	0	0	0	0	0.0000000000E+00	0.0000000000E+00	6.0175876359E+03	6.0175876359E+03	9.3827000000E-01	0.000E+00	0.0
	2212	1	0	0	0	0	0.0000000000E+00	0.0000000000E+00	-5.9797352678E+03	5.9797352678E+03	9.3827000000E-01	0.000E+00	0.0
	51	2	1	2	0	0	-2.5706517843E+01	5.0142529659E+01	1.6431619463E+01	1.0036800557E+03	1.0019623534E+03	0.000E+00	0.0
	1000022	2	5	5	0	0	2.5706517843E+01	-5.0142529659E+01	-8.6673708799E+01	8.5697325976E+02	8.5071483930E+02	0.000E+00	0.0
	14	1	6	6	0	0	7.8388952974E+01	-1.1069026597E+02	2.0969465703E+02	4.0987072610E+02	3.2500000000E+02	0.000E+00	0.0
	-14	1	6	6	0	0	-5.2682435131E+01	6.0547736310E+01	-2.9636836582E+02	4.4710253366E+02	3.2500000000E+02	0.000E+00	0.0
	25	2	5	5	0	0	-2.5706517843E+01	5.0142529659E+01	4.8821340714E+01	1.4570383655E+02	1.2518381020E+02	0.000E+00	0.0
	-5	1	9	9	0	501	-4.9336150117E+01	5.1249160237E+01	7.9484771320E+01	1.0675126887E+02	4.1800000000E+00	0.000E+00	0.0
	5	1	9	9	501	0	2.3629632273E+01	-1.1066305782E+00	-3.0663430606E+01	3.8952567684E+01	4.1800000000E+00	0.000E+00	0.0
</event>
<event>
    11  -1  1.0000000E+00  1.0000000E+00  -1.0000000E+00  -1.0000000E+00
	2212	-1	0	0	0	0	0.0000000000E+00	0.0000000000E+00	6.5000000000E+03	6.5000000000E+03	9.3827000000E-01	0.000E+00	0.0
	2212	-1	0	0	0	0	0.0000000000E+00	0.0000000000E+00	-6.5000000000E+03	6.5000000000E+03	9.3827000000E-01	0.000E+00	0.0
	2212	1	0	0	0	0	0.0000000000E+00	0.0000000000E+00	6.1562166020E+03	6.1562166020E+03	9.3827000000E-01	0.000E+00	0.0
	2212	1	0	0	0	0	0.0000000000E+00	0.0000000000E+00	-5.6507965915E+03	5.6507965915E+03	9.3827000000E-01	0.000E+00	0.0
	51	2	1	2	0	0	-2.5867795938E+01	1.7088064529E+02	-5.1613887099E+02	1.2099738862E+03	1.0806332095E+03	0.000E+00	0.0
	1000022	2	5	5	0	0	2.5867795938E+01	-1.7088064529E+02	-4.0130413849E+02	9.5554663768E+02	8.4979705072E+02	0.000E+00	0.0
	14	1	6	6	0	0	1.9033587316E+02	-1.3522349786E+02	-4.3127680835E+02	5.8833478939E+02	3.2500000000E+02	0.000E+00	0.0
	-14	1	6	6	0	0	-1.6446807723E+02	-3.5657147431E+01	2.9972669856E+01	3.6721184829E+02	3.2500000000E+02	0.000E+00	0.0
	25	2	5	5	0	0	-2.5867795938E+01	1.7088064529E+02	-1.0411587204E+02	2.3744016880E+02	1.2517340432E+02	0.000E+00	0.0
	-5	1	9	9	0	501	-5.6129255423E+00	1.7487833054E+02	-5.4131113326E+01	1.8319821303E+02	4.1800000000E+00	0.000E+00	0.0
	5	1	9	9	501	0	-2.0254870396E+01	-3.9976852560E+00	-4.9984758718E+01	5.4241955775E+01	4.1800000000E+00	0.000E+00	0.0
</event>
<event>
    11  -1  1.0000000E+00  1.0000000E+00  -1.0000000E+00  -1.0000000E+00
	2212	-1	0	0	0	0	0.0000000000E+00	0.0000000000E+00	6.5000000000E+03	6.5000000000E+03	9.3827000000E-01	0.000E+00	0.0
	2212	-1	0	0	0	0	0.0000000000E+00	0.0000000000E+00	-6.5000000000E+03	6.5000000000E+03	9.3827000000E-01	0.000E+00	0.0
	2212	1	0	0	0	0	0.0000000000E+00	0.0000000000E+00	6.1064250548E+03	6.1064250548E+03	9.3827000000E-01	0.000E+00	0.0
	2212	1	0	0	0	0	0.0000000000E+00	0.0000000000E+00	-5.8014620696E+03	5.8014620696E+03	9.3827000000E-01	0.000E+00	0.0
	51	2	1	2	0	0	1.9576870461E+00	5.1932171758E+01	-4.5408850168E+02	1.1439428574E+03	1.0486696862E+03	0.000E+00	0.0
	1000022	2	5	5	0	0	-1.9576870461E+00	-5.1932171758E+01	-1.0219898254E+02	8.4819636441E+02	8.4041160009E+02	0.000E+00	0.0
	14	1	6	6	0	0	-2.2016652497E+02	1.2563459658E+02	-5.0277791061E+01	4.1522308083E+02	3.2500000000E+02	0.000E+00	0.0
	-14	1	6	6	0	0	2.1820883793E+02	-1.7756676834E+02	-5.1921191481E+01	4.3297328358E+02	3.2500000000E+02	0.000E+00	0.0
	25	2	5	5	0	0	1.9576870461E+00	5.1932171758E+01	-2.0276400268E+02	2.4391651121E+02	1.2522476055E+02	0.000E+00	0.0
	-5	1	9	9	0	501	-5.7494793421E+01	1.0036894943E+01	-1.2100016126E+02	1.3440573632E+02	4.1800000000E+00	0.000E+00	0.0
	5	1	9	9	501	0	5.9452480467E+01	4.1895276815E+01	-8.1763841416E+01	1.0951077489E+02	4.1800000000E+00	0.000E+00	0.0
</event>
<event>
    11  -1  1.0000000E+00  1.0000000E+00  -1.0000000E+00  -1.0000000E+00
	2212	-1	0	0	0	0	0.0000000000E+00	0.0000000000E+00	6.5000000000E+03	6.5000000000E+03	9.3827000000E-01	0.000E+00	0.0
	2212	-1	0	0	0	0	0.0000000000E+00	0.0000000000E+00	-6.5000000000E+03	6.5000000000E+03	9.3827000000E-01	0.000E+00	0.0
	2212	1	0	0	0	0	0.0000000000E+00	0.0000000000E+00	6.1076598481E+03	6.1076598481E+03	9.3827000000E-01	0.000E+00	0.0
	2212	1	0	0	0	0	0.0000000000E+00	0.0000000000E+00	-5.7889116077E+03	5.7889116077E+03	9.3827000000E-01	0.000E+00	0.0
	51	2	1	2	0	0	8.3860366499E+01	-1.1355095975E+02	-3.7442614919E+02	1.1296350889E+03	1.0563872923E+03	0.000E+00	0.0
	1000022	2	5	5	0	0	-8.3860366499E+01	1.1355095975E+02	-2.0734615014E+02	8.8431849581E+02	8.4799787413E+02	0.000E+00	0.0
	14	1	6	6	0	0	-1.9113305694E+02	2.7781951801E+02	-1.8654359735E+02	5.0412205244E+02	3.2500000000E+02	0.000E+00	0.0
	-14	1	6	6	0	0	1.0727269044E+02	-1.6426855826E+02	-2.0802552797E+01	3.8019644337E+02	3.2500000000E+02	0.000E+00	0.0
	25	2	5	5	0	0	8.3860366499E+01	-1.1355095975E+02	-1.1140209022E+02	2.1911004838E+02	1.2518948066E+02	0.000E+00	0.0
	-5	1	9	9	0	501	7.7311862109E+01	-5.2874921987E+01	-1.2518791397E+02	1.5640449994E+02	4.1800000000E+00	0.000E+00	0.0
	5	1	9	9	501	0	6.5485043892E+00	-6.0676037761E+01	1.3785823756E+01	6.2705548437E+01	4.1800000000E+00	0.000E+00	0.0
</event>
<event>
    11  -1  1.0000000E+00  1.0000000E+00  -1.0000000E+00  -1.0000000E+00
	2212	-1	0	0	0	0	0.0000000000E+00	0.0000000000E+00	6.5000000000E+03	6.5000000000E+03	9.3827000000E-01	0.000E+00	0.0
	2212	-1	0	0	0	0	0.0000000000E+00	0.0000000000E+00	-6.5000000000E+03	6.5000000000E+03	9.3827000000E-01	0.000E+00	0.0
	2212	1	0	0	0	0	0.0000000000E+00	0.0000000000E+00	6.1177845378E+03	6.1177845378E+03	9.3827000000E-01	0.000E+00	0.0
	2212	1	0	0	0	0	0.0000000000E+00	0.0000000000E+00	-5.6958664520E+03	5.6958664520E+03	9.3827000000E-01	0.000E+00	0.0
	51	2	1	2	0	0	-6.6117579474E+01	1.8249011658E+02	-4.5236237304E+02	1.2131426118E+03	1.1087872217E+03	0.000E+00	0.0
	1000022	2	5	5	0	0	6.6117579474E+01	-1.8249011658E+02	-3.0967631318E+02	9.2955729048E+02	8.5469477615E+02	0.000E+00	0.0
	14	1	6	6	0	0	1.1729007152E+02	7.1372794501E+01	7.7900314972E+01	3.6130941829E+02	3.2500000000E+02	0.000E+00	0.0
	-14	1	6	6	0	0	-5.1172492050E+01	-2.5386291108E+02	-3.8757662815E+02	5.6824787219E+02	3.2500000000E+02	0.000E+00	0.0
	25	2	5	5	0	0	-6.6117579474E+01	1.8249011658E+02	-1.1224177260E+02	2.5679171976E+02	1.2517825232E+02	0.000E+00	0.0
	-5	1	9	9	0	501	-2.7104381971E+01	3.6374628971E+00	1.7179366325E+01	3.2565037781E+01	4.1800000000E+00	0.000E+00	0.0
	5	1	9	9	501	0	-3.9013197503E+01	1.7885265368E+02	-1.2942113892E+02	2.2422668198E+02	4.1800000000E+00	0.000E+00	0.0
</event>
<event>
    11  -1  1.0000000E+00  1.0000000E+00  -1.0000000E+00  -1.0000000E+00
	2212	-1	0	0	0	0	0.0000000000E+00	0.0000000000E+00	6.5000000000E+03	6.5000000000E+03	9.3827000000E-01	0.000E+00	0.0
	2212	-1	0	0	0	0	0.0000000000E+00	0.0000000000E+00	-6.5000000000E+03	6.5000000000E+03	9.3827000000E-01	0.000E+00	0.0
	2212	1	0	0	0	0	0.0000000000E+00	0.0000000000E+00	6.0926474245E+03	6.0926474245E+03	9.3827000000E-01	0.000E+00	0.0
	2212	1	0	0	0	0	0.0000000000E+00	0.0000000000E+00	-5.8323969195E+03	5.8323969195E+03	9.3827000000E-01	0.000E+00	0.0
	51	2	1	2	0	0	1.1143210771E+01	-1.2897731539E+02	-1.9172231638E+02	1.0683239689E+03	1.0429761919E+03	0.000E+00	0.0
	1000022	2	5	5	0	0	-1.1143210771E+01	1.2897731539E+02	-2.8321797693E+02	8.9340038747E+02	8.3737238482E+02	0.000E+00	0.0
	14	1	6	6	0	0	-2.3295755072E+02	1.4740595611E+02	-2.5909414859E+02	4.9875095405E+02	3.2500000000E+02	0.000E+00	0.0
	-14	1	6	6	0	0	2.2181433995E+02	-1.8428640719E+01	-2.4123828344E+01	3.9464943342E+02	3.2500000000E+02	0.000E+00	0.0
	25	2	5	5	0	0	1.1143210771E+01	-1.2897731539E+02	2.2967471869E+01	1.8155526849E+02	1.2520180398E+02	0.000E+00	0.0
	-5	1	9	9	0	501	2.1701627038E+01	-1.4455578131E+02	4.4304208643E+01	1.5279944316E+02	4.1800000000E+00	0.000E+00	0.0
	5	1	9	9	501	0	-1.0558416267E+01	1.5578465917E+01	-2.1336736774E+01	2.8755825333E+01	4.1800000000E+00	0.000E+00	0.0
</event>
<event>
    11  -1  1.0000000E+00  1.0000000E+00  -1.0000000E+00  -1.0000000E+00
	2212	-1	0	0	0	0	0.0000000000E+00	0.0000000000E+00	6.5000000000E+03	6.5000000000E+03	9.3827000000E-01	0.000E+00	0.0
	2212	-1	0	0	0	0	0.0000000000E+00	0.0000000000E+00	-6.5000000000E+03	6.5000000000E+03	9.3827000000E-01	0.000E+00	0.0
	2212	1	0	0	0	0	0.0000000000E+00	0.0000000000E+00	6.1404360462E+03	6.1404360462E+03	9.3827000000E-01	0.000E+00	0.0
	2212	1	0	0	0	0	0.0000000000E+00	0.0000000000E+00	-5.7465816032E+03	5.7465816032E+03	9.3827000000E-01	0.000E+00	0.0
	51	2	1	2	0	0	4.8010015691E+00	-6.5936341251E+01	-2.7726260224E+02	1.0792838328E+03	1.0409651245E+03	0.000E+00	0.0
	1000022	2	5	5	0	0	-4.8010015691E+00	6.5936341251E+01	-4.4522685102E+02	9.6237908167E+02	8.5063264530E+02	0.000E+00	0.0
	14	1	6	6	0	0	2.5151841585E+02	-6.9636294044E+01	-1.9650565891E+02	4.6081471433E+02	3.2500000000E+02	0.000E+00	0.0
	-14	1	6	6	0	0	-2.5631941742E+02	1.3557263530E+02	-2.4872119211E+02	5.0156436734E+02	3.2500000000E+02	0.000E+00	0.0
	25	2	5	5	0	0	4.8010015691E+00	-6.5936341251E+01	5.1372408035E+01	1.5060326887E+02	1.2518613970E+02	0.000E+00	0.0
	-5	1	9	9	0	501	5.7154272384E+01	-5.5790645378E+01	5.4880214030E+01	9.6997511594E+01	4.1800000000E+00	0.000E+00	0.0
	5	1	9	9	501	0	-5.2353270815E+01	-1.0145695873E+01	-3.5078059953E+00	5.3605757272E+01	4.1800000000E+00	0.000E+00	0.0
</event>
<event>
    11  -1  1.0000000E+00  1.0000000E+00  -1.0000000E+00  -1.0000000E+00
	2212	-1	0	0	0	0	0.0000000000E+00	0.0000000000E+00	6.5000000000E+03	6.5000000000E+03	9.3827000000E-01	0.000E+00	0.0
	2212	-1	0	0	0	0	0.0000000000E+00	0.0000000000E+00	-6.5000000000E+03	6.5000000000E+03	9.3827000000E-01	0.000E+00	0.0
	2212	1	0	0	0	0	0.0000000000E+00	0.0000000000E+00	6.3310724716E+03	6.3310724716E+03	9.3827000000E-01	0.000E+00	0.0
	2212	1	0	0	0	0	0.0000000000E+00	0.0000000000E+00	-4.8685449509E+03	4.8685449509E+03	9.3827000000E-01	0.000E+00	0.0
	51	2	1	2	0	0	1.2858864873E+02	-4.0127918322E+00	-1.5789378087E+03	1.9005226711E+03	1.0499479398E+03	0.000E+00	0.0
	1000022	2	5	5	0	0	-1.2858864873E+02	4.0127918322E+00	-1.0957328526E+03	1.3920173945E+03	8.4884085638E+02	0.000E+00	0.0
	14	1	6	6	0	0	-1.6606863765E+02	8.1600672703E+00	-9.7864450280E+02	1.0445168462E+03	3.2500000000E+02	0.000E+00	0.0
	-14	1	6	6	0	0	3.7479988915E+01	-4.1472754380E+00	-1.1708834977E+02	3.4750054837E+02	3.2500000000E+02	0.000E+00	0.0
	25	2	5	5	0	0	1.2858864873E+02	-4.0127918322E+00	-3.6679466816E+02	4.0836518292E+02	1.2519045872E+02	0.000E+00	0.0
	-5	1	9	9	0	501	7.3030169866E+00	-1.2152708417E+00	-2.0952048382E+02	2.0969290995E+02	4.1800000000E+00	0.000E+00	0.0
	5	1	9	9	501	0	1.2128563174E+02	-2.7975209906E+00	-1.5727418433E+02	1.9867227298E+02	4.1800000000E+00	0.000E+00	0.0
</event>
<event>
    11  -1  1.0000000E+00  1.0000000E+00  -1.0000000E+00  -1.0000000E+00
	2212	-1	0	0	0	0	0.0000000000E+00	0.0000000000E+00	6.5000000000E+03	6.5000000000E+03	9.3827000000E-01	0.000E+00	0.0
	2212	-1	0	0	0	0	0.0000000000E+00	0.0000000000E+00	-6.5000000000E+03	6.5000000000E+03	9.3827000000E-01	0.000E+00	0.0
	2212	1	0	0	0	0	0.0000000000E+00	0.0000000000E+00	6.3154848113E+03	6.3154848113E+03	9.3827000000E-01	0.000E+00	0.0
	2212	1	0	0	0	0	0.0000000000E+00	0.0000000000E+00	-5.0040825151E+03	5.0040825151E+03	9.3827000000E-01	0.000E+00	0.0
	51	2	1	2	0	0	-1.3636894255E+02	1.0853033451E+01	-1.2771320601E+03	1.6594753881E+03	1.0507511541E+03	0.000E+00	0.0
	1000022	2	5	5	0	0	1.3636894255E+02	-1.0853033451E+01	-1.1230416799E+03	1.4161104841E+03	8.5172296640E+02	0.000E+00	0.0
	14	1	6	6	0	0	-1.5253765510E+02	1.6183227812E+02	-4.8019688563E+02	6.2102453369E+02	3.2500000000E+02	0.000E+00	0.0
	-14	1	6	6	0	0	2.8890659765E+02	-1.7268531158E+02	-6.4284479427E+02	7.9508595040E+02	3.2500000000E+02	0.000E+00	0.0
	25	2	5	5	0	0	-1.3636894255E+02	1.0853033451E+01	-1.8836061628E+02	2.6432218947E+02	1.2518874252E+02	0.000E+00	0.0
	-5	1	9	9	0	501	-1.3181837985E+02	3.1581862579E+01	-1.9852498829E+02	2.4042284144E+02	4.1800000000E+00	0.000E+00	0.0
	5	1	9	9	501	0	-4.5505626988E+00	-2.0728829128E+01	1.0164372008E+01	2.3899348029E+01	4.1800000000E+00	0.000E+00	0.0
</event>
<event>
    11  -1  1.0000000E+00  1.0000000E+00  -1.0000000E+00  -1.0000000E+00
	2212	-1	0	0	0	0	0.0000000000E+00	0.0000000000E+00	6.5000000000E+03	6.5000000000E+03	9.3827000000E-01	0.000E+00	0.0
	2212	-1	0	0	0	0	0.0000000000E+00	0.0000000000E+00	-6.5000000000E+03	6.5000000000E+03	9.3827000000E-01	0.000E+00	0.0
	2212	1	0	0	0	0	0.0000000000E+00	0.0000000000E+00	6.2661316222E+03	6.2661316222E+03	9.3827000000E-01	0.000E+00	0.0
	2212	1	0	0	0	0	0.0000000000E+00	0.0000000000E+00	-5.3144795422E+03	5.3144795422E+03	9.3827000000E-01	0.000E+00	0.0
	51	2	1	2	0	0	8.4070298941E+01	-8.4236965137E+01	-1.1383806343E+03	1.5553446997E+03	1.0531016024E+03	0.000E+00	0.0
	1000022	2	5	5	0	0	-8.4070298941E+01	8.4236965137E+01	-5.8331449072E+02	1.0125631417E+03	8.1906326942E+02	0.000E+00	0.0
	14	1	6	6	0	0	-1.1788898065E+02	-6.1424469024E+01	-5.5097616331E+02	6.5335328092E+02	3.2500000000E+02	0.000E+00	0.0
	-14	1	6	6	0	0	3.3818681709E+01	1.4566143416E+02	-3.2338327411E+01	3.5920986074E+02	3.2500000000E+02	0.000E+00	0.0
	25	2	5	5	0	0	8.4070298941E+01	-8.4236965137E+01	-3.6833758934E+02	4.0682569391E+02	1.2518340166E+02	0.000E+00	0.0
	-5	1	9	9	0	501	2.5107998412E+01	-3.6911685949E+01	-1.7862717108E+01	4.8264202120E+01	4.1800000000E+00	0.000E+00	0.0
	5	1	9	9	501	0	5.8962300529E+01	-4.7325279189E+01	-3.5047487223E+02	3.5856149179E+02	4.1800000000E+00	0.000E+00	0.0
</event>
<event>
    11  -1  1.0000000E+00  1.0000000E+00  -1.0000000E+00  -1.0000000E+00
	2212	-1	0	0	0	0	0.0000000000E+00	0.0000000000E+00	6.5000000000E+03	6.5000000000E+03	9.3827000000E-01	0.000E+00	0.0
	2212	-1	0	0	0	0	0.0000000000E+00	0.0000000000E+00	-6.5000000000E+03	6.5000000000E+03	9.3827000000E-01	0.000E+00	0.0
	2212	1	0	0	0	0	0.0000000000E+00	0.0000000000E+00	6.1379036608E+03	6.1379036608E+03	9.3827000000E-01	0.000E+00	0.0
	2212	1	0	0	0	0	0.0000000000E+00	0.0000000000E+00	-5.7398601116E+03	5.7398601116E+03	9.3827000000E-01	0.000E+00	0.0
	51	2	1	2	0	0	-1.1506933985E+01	-1.2975963940E+01	-3.1937112690E+02	1.0969385513E+03	1.0492737886E+03	0.000E+00	0.0
	1000022	2	5	5	0	0	1.1506933985E+01	1.2975963940E+01	-4.2211425414E+02	9.9359088600E+02	8.9930062828E+02	0.000E+00	0.0
	14	1	6	6	0	0	-2.5785799776E+02	1.6379157351E+02	-1.5726178057E+02	4.7294259079E+02	3.2500000000E+02	0.000E+00	0.0
	-14	1	6	6	0	0	2.6936493174E+02	-1.5081560957E+02	-2.6485247358E+02	5.2064829521E+02	3.2500000000E+02	0.000E+00	0.0
	25	2	5	5	0	0	-1.1506933985E+01	-1.2975963940E+01	2.4070704990E+01	1.2864534161E+02	1.2517763342E+02	0.000E+00	0.0
	-5	1	9	9	0	501	-6.3313381970E+00	5.1036675344E+01	-1.4523770758E+01	5.3602615520E+01	4.1800000000E+00	0.000E+00	0.0
	5	1	9	9	501	0	-5.1755957881E+00	-6.4012639285E+01	3.8594475748E+01	7.5042726085E+01	4.1800000000E+00	0.000E+00	0.0
</event>
<event>
    11  -1  1.0000000E+00  1.0000000E+00  -1.0000000E+00  -1.0000000E+00
	2212	-1	0	0	0	0	0.0000000000E+00	0.0000000000E+00	6.5000000000E+03	6.5000000000E+03	9.3827000000E-01	0.000E+00	0.0
	2212	-1	0	0	0	0	0.0000000000E+00	0.0000000000E+00	-6.5000000000E+03	6.5000000000E+03	9.3827000000E-01	0.000E+00	0.0
	2212	1	0	0	0	0	0.0000000000E+00	0.0000000000E+00	6.2431041155E+03	6.2431041155E+03	9.3827000000E-01	0.000E+00	0.0
	2212	1	0	0	0	0	0.0000000000E+00	0.0000000000E+00	-5.4456625059E+03	5.4456625059E+03	9.3827000000E-01	0.000E+00	0.0
	51	2	1	2	0	0	2.5647236492E+01	4.5797081271E+01	-6.6022423869E+02	1.2337224368E+03	1.0408745613E+03	0.000E+00	0.0
	1000022	2	5	5	0	0	-2.5647236492E+01	-4.5797081271E+01	-8.0483278355E+02	1.1752710817E+03	8.5483984040E+02	0.000E+00	0.0
	14	1	6	6	0	0	-2.0585182804E+02	1.5001227342E+02	-5.3581317640E+02	6.7646095030E+02	3.2500000000E+02	0.000E+00	0.0
	-14	1	6	6	0	0	1.8020459155E+02	-1.9580935469E+02	-2.6901960715E+02	4.9881013144E+02	3.2500000000E+02	0.000E+00	0.0
	25	2	5	5	0	0	2.5647236492E+01	4.5797081271E+01	7.3911738785E+00	1.3596229686E+02	1.2520368734E+02	0.000E+00	0.0
	-5	1	9	9	0	501	-3.3474989181E+01	4.8174376640E+01	-2.9819451875E+01	6.5939499357E+01	4.1800000000E+00	0.000E+00	0.0
	5	1	9	9	501	0	5.9122225673E+01	-2.3772953690E+00	3.7210625753E+01	7.0022797507E+01	4.1800000000E+00	0.000E+00	0.0
</event>
<event>
    11  -1  1.0000000E+00  1.0000000E+00  -1.0000000E+00  -1.0000000E+00
	2212	-1	0	0	0	0	0.0000000000E+00	0.0000000000E+00	6.5000000000E+03	6.5000000000E+03	9.3827000000E-01	0.000E+00	0.0
	2212	-1	0	0	0	0	0.0000000000E+00	0.0000000000E+00	-6.5000000000E+03	6.5000000000E+03	9.3827000000E-01	0.000E+00	0.0
	2212	1	0	0	0	0	0.0000000000E+00	0.0000000000E+00	6.1684386245E+03	6.1684386245E+03	9.3827000000E-01	0.000E+00	0.0
	2212	1	0	0	0	0	0.0000000000E+00	0.0000000000E+00	-5.6598300849E+03	5.6598300849E+03	9.3827000000E-01	0.000E+00	0.0
	51	2	1	2	0	0	-1.3623995096E+01	-1.3171917045E+02	-5.1684318219E+02	1.1827654031E+03	1.0555906265E+03	0.000E+00	0.0
	1000022	2	5	5	0	0	1.3623995096E+01	1.3171917045E+02	-4.1662038527E+02	9.6774601276E+02	8.6337954961E+02	0.000E+00	0.0
	14	1	6	6	0	0	-5.1022258968E+01	-2.1184235271E+02	-2.3865265618E+02	4.5832362323E+02	3.2500000000E+02	0.000E+00	0.0
	-14	1	6	6	0	0	6.4646254064E+01	3.4356152316E+02	-1.7796772910E+02	5.0942238953E+02	3.2500000000E+02	0.000E+00	0.0
	25	2	5	5	0	0	-1.3623995096E+01	-1.3171917045E+02	-9.1988154316E+01	2.0398527781E+02	1.2495046988E+02	0.000E+00	0.0
	-5	1	9	9	0	501	1.4472732684E+01	9.5157188258E+00	1.5995572018E+01	2.3944511277E+01	4.1800000000E+00	0.000E+00	0.0
	5	1	9	9	501	0	-2.8096727780E+01	-1.4123488927E+02	-1.0798372633E+02	1.8004076653E+02	4.1800000000E+00	0.000E+00	0.0
</event>
<event>
    11  -1  1.0000000E+00  1.0000000E+00  -1.0000000E+00  -1.0000000E+00
	2212	-1	0	0	0	0	0.0000000000E+00	0.0000000000E+00	6.5000000000E+03	6.5000000000E+03	9.3827000000E-01	0.000E+00	0.0
	2212	-1	0	0	0	0	0.0000000000E+00	0.0000000000E+00	-6.5000000000E+03	6.5000000000E+03	9.3827000000E-01	0.000E+00	0.0
	2212	1	0	0	0	0	0.0000000000E+00	0.0000000000E+00	6.3145352662E+03	6.3145352662E+03	9.3827000000E-01	0.000E+00	0.0
	2212	1	0	0	0	0	0.0000000000E+00	0.0000000000E+00	-5.0174941562E+03	5.0174941562E+03	9.3827000000E-01	0.000E+00	0.0
	51	2	1	2	0	0	1.2699459743E+02	-2.9794971076E+01	-1.2395561784E+03	1.6289030340E+03	1.0487183640E+03	0.000E+00	0.0
	1000022	2	5	5	0	0	-1.2699459743E+02	2.9794971076E+01	-1.1357593438E+03	1.4257082448E+03	8.5186814944E+02	0.000E+00	0.0
	14	1	6	6	0	0	9.1985116915E+01	-2.0825039442E+02	-4.4055616872E+02	5.9291165135E+02	3.2500000000E+02	0.000E+00	0.0
	-14	1	6	6	0	0	-2.1897971435E+02	2.3804536550E+02	-6.9520317511E+02	8.3279659342E+02	3.2500000000E+02	0.000E+00	0.0
	25	2	5	5	0	0	1.2699459743E+02	-2.9794971076E+01	-1.6128176616E+02	2.4226233288E+02	1.2515535050E+02	0.000E+00	0.0
	-5	1	9	9	0	501	8.2821128069E+00	-4.7389276984E+01	-9.1280689004E+01	1.0326651708E+02	4.1800000000E+00	0.000E+00	0.0
	5	1	9	9	501	0	1.1871248463E+02	1.7594305908E+01	-7.0001077159E+01	1.3899581580E+02	4.1800000000E+00	0.000E+00	0.0
</event>
<event>
    11  -1  1.0000000E+00  1.0000000E+00  -1.0000000E+00  -1.0000000E+00
	2212	-1	0	0	0	0	0.0000000000E+00	0.0000000000E+00	6.5000000000E+03	6.5000000000E+03	9.3827000000E-01	0.000E+00	0.0
	2212	-1	0	0	0	0	0.0000000000E+00	0.0000000000E+00	-6.5000000000E+03	6.5000000000E+03	9.3827000000E-01	0.000E+00	0.0
	2212	1	0	0	0	0	0.0000000000E+00	0.0000000000E+00	5.2291441436E+03	5.2291441436E+03	9.3827000000E-01	0.000E+00	0.0
	2212	1	0	0	0	0	0.0000000000E+00	0.0000000000E+00	-6.2837915998E+03	6.2837915998E+03	9.3827000000E-01	0.000E+00	0.0
	51	2	1	2	0	0	-1.4067996768E+02	-1.6511977314E+01	1.0290405196E+03	1.4758274750E+03	1.0483696134E+03	0.000E+00	0.0
	1000022	2	5	5	0	0	1.4067996768E+02	1.6511977314E+01	8.9831274168E+02	1.2417613533E+03	8.4554241637E+02	0.000E+00	0.0
	14	1	6	6	0	0	6.1050509793E+01	2.6429080404E+02	3.2744053446E+02	5.3518136875E+02	3.2500000000E+02	0.000E+00	0.0
	-14	1	6	6	0	0	7.9629457885E+01	-2.4777882673E+02	5.7087220722E+02	7.0657998452E+02	3.2500000000E+02	0.000E+00	0.0
	25	2	5	5	0	0	-1.4067996768E+02	-1.6511977314E+01	1.5633471447E+02	2.4530290330E+02	1.2517776446E+02	0.000E+00	0.0
	-5	1	9	9	0	501	7.5625569016E+00	3.0859810481E+00	7.3968189698E+01	7.4535099336E+01	4.1800000000E+00	0.000E+00	0.0
	5	1	9	9	501	0	-1.4824252458E+02	-1.9597958362E+01	8.2366524776E+01	1.7076780396E+02	4.1800000000E+00	0.000E+00	0.0
</event>
<event>
    11  -1  1.0000000E+00  1.0000000E+00  -1.0000000E+00  -1.0000000E+00
	2212	-1	0	0	0	0	0.0000000000E+00	0.0000000000E+00	6.5000000000E+03	6.5000000000E+03	9.3827000000E-01	0.000E+00	0.0
	2212	-1	0	0	0	0	0.0000000000E+00	0.0000000000E+00	-6.5000000000E+03	6.5000000000E+03	9.3827000000E-01	0.000E+00	0.0
	2212	1	0	0	0	0	0.0000000000E+00	0.0000000000E+00	5.2264760595E+03	5.2264760595E+03	9.3827000000E-01	0.000E+00	0.0
	2212	1	0	0	0	0	0.0000000000E+00	0.0000000000E+00	-6.2816096123E+03	6.2816096123E+03	9.3827000000E-01	0.000E+00	0.0
	51	2	1	2	0	0	-1.5313271476E+02	-1.0208904981E+01	1.0814117417E+03	1.5183895263E+03	1.0547518896E+03	0.000E+00	0.0
	1000022	2	5	5	0	0	1.5313271476E+02	1.0208904981E+01	8.4160814947E+02	1.2006794688E+03	8.4248030215E+02	0.000E+00	0.0
	14	1	6	6	0	0	9.2349477516E+01	-2.5588271518E+02	3.3810652093E+02	5.4216732603E+02	3.2500000000E+02	0.000E+00	0.0
	-14	1	6	6	0	0	6.0783237243E+01	2.6609162016E+02	5.0350162855E+02	6.5851214279E+02	3.2500000000E+02	0.000E+00	0.0
	25	2	5	5	0	0	-1.5313271476E+02	-1.0208904981E+01	2.1352540328E+02	2.9123485939E+02	1.2518304761E+02	0.000E+00	0.0
	-5	1	9	9	0	501	-6.9231022072E+01	-9.0600678991E+00	9.4995759419E+00	7.0588480580E+01	4.1800000000E+00	0.000E+00	0.0
	5	1	9	9	501	0	-8.3901692687E+01	-1.1488370820E+00	2.0402582734E+02	2.2064637881E+02	4.1800000000E+00	0.000E+00	0.0
</event>
<event>
    11  -1  1.0000000E+00  1.0000000E+00  -1.0000000E+00  -1.0000000E+00
	2212	-1	0	0	0	0	0.0000000000E+00	0.0000000000E+00	6.5000000000E+03	6.5000000000E+03	9.3827000000E-01	0.000E+00	0.0
	2212	-1	0	0	0	0	0.0000000000E+00	0.0000000000E+00	-6.5000000000E+03	6.5000000000E+03	9.3827000000E-01	0.000E+00	0.0
	2212	1	0	0	0	0	0.0000000000E+00	0.0000000000E+00	6.0163984862E+03	6.0163984862E+03	9.3827000000E-01	0.000E+00	0.0
	2212	1	0	0	0	0	0.0000000000E+00	0.0000000000E+00	-5.9353542654E+03	5.9353542654E+03	9.3827000000E-01	0.000E+00	0.0
	51	2	1	2	0	0	6.9194688522E+01	-7.4539677592E+00	3.9558367734E+01	1.0481710067E+03	1.0451096250E+03	0.000E+00	0.0
	1000022	2	5	5	0	0	-6.9194688522E+01	7.4539677592E+00	-1.8782823685E+02	8.6959044187E+02	8.4620601716E+02	0.000E+00	0.0
	14	1	6	6	0	0	1.3690208825E+02	1.4989657697E+02	6.3455167142E+01	3.8841050937E+02	3.2500000000E+02	0.000E+00	0.0
	-14	1	6	6	0	0	-2.0609677677E+02	-1.4244260921E+02	-2.5128340400E+02	4.8117993250E+02	3.2500000000E+02	0.000E+00	0.0
	25	2	5	5	0	0	6.9194688522E+01	-7.4539677592E+00	1.0678401602E+02	1.7865680660E+02	1.2518770671E+02	0.000E+00	0.0
	-5	1	9	9	0	501	5.5497624309E+00	3.0178206026E+01	-1.6312001003E+01	3.5001110821E+01	4.1800000000E+00	0.000E+00	0.0
	5	1	9	9	501	0	6.3644926091E+01	-3.7632173785E+01	1.2309601703E+02	1.4365569578E+02	4.1800000000E+00	0.000E+00	0.0
</event>
<event>
    11  -1  1.0000000E+00  1.0000000E+00  -1.0000000E+00  -1.0000000E+00
	2212	-1	0	0	0	0	0.0000000000E+00	0.0000000000E+00	6.5000000000E+03	6.5000000000E+03	9.3827000000E-01	0.000E+00	0.0
	2212	-1	0	0	0	0	0.0000000000E+00	0.0000000000E+00	-6.5000000000E+03	6.5000000000E+03	9.3827000000E-01	0.000E+00	0.0
	2212	1	0	0	0	0	0.0000000000E+00	0.0000000000E+00	6.2506656269E+03	6.2506656269E+03	9.3827000000E-01	0.000E+00	0.0
	2212	1	0	0	0	0	0.0000000000E+00	0.0000000000E+00	-5.6422515779E+03	5.6422515779E+03	9.3827000000E-01	0.000E+00	0.0
	51	2	1	2	0	0	6.6177774792E+01	1.0533668128E+02	-8.7637881034E+02	1.2802264620E+03	9.2491332594E+02	0.000E+00	0.0
	1000022	2	5	5	0	0	-6.6177774792E+01	-1.0533668128E+02	-1.8196421467E+02	6.4555640962E+02	6.0675925068E+02	0.000E+00	0.0
	14	1	6	6	0	0	0.0000000000E+00	0.0000000000E+00	0.0000000000E+00	0.0000000000E+00	0.0000000000E+00	0.000E+00	0.0
	-14	1	6	6	0	0	0.0000000000E+00	0.0000000000E+00	0.0000000000E+00	0.0000000000E+00	0.0000000000E+00	0.000E+00	0.0
	25	2	5	5	0	0	6.6177774792E+01	1.0533668128E+02	-4.2644983435E+02	4.6152638563E+02	1.2518717632E+02	0.000E+00	0.0
	-5	1	9	9	0	501	1.3266041054E+01	2.1488385282E+01	-2.0499709804E+00	2.5679044537E+01	4.1800000000E+00	0.000E+00	0.0
	5	1	9	9	501	0	5.2911733738E+01	8.3848295994E+01	-4.2439986337E+02	4.3584734109E+02	4.1800000000E+00	0.000E+00	0.0
</event>
<event>
    11  -1  1.0000000E+00  1.0000000E+00  -1.0000000E+00  -1.0000000E+00
	2212	-1	0	0	0	0	0.0000000000E+00	0.0000000000E+00	6.5000000000E+03	6.5000000000E+03	9.3827000000E-01	0.000E+00	0.0
	2212	-1	0	0	0	0	0.0000000000E+00	0.0000000000E+00	-6.5000000000E+03	6.5000000000E+03	9.3827000000E-01	0.000E+00	0.0
	2212	1	0	0	0	0	0.0000000000E+00	0.0000000000E+00	6.3141408324E+03	6.3141408324E+03	9.3827000000E-01	0.000E+00	0.0
	2212	1	0	0	0	0	0.0000000000E+00	0.0000000000E+00	-5.0458452253E+03	5.0458452253E+03	9.3827000000E-01	0.000E+00	0.0
	51	2	1	2	0	0	-1.0136884012E+02	-1.3672435601E+01	-1.4008862204E+03	1.7475745374E+03	1.0397461152E+03	0.000E+00	0.0
	1000022	2	5	5	0	0	1.0136884012E+02	1.3672435601E+01	-9.2649533359E+02	1.2619274875E+03	8.5064963598E+02	0.000E+00	0.0
	14	1	6	6	0	0	2.8039128529E+02	-3.7645151989E+01	-7.0648961116E+02	8.2751978890E+02	3.2500000000E+02	0.000E+00	0.0
	-14	1	6	6	0	0	-1.7902244517E+02	5.1317587590E+01	-2.2000572243E+02	4.3440769856E+02	3.2500000000E+02	0.000E+00	0.0
	25	2	5	5	0	0	-1.0136884012E+02	-1.3672435601E+01	-3.4180027347E+02	3.7808645483E+02	1.2513737707E+02	0.000E+00	0.0
	-5	1	9	9	0	501	-7.8856414515E+01	-2.3577648326E+01	-3.4333902266E+02	3.5309120138E+02	4.1800000000E+00	0.000E+00	0.0
	5	1	9	9	501	0	-2.2512425610E+01	9.9052127252E+00	1.5387491924E+00	2.4995253450E+01	4.1800000000E+00	0.000E+00	0.0
</event>
<event>
    11  -1  1.0000000E+00  1.0000000E+00  -1.0000000E+00  -1.0000000E+00
	2212	-1	0	0	0	0	0.0000000000E+00	0.0000000000E+00	6.5000000000E+03	6.5000000000E+03	9.3827000000E-01	0.000E+00	0.0
	2212	-1	0	0	0	0	0.0000000000E+00	0.0000000000E+00	-6.5000000000E+03	6.5000000000E+03	9.3827000000E-01	0.000E+00	0.0
	2212	1	0	0	0	0	0.0000000000E+00	0.0000000000E+00	6.2586132456E+03	6.2586132456E+03	9.3827000000E-01	0.000E+00	0.0
	2212	1	0	0	0	0	0.0000000000E+00	0.0000000000E+00	-5.3495069915E+03	5.3495069915E+03	9.3827000000E-01	0.000E+00	0.0
	51	2	1	2	0	0	-2.7782642283E+01	-1.3519223594E+02	-9.6410416390E+02	1.4350612349E+03	1.0539711064E+03	0.000E+00	0.0
	1000022	2	5	5	0	0	2.7782642283E+01	1.3519223594E+02	-6.9878943506E+02	1.1108985336E+03	8.5249050530E+02	0.000E+00	0.0
	14	1	6	6	0	0	2.0097881863E+02	-1.3220119768E+02	-3.8318737611E+02	5.5707019972E+02	3.2500000000E+02	0.000E+00	0.0
	-14	1	6	6	0	0	-1.7319617635E+02	2.6739343362E+02	-3.1560205895E+02	5.5382833393E+02	3.2500000000E+02	0.000E+00	0.0
	25	2	5	5	0	0	-2.7782642283E+01	-1.3519223594E+02	-2.1031681905E+02	2.8098122929E+02	1.2517376308E+02	0.000E+00	0.0
	-5	1	9	9	0	501	-5.6990968899E+01	-5.9629358694E+01	-1.7297318531E+02	1.9167896648E+02	4.1800000000E+00	0.000E+00	0.0
	5	1	9	9	501	0	2.9208326617E+01	-7.5562877249E+01	-3.7343633746E+01	8.9302262811E+01	4.1800000000E+00	0.000E+00	0.0
</event>
<event>
    11  -1  1.0000000E+00  1.0000000E+00  -1.0000000E+00  -1.0000000E+00
	2212	-1	0	0	0	0	0.0000000000E+00	0.0000000000E+00	6.5000000000E+03	6.5000000000E+03	9.3827000000E-01	0.000E+00	0.0
	2212	-1	0	0	0	0	0.0000000000E+00	0.0000000000E+00	-6.5000000000E+03	6.5000000000E+03	9.3827000000E-01	0.000E+00	0.0
	2212	1	0	0	0	0	0.0000000000E+00	0.0000000000E+00	5.7876828561E+03	5.7876828561E+03	9.3827000000E-01	0.000E+00	0.0
	2212	1	0	0	0	0	0.0000000000E+00	0.0000000000E+00	-6.0958326416E+03	6.0958326416E+03	9.3827000000E-01	0.000E+00	0.0
	51	2	1	2	0	0	3.7316297529E+00	3.0270999494E+01	1.3445846938E+02	1.0819383956E+03	1.0731175860E+03	0.000E+00	0.0
	1000022	2	5	5	0	0	-3.7316297529E+00	-3.0270999494E+01	4.2440830417E+02	9.4294080549E+02	8.4147768570E+02	0.000E+00	0.0
	14	1	6	6	0	0	1.2908624741E+02	1.3928897339E+01	-4.7406655090E+01	3.5317087139E+02	3.2500000000E+02	0.000E+00	0.0
	-14	1	6	6	0	0	-1.3281787717E+02	-4.4199896832E+01	4.7181495926E+02	5.8976993409E+02	3.2500000000E+02	0.000E+00	0.0
	25	2	5	5	0	0	3.7316297529E+00	3.0270999494E+01	-1.1625851867E+02	1.7354369673E+02	1.2518431627E+02	0.000E+00	0.0
	-5	1	9	9	0	501	-6.7877476415E+00	4.4132002212E+01	-1.3816256313E+02	1.4525864307E+02	4.1800000000E+00	0.000E+00	0.0
	5	1	9	9	501	0	1.0519377394E+01	-1.3861002719E+01	2.1904044453E+01	2.8285053660E+01	4.1800000000E+00	0.000E+00	0.0
</event>
<event>
    11  -1  1.0000000E+00  1.0000000E+00  -1.0000000E+00  -1.0000000E+00
	2212	-1	0	0	0	0	0.0000000000E+00	0.0000000000E+00	6.5000000000E+03	6.5000000000E+03	9.3827000000E-01	0.000E+00	0.0
	2212	-1	0	0	0	0	0.0000000000E+00	0.0000000000E+00	-6.5000000000E+03	6.5000000000E+03	9.3827000000E-01	0.000E+00	0.0
	2212	1	0	0	0	0	0.0000000000E+00	0.0000000000E+00	5.7958259248E+03	5.7958259248E+03	9.3827000000E-01	0.000E+00	0.0
	2212	1	0	0	0	0	0.0000000000E+00	0.0000000000E+00	-6.1086849052E+03	6.1086849052E+03	9.3827000000E-01	0.000E+00	0.0
	51	2	1	2	0	0	3.8814740120E+01	-3.8784294119E+01	4.3924445778E+02	1.1393692462E+03	1.0498646484E+03	0.000E+00	0.0
	1000022	2	5	5	0	0	-3.8814740120E+01	3.8784294119E+01	1.3492960422E+02	8.7112591634E+02	8.5886178079E+02	0.000E+00	0.0
	14	1	6	6	0	0	-1.5025522116E+02	2.4148570428E+02	1.8354556752E+02	4.6926107042E+02	3.2500000000E+02	0.000E+00	0.0
	-14	1	6	6	0	0	1.1144048104E+02	-2.0270141017E+02	-4.8615963300E+01	4.0186484592E+02	3.2500000000E+02	0.000E+00	0.0
	25	2	5	5	0	0	3.8814740120E+01	-3.8784294119E+01	1.7792937617E+02	2.2436325369E+02	1.2517667986E+02	0.000E+00	0.0
	-5	1	9	9	0	501	-3.4848036345E+01	-1.1381288295E+01	1.2292215511E+02	1.2834035989E+02	4.1800000000E+00	0.000E+00	0.0
	5	1	9	9	501	0	7.3662776465E+01	-2.7403005824E+01	5.5007221058E+01	9.6022893798E+01	4.1800000000E+00	0.000E+00	0.0
</event>
<event>
    11  -1  1.0000000E+00  1.0000000E+00  -1.0000000E+00  -1.0000000E+00
	2212	-1	0	0	0	0	0.0000000000E+00	0.0000000000E+00	6.5000000000E+03	6.5000000000E+03	9.3827000000E-01	0.000E+00	0.0
	2212	-1	0	0	0	0	0.0000000000E+00	0.0000000000E+00	-6.5000000000E+03	6.5000000000E+03	9.3827000000E-01	0.000E+00	0.0
	2212	1	0	0	0	0	0.0000000000E+00	0.0000000000E+00	6.1625620049E+03	6.1625620049E+03	9.3827000000E-01	0.000E+00	0.0
	2212	1	0	0	0	0	0.0000000000E+00	0.0000000000E+00	-5.6716142820E+03	5.6716142820E+03	9.3827000000E-01	0.000E+00	0.0
	51	2	1	2	0	0	-1.2829887944E+02	-4.5406380799E+01	-4.3792406194E+02	1.1525689088E+03	1.0574096952E+03	0.000E+00	0.0
	1000022	2	5	5	0	0	1.2829887944E+02	4.5406380799E+01	-4.5938713480E+02	9.7822144304E+02	8.5285304135E+02	0.000E+00	0.0
	14	1	6	6	0	0	6.7343148142E+01	2.9678288589E+02	-2.7854758503E+02	5.2519419083E+02	3.2500000000E+02	0.000E+00	0.0
	-14	1	6	6	0	0	6.0955731297E+01	-2.5137650509E+02	-1.8083954977E+02	4.5302725221E+02	3.2500000000E+02	0.000E+00	0.0
	25	2	5	5	0	0	-1.2829887944E+02	-4.5406380799E+01	-3.1560588126E+01	1.8760227013E+02	1.2520462911E+02	0.000E+00	0.0
	-5	1	9	9	0	501	-7.5563337079E+01	-8.3973034382E+01	3.9746031399E+00	1.1311303322E+02	4.1800000000E+00	0.000E+00	0.0
	5	1	9	9	501	0	-5.2735542360E+01	3.8566653583E+01	-3.5535191266E+01	7.4489236907E+01	4.1800000000E+00	0.000E+00	0.0
</event>
<event>
    11  -1  1.0000000E+00  1.0000000E+00  -1.0000000E+00  -1.0000000E+00
	2212	-1	0	0	0	0	0.0000000000E+00	0.0000000000E+00	6.5000000000E+03	6.5000000000E+03	9.3827000000E-01	0.000E+00	0.0
	2212	-1	0	0	0	0	0.0000000000E+00	0.0000000000E+00	-6.5000000000E+03	6.5000000000E+03	9.3827000000E-01	0.000E+00	0.0
	2212	1	0	0	0	0	0.0000000000E+00	0.0000000000E+00	6.1779216250E+03	6.1779216250E+03	9.3827000000E-01	0.000E+00	0.0
	2212	1	0	0	0	0	0.0000000000E+00	0.0000000000E+00	-5.6449619768E+03	5.6449619768E+03	9.3827000000E-01	0.000E+00	0.0
	51	2	1	2	0	0	-7.4166665877E+01	1.3261003385E+02	-5.3539518202E+02	1.1879777542E+03	1.0495508698E+03	0.000E+00	0.0
	1000022	2	5	5	0	0	7.4166665877E+01	-1.3261003385E+02	-4.3609399415E+02	9.5769283042E+02	8.3899432078E+02	0.000E+00	0.0
	14	1	6	6	0	0	9.9020136613E+01	-3.2757332169E+02	-2.1987497700E+02	5.2065273844E+02	3.2500000000E+02	0.000E+00	0.0
	-14	1	6	6	0	0	-2.4853470736E+01	1.9496328785E+02	-2.1621901715E+02	4.3704009198E+02	3.2500000000E+02	0.000E+00	0.0
	25	2	5	5	0	0	-7.4166665877E+01	1.3261003385E+02	-9.6865654026E+01	2.1942356773E+02	1.2521034997E+02	0.000E+00	0.0
	-5	1	9	9	0	501	-3.7489015393E+01	8.8159735945E+01	-1.2303844747E+02	1.5599197823E+02	4.1800000000E+00	0.000E+00	0.0
	5	1	9	9	501	0	-3.6677650485E+01	4.4450297902E+01	2.6172793447E+01	6.3431589492E+01	4.1800000000E+00	0.000E+00	0.0
</event>
<event>
    11  -1  1.0000000E+00  1.0000000E+00  -1.0000000E+00  -1.0000000E+00
	2212	-1	0	0	0	0	0.0000000000E+00	0.0000000000E+00	6.5000000000E+03	6.5000000000E+03	9.3827000000E-01	0.000E+00	0.0
	2212	-1	0	0	0	0	0.0000000000E+00	0.0000000000E+00	-6.5000000000E+03	6.5000000000E+03	9.3827000000E-01	0.000E+00	0.0
	2212	1	0	0	0	0	0.0000000000E+00	0.0000000000E+00	6.3238061659E+03	6.3238061659E+03	9.3827000000E-01	0.000E+00	0.0
	2212	1	0	0	0	0	0.0000000000E+00	0.0000000000E+00	-4.9216334819E+03	4.9216334819E+03	9.3827000000E-01	0.000E+00	0.0
	51	2	1	2	0	0	1.2109618338E+02	3.2999910124E+01	-1.4177817780E+03	1.7715112880E+03	1.0547008077E+03	0.000E+00	0.0
	1000022	2	5	5	0	0	-1.2109618338E+02	-3.2999910124E+01	-1.1607466024E+03	1.4550411295E+03	8.6836555314E+02	0.000E+00	0.0
	14	1	6	6	0	0	3.8935294237E+01	-2.8223298181E+02	-6.5654986873E+02	7.8603698595E+02	3.2500000000E+02	0.000E+00	0.0
	-14	1	6	6	0	0	-1.6003147762E+02	2.4923307168E+02	-5.0419673365E+02	6.6900414354E+02	3.2500000000E+02	0.000E+00	0.0
	25	2	5	5	0	0	1.2109618338E+02	3.2999910124E+01	-2.4142608159E+02	2.9951922272E+02	1.2518758807E+02	0.000E+00	0.0
	-5	1	9	9	0	501	-7.6182634892E+00	4.5582841948E+01	-8.1689130745E+01	9.3949028204E+01	4.1800000000E+00	0.000E+00	0.0
	5	1	9	9	501	0	1.2871444687E+02	-1.2582931824E+01	-1.5973695085E+02	2.0557019451E+02	4.1800000000E+00	0.000E+00	0.0
</event>
<event>
    11  -1  1.0000000E+00  1.0000000E+00  -1.0000000E+00  -1.0000000E+00
	2212	-1	0	0	0	0	0.0000000000E+00	0.0000000000E+00	6.5000000000E+03	6.5000000000E+03	9.3827000000E-01	0.000E+00	0.0
	2212	-1	0	0	0	0	0.0000000000E+00	0.0000000000E+00	-6.5000000000E+03	6.5000000000E+03	9.3827000000E-01	0.000E+00	0.0
	2212	1	0	0	0	0	0.0000000000E+00	0.0000000000E+00	6.2943615316E+03	6.2943615316E+03	9.3827000000E-01	0.000E+00	0.0
	2212	1	0	0	0	0	0.0000000000E+00	0.0000000000E+00	-5.1641062306E+03	5.1641062306E+03	9.3827000000E-01	0.000E+00	0.0
	51	2	1	2	0	0	-4.1605979481E+01	-1.4226187039E+01	-9.4920394815E+02	1.4148378606E+03	1.0482578856E+03	0.000E+00	0.0
	1000022	2	5	5	0	0	4.1605979481E+01	1.4226187039E+01	-1.1208936245E+03	1.4085261535E+03	8.5182742718E+02	0.000E+00	0.0
	14	1	6	6	0	0	-3.4335598869E+01	-2.6009639889E+02	-6.1256409525E+02	7.4141003558E+02	3.2500000000E+02	0.000E+00	0.0
	-14	1	6	6	0	0	7.5941578349E+01	2.7432258593E+02	-5.0832952927E+02	6.6711611793E+02	3.2500000000E+02	0.000E+00	0.0
	25	2	5	5	0	0	-4.1605979481E+01	-1.4226187039E+01	-9.3616764941E+00	1.3300608428E+02	1.2517801541E+02	0.000E+00	0.0
	-5	1	9	9	0	501	-1.6258117155E+01	-4.9210159329E+01	-5.1020030802E+01	7.2845604519E+01	4.1800000000E+00	0.000E+00	0.0
	5	1	9	9	501	0	-2.5347862325E+01	3.4983972290E+01	4.1658354308E+01	6.0160479763E+01	4.1800000000E+00	0.000E+00	0.0
</event>
<event>
    11  -1  1.0000000E+00  1.0000000E+00  -1.0000000E+00  -1.0000000E+00
	2212	-1	0	0	0	0	0.0000000000E+00	0.0000000000E+00	6.5000000000E+03	6.5000000000E+03	9.3827000000E-01	0.000E+00	0.0
	2212	-1	0	0	0	0	0.0000000000E+00	0.0000000000E+00	-6.5000000000E+03	6.5000000000E+03	9.3827000000E-01	0.000E+00	0.0
	2212	1	0	0	0	0	0.0000000000E+00	0.0000000000E+00	6.1822377427E+03	6.1822377427E+03	9.3827000000E-01	0.000E+00	0.0
	2212	1	0	0	0	0	0.0000000000E+00	0.0000000000E+00	-5.6452139716E+03	5.6452139716E+03	9.3827000000E-01	0.000E+00	0.0
	51	2	1	2	0	0	3.9404652222E+01	-5.7216300521E+01	-6.7267527177E+02	1.2424948307E+03	1.0423410917E+03	0.000E+00	0.0
	1000022	2	5	5	0	0	-3.9404652222E+01	5.7216300521E+01	-3.1078772966E+02	9.0481766900E+02	8.4692359134E+02	0.000E+00	0.0
	14	1	6	6	0	0	1.0537850311E+02	2.4432338922E+02	-2.7322918835E+02	5.0107657779E+02	3.2500000000E+02	0.000E+00	0.0
	-14	1	6	6	0	0	-1.4478315533E+02	-1.8710708870E+02	-3.7558541304E+01	4.0374109122E+02	3.2500000000E+02	0.000E+00	0.0
	25	2	5	5	0	0	3.9404652222E+01	-5.7216300521E+01	-2.2623604143E+02	2.6773061663E+02	1.2518188756E+02	0.000E+00	0.0
	-5	1	9	9	0	501	5.3370436657E+01	-7.9185600732E+01	-2.2108984659E+02	2.4086709102E+02	4.1800000000E+00	0.000E+00	0.0
	5	1	9	9	501	0	-1.3965784436E+01	2.1969300211E+01	-5.1461948460E+00	2.6863525608E+01	4.1800000000E+00	0.000E+00	0.0
</event>
<event>
    11  -1  1.0000000E+00  1.0000000E+00  -1.0000000E+00  -1.0000000E+00
	2212	-1	0	0	0	0	0.0000000000E+00	0.0000000000E+00	6.5000000000E+03	6.5000000000E+03	9.3827000000E-01	0.000E+00	0.0
	2212	-1	0	0	0	0	0.0000000000E+00	0.0000000000E+00	-6.5000000000E+03	6.5000000000E+03	9.3827000000E-01	0.000E+00	0.0
	2212	1	0	0	0	0	0.0000000000E+00	0.0000000000E+00	5.1327606520E+03	5.1327606520E+03	9.3827000000E-01	0.000E+00	0.0
	2212	1	0	0	0	0	0.0000000000E+00	0.0000000000E+00	-6.3048841147E+03	6.3048841147E+03	9.3827000000E-01	0.000E+00	0.0
	51	2	1	2	0	0	-4.1712809830E+01	1.9259954035E+01	1.3342512185E+03	1.6880218250E+03	1.0329958679E+03	0.000E+00	0.0
	1000022	2	5	5	0	0	4.1712809830E+01	-1.9259954035E+01	8.2600832083E+02	1.1914468522E+03	8.5740594303E+02	0.000E+00	0.0
	14	1	6	6	0	0	-3.5397173080E+01	1.7994387160E+02	1.3187784498E+02	3.9578974568E+02	3.2500000000E+02	0.000E+00	0.0
	-14	1	6	6	0	0	7.7109982911E+01	-1.9920382563E+02	6.9413047586E+02	7.9565710650E+02	3.2500000000E+02	0.000E+00	0.0
	25	2	5	5	0	0	-4.1712809830E+01	1.9259954035E+01	3.4611514183E+02	3.7090838108E+02	1.2516561598E+02	0.000E+00	0.0
	-5	1	9	9	0	501	3.9912139321E+01	2.6216267164E+01	1.6997725205E+02	1.7660693685E+02	4.1800000000E+00	0.000E+00	0.0
	5	1	9	9	501	0	-8.1624949151E+01	-6.9563131289E+00	1.7613788978E+02	1.9430144424E+02	4.1800000000E+00	0.000E+00	0.0
</event>
<event>
    11  -1  1.0000000E+00  1.0000000E+00  -1.0000000E+00  -1.0000000E+00
	2212	-1	0	0	0	0	0.0000000000E+00	0.0000000000E+00	6.5000000000E+03	6.5000000000E+03	9.3827000000E-01	0.000E+00	0.0
	2212	-1	0	0	0	0	0.0000000000E+00	0.0000000000E+00	-6.5000000000E+03	6.5000000000E+03	9.3827000000E-01	0.000E+00	0.0
	2212	1	0	0	0	0	0.0000000000E+00	0.0000000000E+00	6.2419086922E+03	6.2419086922E+03	9.3827000000E-01	0.000E+00	0.0
	2212	1	0	0	0	0	0.0000000000E+00	0.0000000000E+00	-5.4597692840E+03	5.4597692840E+03	9.3827000000E-01	0.000E+00	0.0
	51	2	1	2	0	0	1.2897949900E+02	3.4227947311E+01	-7.8695233944E+02	1.3080517084E+03	1.0362905113E+03	0.000E+00	0.0
	1000022	2	5	5	0	0	-1.2897949900E+02	-3.4227947311E+01	-6.4567871873E+02	1.0700620082E+03	8.4280746909E+02	0.000E+00	0.0
	14	1	6	6	0	0	-1.6702989299E+02	2.2583940296E+02	-3.8924351482E+02	5.7968779089E+02	3.2500000000E+02	0.000E+00	0.0
	-14	1	6	6	0	0	3.8050393990E+01	-2.6006735027E+02	-2.5643520391E+02	4.9037421727E+02	3.2500000000E+02	0.000E+00	0.0
	25	2	5	5	0	0	1.2897949900E+02	3.4227947311E+01	-1.3646068944E+02	2.2826001566E+02	1.2519525328E+02	0.000E+00	0.0
	-5	1	9	9	0	501	9.5553988791E+01	3.3268638588E+01	-1.5196176406E+01	1.0240001594E+02	4.1800000000E+00	0.000E+00	0.0
	5	1	9	9	501	0	3.3425510210E+01	9.5930872362E-01	-1.2126451304E+02	1.2585999971E+02	4.1800000000E+00	0.000E+00	0.0
</event>
<event>
    11  -1  1.0000000E+00  1.0000000E+00  -1.0000000E+00  -1.0000000E+00
	2212	-1	0	0	0	0	0.0000000000E+00	0.0000000000E+00	6.5000000000E+03	6.5000000000E+03	9.3827000000E-01	0.000E+00	0.0
	2212	-1	0	0	0	0	0.0000000000E+00	0.0000000000E+00	-6.5000000000E+03	6.5000000000E+03	9.3827000000E-01	0.000E+00	0.0
	2212	1	0	0	0	0	0.0000000000E+00	0.0000000000E+00	5.9919327220E+03	5.9919327220E+03	9.3827000000E-01	0.000E+00	0.0
	2212	1	0	0	0	0	0.0000000000E+00	0.0000000000E+00	-5.9179742031E+03	5.9179742031E+03	9.3827000000E-01	0.000E+00	0.0
	51	2	1	2	0	0	7.8386222465E+01	-1.3410527772E+02	1.8133499794E+01	1.0987677182E+03	1.0875812840E+03	0.000E+00	0.0
	1000022	2	5	5	0	0	-7.8386222465E+01	1.3410527772E+02	-1.5210272912E+02	8.7583819968E+02	8.4842718393E+02	0.000E+00	0.0
	14	1	6	6	0	0	-1.9638983992E+01	8.9905485577E+01	-3.5152674276E+02	4.8750870444E+02	3.2500000000E+02	0.000E+00	0.0
	-14	1	6	6	0	0	-5.8747238473E+01	4.4199792147E+01	1.9942401364E+02	3.8832949524E+02	3.2500000000E+02	0.000E+00	0.0
	25	2	5	5	0	0	7.8386222465E+01	-1.3410527772E+02	7.8144210201E+01	2.1425487515E+02	1.2517990474E+02	0.000E+00	0.0
	-5	1	9	9	0	501	8.3747022414E+00	-6.4168152538E+01	-2.6605157914E+01	7.0092754728E+01	4.1800000000E+00	0.000E+00	0.0
	5	1	9	9	501	0	7.0011520224E+01	-6.9937125186E+01	1.0474936811E+02	1.4416212042E+02	4.1800000000E+00	0.000E+00	0.0
</event>
<event>
    11  -1  1.0000000E+00  1.0000000E+00  -1.0000000E+00  -1.0000000E+00
	2212	-1	0	0	0	0	0.0000000000E+00	0.0000000000E+00	6.5000000000E+03	6.5000000000E+03	9.3827000000E-01	0.000E+00	0.0
	2212	-1	0	0	0	0	0.0000000000E+00	0.0000000000E+00	-6.5000000000E+03	6.5000000000E+03	9.3827000000E-01	0.000E+00	0.0
	2212	1	0	0	0	0	0.0000000000E+00	0.0000000000E+00	5.9405656529E+03	5.9405656529E+03	9.3827000000E-01	0.000E+00	0.0
	2212	1	0	0	0	0	0.0000000000E+00	0.0000000000E+00	-6.0064952215E+03	6.0064952215E+03	9.3827000000E-01	0.000E+00	0.0
	51	2	1	2	0	0	-1.0349509203E+02	-9.1230119846E+01	4.6393765387E+01	1.0609055776E+03	1.0508730153E+03	0.000E+00	0.0
	1000022	2	5	5	0	0	1.0349509203E+02	9.1230119846E+01	7.4287312227E+01	8.6645161632E+02	8.5216525970E+02	0.000E+00	0.0
	14	1	6	6	0	0	-5.0130576998E+01	1.0890782331E+02	-2.1237544531E+02	4.0632784608E+02	3.2500000000E+02	0.000E+00	0.0
	-14	1	6	6	0	0	1.5362566902E+02	-1.7677703461E+01	2.8666275754E+02	4.6012377024E+02	3.2500000000E+02	0.000E+00	0.0
	25	2	5	5	0	0	-1.0349509203E+02	-9.1230119846E+01	-8.3577436211E+00	1.8648750932E+02	1.2519413091E+02	0.000E+00	0.0
	-5	1	9	9	0	501	-6.8019327975E+01	1.3051929967E+01	-2.7444675902E+01	7.4616784234E+01	4.1800000000E+00	0.000E+00	0.0
	5	1	9	9	501	0	-3.5475764052E+01	-1.0428204981E+02	1.9086932281E+01	1.1187072509E+02	4.1800000000E+00	0.000E+00	0.0
</event>
<event>
    11  -1  1.0000000E+00  1.0000000E+00  -1.0000000E+00  -1.0000000E+00
	2212	-1	0	0	0	0	0.0000000000E+00	0.0000000000E+00	6.5000000000E+03	6.5000000000E+03	9.3827000000E-01	0.000E+00	0.0
	2212	-1	0	0	0	0	0.0000000000E+00	0.0000000000E+00	-6.5000000000E+03	6.5000000000E+03	9.3827000000E-01	0.000E+00	0.0
	2212	1	0	0	0	0	0.0000000000E+00	0.0000000000E+00	5.9140797556E+03	5.9140797556E+03	9.3827000000E-01	0.000E+00	0.0
	2212	1	0	0	0	0	0.0000000000E+00	0.0000000000E+00	-6.0314853890E+03	6.0314853890E+03	9.3827000000E-01	0.000E+00	0.0
	51	2	1	2	0	0	-9.3364854747E+01	9.6841051392E+01	9.3947930060E+01	1.0606461146E+03	1.0478782284E+03	0.000E+00	0.0
	1000022	2	5	5	0	0	9.3364854747E+01	-9.6841051392E+01	1.2109110380E+02	8.7064666856E+02	8.5162631518E+02	0.000E+00	0.0
	14	1	6	6	0	0	-1.1275768310E+02	-3.3161673727E+01	-1.6881853008E+02	3.8462798624E+02	3.2500000000E+02	0.000E+00	0.0
	-14	1	6	6	0	0	2.0612253785E+02	-6.3679377665E+01	2.8990963387E+02	4.8601868232E+02	3.2500000000E+02	0.000E+00	0.0
	25	2	5	5	0	0	-9.3364854747E+01	9.6841051392E+01	-3.6854703561E+00	1.8378818681E+02	1.2517719274E+02	0.000E+00	0.0
	-5	1	9	9	0	501	4.5626745012E+00	-8.8373966825E+00	-3.4712594986E+01	3.6350436440E+01	4.1800000000E+00	0.000E+00	0.0
	5	1	9	9	501	0	-9.7927529248E+01	1.0567844807E+02	3.1027124630E+01	1.4743775037E+02	4.1800000000E+00	0.000E+00	0.0
</event>
<event>
    11  -1  1.0000000E+00  1.0000000E+00  -1.0000000E+00  -1.0000000E+00
	2212	-1	0	0	0	0	0.0000000000E+00	0.0000000000E+00	6.5000000000E+03	6.5000000000E+03	9.3827000000E-01	0.000E+00	0.0
	2212	-1	0	0	0	0	0.0000000000E+00	0.0000000000E+00	-6.5000000000E+03	6.5000000000E+03	9.3827000000E-01	0.000E+00	0.0
	2212	1	0	0	0	0	0.0000000000E+00	0.0000000000E+00	5.9970876321E+03	5.9970876321E+03	9.3827000000E-01	0.000E+00	0.0
	2212	1	0	0	0	0	0.0000000000E+00	0.0000000000E+00	-5.9475193534E+03	5.9475193534E+03	9.3827000000E-01	0.000E+00	0.0
	51	2	1	2	0	0	1.7398533063E+01	-1.3923373784E+02	-1.3076075237E+02	1.0715337223E+03	1.0542283438E+03	0.000E+00	0.0
	1000022	2	5	5	0	0	-1.7398533063E+01	1.3923373784E+02	4.0661735291E+01	8.4682769161E+02	8.3413129653E+02	0.000E+00	0.0
	14	1	6	6	0	0	1.5708189824E+02	-1.3350350162E+02	4.9173465701E+01	3.8799605337E+02	3.2500000000E+02	0.000E+00	0.0
	-14	1	6	6	0	0	-1.7448043131E+02	2.7273723946E+02	-8.5117304106E+00	4.5883163824E+02	3.2500000000E+02	0.000E+00	0.0
	25	2	5	5	0	0	1.7398533063E+01	-1.3923373784E+02	-9.0230014006E+01	2.0856532294E+02	1.2517705780E+02	0.000E+00	0.0
	-5	1	9	9	0	501	-2.1614832230E+01	-5.1039190982E+01	-9.7002166522E+01	1.1179934123E+02	4.1800000000E+00	0.000E+00	0.0
	5	1	9	9	501	0	3.9013365293E+01	-8.8194546859E+01	6.7721525161E+00	9.6765981713E+01	4.1800000000E+00	0.000E+00	0.0
</event>
<event>
    11  -1  1.0000000E+00  1.0000000E+00  -1.0000000E+00  -1.0000000E+00
	2212	-1	0	0	0	0	0.0000000000E+00	0.0000000000E+00	6.5000000000E+03	6.5000000000E+03	9.3827000000E-01	0.000E+00	0.0
	2212	-1	0	0	0	0	0.0000000000E+00	0.0000000000E+00	-6.5000000000E+03	6.5000000000E+03	9.3827000000E-01	0.000E+00	0.0
	2212	1	0	0	0	0	0.0000000000E+00	0.0000000000E+00	6.0466949431E+03	6.0466949431E+03	9.3827000000E-01	0.000E+00	0.0
	2212	1	0	0	0	0	0.0000000000E+00	0.0000000000E+00	-5.8885739209E+03	5.8885739209E+03	9.3827000000E-01	0.000E+00	0.0
	51	2	1	2	0	0	1.1239855206E+02	8.5920765912E+01	-1.6240362495E+02	1.0747282840E+03	1.0529245625E+03	0.000E+00	0.0
	1000022	2	5	5	0	0	-1.1239855206E+02	-8.5920765912E+01	-1.2688649792E+02	8.7324926482E+02	8.5231935484E+02	0.000E+00	0.0
	14	1	6	6	0	0	-3.1519182791E+02	-1.3120504457E+02	-1.2435707405E+02	4.8749393224E+02	3.2500000000E+02	0.000E+00	0.0
	-14	1	6	6	0	0	2.0279327586E+02	4.5284278657E+01	-2.5294238630E+00	3.8575533258E+02	3.2500000000E+02	0.000E+00	0.0
	25	2	5	5	0	0	1.1239855206E+02	8.5920765912E+01	-3.1234524246E+01	1.9148187123E+02	1.2519544315E+02	0.000E+00	0.0
	-5	1	9	9	0	501	1.0411559856E+02	1.0847077791E+02	-5.2314646467E+01	1.5924905701E+02	4.1800000000E+00	0.000E+00	0.0
	5	1	9	9	501	0	8.2829534990E+00	-2.2550011997E+01	2.1080122221E+01	3.2232814221E+01	4.1800000000E+00	0.000E+00	0.0
</event>
<event>
    11  -1  1.0000000E+00  1.0000000E+00  -1.0000000E+00  -1.0000000E+00
	2212	-1	0	0	0	0	0.0000000000E+00	0.0000000000E+00	6.5000000000E+03	6.5000000000E+03	9.3827000000E-01	0.000E+00	0.0
	2212	-1	0	0	0	0	0.0000000000E+00	0.0000000000E+00	-6.5000000000E+03	6.5000000000E+03	9.3827000000E-01	0.000E+00	0.0
	2212	1	0	0	0	0	0.0000000000E+00	0.0000000000E+00	5.6202843044E+03	5.6202843044E+03	9.3827000000E-01	0.000E+00	0.0
	2212	1	0	0	0	0	0.0000000000E+00	0.0000000000E+00	-6.1898767915E+03	6.1898767915E+03	9.3827000000E-01	0.000E+00	0.0
	51	2	1	2	0	0	-8.6300199467E+01	9.0539705520E+00	5.5338184183E+02	1.1853447508E+03	1.0446439664E+03	0.000E+00	0.0
	1000022	2	5	5	0	0	8.6300199467E+01	-9.0539705520E+00	5.0433416647E+02	1.0241500807E+03	8.8713062031E+02	0.000E+00	0.0
	14	1	6	6	0	0	-2.0663778092E+01	-1.0941107700E+02	5.6618648978E+02	6.6226121486E+02	3.2500000000E+02	0.000E+00	0.0
	-14	1	6	6	0	0	1.0696397756E+02	1.0035710645E+02	-6.1852323315E+01	3.6188886583E+02	3.2500000000E+02	0.000E+00	0.0
	25	2	5	5	0	0	-8.6300199467E+01	9.0539705520E+00	6.5258320600E+01	1.6568882347E+02	1.2515765659E+02	0.000E+00	0.0
	-5	1	9	9	0	501	-4.1764736122E+01	-8.9261005343E+00	-3.4389557029E+01	5.4991658338E+01	4.1800000000E+00	0.000E+00	0.0
	5	1	9	9	501	0	-4.4535463345E+01	1.7980071086E+01	9.9647877629E+01	1.1069716513E+02	4.1800000000E+00	0.000E+00	0.0
</event>
<event>
    11  -1  1.0000000E+00  1.0000000E+00  -1.0000000E+00  -1.0000000E+00
	2212	-1	0	0	0	0	0.0000000000E+00	0.0000000000E+00	6.5000000000E+03	6.5000000000E+03	9.3827000000E-01	0.000E+00	0.0
	2212	-1	0	0	0	0	0.0000000000E+00	0.0000000000E+00	-6.5000000000E+03	6.5000000000E+03	9.3827000000E-01	0.000E+00	0.0
	2212	1	0	0	0	0	0.0000000000E+00	0.0000000000E+00	6.0626465234E+03	6.0626465234E+03	9.3827000000E-01	0.000E+00	0.0
	2212	1	0	0	0	0	0.0000000000E+00	0.0000000000E+00	-5.8646747010E+03	5.8646747010E+03	9.3827000000E-01	0.000E+00	0.0
	51	2	1	2	0	0	1.1955718879E+01	3.2481972802E+00	-1.9609832449E+02	1.0724061525E+03	1.0542518262E+03	0.000E+00	0.0
	1000022	2	5	5	0	0	-1.1955718879E+01	-3.2481972802E+00	-1.7623813885E+02	9.4503964673E+02	9.2837845856E+02	0.000E+00	0.0
	14	1	6	6	0	0	-5.6469928269E+01	3.1300599573E+02	-1.8079422840E+02	4.8935994849E+02	3.2500000000E+02	0.000E+00	0.0
	-14	1	6	6	0	0	4.4514209391E+01	-3.1625419301E+02	4.5560895555E+00	4.5567969824E+02	3.2500000000E+02	0.000E+00	0.0
	25	2	5	5	0	0	1.1955718879E+01	3.2481972802E+00	-2.1733683614E+01	1.2763912883E+02	1.2516350988E+02	0.000E+00	0.0
	-5	1	9	9	0	501	-2.3591932881E+01	-8.7706574021E+00	4.4559975198E+01	5.1347517155E+01	4.1800000000E+00	0.000E+00	0.0
	5	1	9	9	501	0	3.5547651760E+01	1.2018854682E+01	-6.6293658811E+01	7.6291611676E+01	4.1800000000E+00	0.000E+00	0.0
</event>
<event>
    11  -1  1.0000000E+00  1.0000000E+00  -1.0000000E+00  -1.0000000E+00
	2212	-1	0	0	0	0	0.0000000000E+00	0.0000000000E+00	6.5000000000E+03	6.5000000000E+03	9.3827000000E-01	0.000E+00	0.0
	2212	-1	0	0	0	0	0.0000000000E+00	0.0000000000E+00	-6.5000000000E+03	6.5000000000E+03	9.3827000000E-01	0.000E+00	0.0
	2212	1	0	0	0	0	0.0000000000E+00	0.0000000000E+00	6.2443491011E+03	6.2443491011E+03	9.3827000000E-01	0.000E+00	0.0
	2212	1	0	0	0	0	0.0000000000E+00	0.0000000000E+00	-5.4227581143E+03	5.4227581143E+03	9.3827000000E-01	0.000E+00	0.0
	51	2	1	2	0	0	-4.1981167513E+01	-1.2703733897E+02	-9.5694680851E+02	1.4266182123E+03	1.0495672563E+03	0.000E+00	0.0
	1000022	2	5	5	0	0	4.1981167513E+01	1.2703733897E+02	-5.3361939272E+02	9.9157401037E+02	8.2496573131E+02	0.000E+00	0.0
	14	1	6	6	0	0	9.3962738106E+01	-1.6814434910E+02	-3.4246632402E+02	5.0991146425E+02	3.2500000000E+02	0.000E+00	0.0
	-14	1	6	6	0	0	-5.1981570593E+01	2.9518168808E+02	-1.9115306870E+02	4.8166254612E+02	3.2500000000E+02	0.000E+00	0.0
	25	2	5	5	0	0	-4.1981167513E+01	-1.2703733897E+02	-2.8797159408E+02	3.4131877418E+02	1.2517972157E+02	0.000E+00	0.0
	-5	1	9	9	0	501	-7.0085224825E+01	-2.7162081518E+01	-1.5752824021E+02	1.7459191355E+02	4.1800000000E+00	0.000E+00	0.0
	5	1	9	9	501	0	2.8104057312E+01	-9.9875257455E+01	-1.3044335386E+02	1.6672686063E+02	4.1800000000E+00	0.000E+00	0.0
</event>
<event>
    11  -1  1.0000000E+00  1.0000000E+00  -1.0000000E+00  -1.0000000E+00
	2212	-1	0	0	0	0	0.0000000000E+00	0.0000000000E+00	6.5000000000E+03	6.5000000000E+03	9.3827000000E-01	0.000E+00	0.0
	2212	-1	0	0	0	0	0.0000000000E+00	0.0000000000E+00	-6.5000000000E+03	6.5000000000E+03	9.3827000000E-01	0.000E+00	0.0
	2212	1	0	0	0	0	0.0000000000E+00	0.0000000000E+00	5.9331117316E+03	5.9331117316E+03	9.3827000000E-01	0.000E+00	0.0
	2212	1	0	0	0	0	0.0000000000E+00	0.0000000000E+00	-6.0110898138E+03	6.0110898138E+03	9.3827000000E-01	0.000E+00	0.0
	51	2	1	2	0	0	-1.2466511069E+02	-7.0786859752E+01	1.0311596949E+02	1.0676211257E+03	1.0529149042E+03	0.000E+00	0.0
	1000022	2	5	5	0	0	1.2466511069E+02	7.0786859752E+01	3.9370194533E+01	8.6159625779E+02	8.4867304063E+02	0.000E+00	0.0
	14	1	6	6	0	0	2.3439003961E+02	-1.7309500287E+02	5.7838874266E+01	4.4030774018E+02	3.2500000000E+02	0.000E+00	0.0
	-14	1	6	6	0	0	-1.0972492892E+02	2.4388186262E+02	-1.8468679734E+01	4.2128851761E+02	3.2500000000E+02	0.000E+00	0.0
	25	2	5	5	0	0	-1.2466511069E+02	-7.0786859752E+01	3.8607887701E+01	1.9420219683E+02	1.2518688000E+02	0.000E+00	0.0
	-5	1	9	9	0	501	-7.3340442805E+01	1.8816726574E+01	-1.5723845277E+01	7.7444182868E+01	4.1800000000E+00	0.000E+00	0.0
	5	1	9	9	501	0	-5.1324667885E+01	-8.9603586326E+01	5.4331732979E+01	1.1675801396E+02	4.1800000000E+00	0.000E+00	0.0
</event>
<event>
    11  -1  1.0000000E+00  1.0000000E+00  -1.0000000E+00  -1.0000000E+00
	2212	-1	0	0	0	0	0.0000000000E+00	0.0000000000E+00	6.5000000000E+03	6.5000000000E+03	9.3827000000E-01	0.000E+00	0.0
	2212	-1	0	0	0	0	0.0000000000E+00	0.0000000000E+00	-6.5000000000E+03	6.5000000000E+03	9.3827000000E-01	0.000E+00	0.0
	2212	1	0	0	0	0	0.0000000000E+00	0.0000000000E+00	5.9295286030E+03	5.9295286030E+03	9.3827000000E-01	0.000E+00	0.0
	2212	1	0	0	0	0	0.0000000000E+00	0.0000000000E+00	-6.0156657947E+03	6.0156657947E+03	9.3827000000E-01	0.000E+00	0.0
	51	2	1	2	0	0	-3.7337377300E+01	-9.7774808032E+01	-1.0763761034E+01	1.0565344738E+03	1.0512826656E+03	0.000E+00	0.0
	1000022	2	5	5	0	0	3.7337377300E+01	9.7774808032E+01	1.6826380035E+02	8.7215533725E+02	8.4934576761E+02	0.000E+00	0.0
	14	1	6	6	0	0	1.2617808212E+02	2.5251316320E+02	-6.3181779006E+01	4.3508705243E+02	3.2500000000E+02	0.000E+00	0.0
	-14	1	6	6	0	0	-8.8840704819E+01	-1.5473835517E+02	2.3144557936E+02	4.3706828482E+02	3.2500000000E+02	0.000E+00	0.0
	25	2	5	5	0	0	-3.7337377300E+01	-9.7774808032E+01	-8.2126608728E+01	1.8265026506E+02	1.2514929739E+02	0.000E+00	0.0
	-5	1	9	9	0	501	-4.9769111439E+01	2.7322132337E+00	-6.1397476270E+01	7.9193130604E+01	4.1800000000E+00	0.000E+00	0.0
	5	1	9	9	501	0	1.2431734139E+01	-1.0050702127E+02	-2.0729132458E+01	1.0345713446E+02	4.1800000000E+00	0.000E+00	0.0
</event>
<event>
    11  -1  1.0000000E+00  1.0000000E+00  -1.0000000E+00  -1.0000000E+00
	2212	-1	0	0	0	0	0.0000000000E+00	0.0000000000E+00	6.5000000000E+03	6.5000000000E+03	9.3827000000E-01	0.000E+00	0.0
	2212	-1	0	0	0	0	0.0000000000E+00	0.0000000000E+00	-6.5000000000E+03	6.5000000000E+03	9.3827000000E-01	0.000E+00	0.0
	2212	1	0	0	0	0	0.0000000000E+00	0.0000000000E+00	6.2459991172E+03	6.2459991172E+03	9.3827000000E-01	0.000E+00	0.0
	2212	1	0	0	0	0	0.0000000000E+00	0.0000000000E+00	-5.4429913783E+03	5.4429913783E+03	9.3827000000E-01	0.000E+00	0.0
	51	2	1	2	0	0	-1.2174930198E+02	1.4292605858E+01	-7.9050226477E+02	1.3091392186E+03	1.0363032818E+03	0.000E+00	0.0
	1000022	2	5	5	0	0	1.2174930198E+02	-1.4292605858E+01	-6.8497037595E+02	1.0997524543E+03	8.5161251380E+02	0.000E+00	0.0
	14	1	6	6	0	0	1.8079150374E+02	-2.5159213754E+02	-3.0214438702E+02	5.4120273660E+02	3.2500000000E+02	0.000E+00	0.0
	-14	1	6	6	0	0	-5.9042201759E+01	2.3729953168E+02	-3.8282598893E+02	5.5854971768E+02	3.2500000000E+02	0.000E+00	0.0
	25	2	5	5	0	0	-1.2174930198E+02	1.4292605858E+01	-1.1803736295E+02	2.1125705013E+02	1.2517807740E+02	0.000E+00	0.0
	-5	1	9	9	0	501	-1.4192043940E+02	2.1949464112E+01	-1.2253293292E+02	1.8882526882E+02	4.1800000000E+00	0.000E+00	0.0
	5	1	9	9	501	0	2.0171137419E+01	-7.6568582534E+00	4.4955699763E+00	2.2431781305E+01	4.1800000000E+00	0.000E+00	0.0
</event>
<event>
    11  -1  1.0000000E+00  1.0000000E+00  -1.0000000E+00  -1.0000000E+00
	2212	-1	0	0	0	0	0.0000000000E+00	0.0000000000E+00	6.5000000000E+03	6.5000000000E+03	9.3827000000E-01	0.000E+00	0.0
	2212	-1	0	0	0	0	0.0000000000E+00	0.0000000000E+00	-6.5000000000E+03	6.5000000000E+03	9.3827000000E-01	0.000E+00	0.0
	2212	1	0	0	0	0	0.0000000000E+00	0.0000000000E+00	6.2976292959E+03	6.2976292959E+03	9.3827000000E-01	0.000E+00	0.0
	2212	1	0	0	0	0	0.0000000000E+00	0.0000000000E+00	-5.1353225422E+03	5.1353225422E+03	9.3827000000E-01	0.000E+00	0.0
	51	2	1	2	0	0	7.7493575288E+01	-1.0830759104E+02	-1.2459065997E+03	1.6354516183E+03	1.0510389869E+03	0.000E+00	0.0
	1000022	2	5	5	0	0	-7.7493575288E+01	1.0830759104E+02	-8.8001189729E+02	1.2307596143E+03	8.5006617408E+02	0.000E+00	0.0
	14	1	6	6	0	0	-1.3516260028E+02	-1.8210363696E+02	-5.6404765997E+02	6.8935145305E+02	3.2500000000E+02	0.000E+00	0.0
	-14	1	6	6	0	0	5.7669024990E+01	2.9041122800E+02	-3.1596423732E+02	5.4140816124E+02	3.2500000000E+02	0.000E+00	0.0
	25	2	5	5	0	0	7.7493575288E+01	-1.0830759104E+02	-2.8229485640E+02	3.3628854762E+02	1.2515515500E+02	0.000E+00	0.0
	-5	1	9	9	0	501	-2.6934975438E+01	-6.3275481173E+01	-1.1057721093E+02	1.3028457851E+02	4.1800000000E+00	0.000E+00	0.0
	5	1	9	9	501	0	1.0442855073E+02	-4.5032109869E+01	-1.7171764546E+02	2.0600396911E+02	4.1800000000E+00	0.000E+00	0.0
</event>
<event>
    11  -1  1.0000000E+00  1.0000000E+00  -1.0000000E+00  -1.0000000E+00
	2212	-1	0	0	0	0	0.0000000000E+00	0.0000000000E+00	6.5000000000E+03	6.5000000000E+03	9.3827000000E-01	0.000E+00	0.0
	2212	-1	0	0	0	0	0.0000000000E+00	0.0000000000E+00	-6.5000000000E+03	6.5000000000E+03	9.3827000000E-01	0.000E+00	0.0
	2212	1	0	0	0	0	0.0000000000E+00	0.0000000000E+00	5.3280014179E+03	5.3280014179E+03	9.3827000000E-01	0.000E+00	0.0
	2212	1	0	0	0	0	0.0000000000E+00	0.0000000000E+00	-6.2614749793E+03	6.2614749793E+03	9.3827000000E-01	0.000E+00	0.0
	51	2	1	2	0	0	1.2068006891E+02	7.5548259185E+01	8.7404209017E+02	1.3792841397E+03	1.0574516273E+03	0.000E+00	0.0
	1000022	2	5	5	0	0	-1.2068006891E+02	-7.5548259185E+01	8.2904074027E+02	1.1941562116E+03	8.4760208246E+02	0.000E+00	0.0
	14	1	6	6	0	0	-2.5482838055E+02	-8.9746773711E+00	1.7501568269E+02	4.4863519429E+02	3.2500000000E+02	0.000E+00	0.0
	-14	1	6	6	0	0	1.3414831165E+02	-6.6573581814E+01	6.5402505758E+02	7.4552101731E+02	3.2500000000E+02	0.000E+00	0.0
	25	2	5	5	0	0	1.2068006891E+02	7.5548259185E+01	1.0443282116E+02	2.1636739119E+02	1.2504965150E+02	0.000E+00	0.0
	-5	1	9	9	0	501	8.5655663312E+00	7.6500179408E+01	4.7529555517E+01	9.0565873394E+01	4.1800000000E+00	0.000E+00	0.0
	5	1	9	9	501	0	1.1211450258E+02	-9.5192022306E-01	5.6903265638E+01	1.2580151780E+02	4.1800000000E+00	0.000E+00	0.0
</event>
<event>
    11  -1  1.0000000E+00  1.0000000E+00  -1.0000000E+00  -1.0000000E+00
	2212	-1	0	0	0	0	0.0000000000E+00	0.0000000000E+00	6.5000000000E+03	6.5000000000E+03	9.3827000000E-01	0.000E+00	0.0
	2212	-1	0	0	0	0	0.0000000000E+00	0.0000000000E+00	-6.5000000000E+03	6.5000000000E+03	9.3827000000E-01	0.000E+00	0.0
	2212	1	0	0	0	0	0.0000000000E+00	0.0000000000E+00	5.5645134956E+03	5.5645134956E+03	9.3827000000E-01	0.000E+00	0.0
	2212	1	0	0	0	0	0.0000000000E+00	0.0000000000E+00	-6.1724144708E+03	6.1724144708E+03	9.3827000000E-01	0.000E+00	0.0
	51	2	1	2	0	0	3.4389691556E+01	1.9602369430E+02	6.1299236322E+02	1.2810835036E+03	1.1071618519E+03	0.000E+00	0.0
	1000022	2	5	5	0	0	-3.4389691556E+01	-1.9602369430E+02	4.8345210088E+02	9.9706441077E+02	8.4900151105E+02	0.000E+00	0.0
	14	1	6	6	0	0	2.7889887493E+01	-1.9448797970E+01	-6.4458029604E+01	3.3307047174E+02	3.2500000000E+02	0.000E+00	0.0
	-14	1	6	6	0	0	-6.2279579049E+01	-1.7657489633E+02	5.4791013048E+02	6.6399393903E+02	3.2500000000E+02	0.000E+00	0.0
	25	2	5	5	0	0	3.4389691556E+01	1.9602369430E+02	1.2444887439E+02	2.6600762281E+02	1.2515827357E+02	0.000E+00	0.0
	-5	1	9	9	0	501	-3.5403348618E+01	2.1064932885E+01	4.6067609398E+01	6.1942114320E+01	4.1800000000E+00	0.000E+00	0.0
	5	1	9	9	501	0	6.9793040173E+01	1.7495876141E+02	7.8381264995E+01	2.0406550849E+02	4.1800000000E+00	0.000E+00	0.0
</event>
<event>
    11  -1  1.0000000E+00  1.0000000E+00  -1.0000000E+00  -1.0000000E+00
	2212	-1	0	0	0	0	0.0000000000E+00	0.0000000000E+00	6.5000000000E+03	6.5000000000E+03	9.3827000000E-01	0.000E+00	0.0
	2212	-1	0	0	0	0	0.0000000000E+00	0.0000000000E+00	-6.5000000000E+03	6.5000000000E+03	9.3827000000E-01	0.000E+00	0.0
	2212	1	0	0	0	0	0.0000000000E+00	0.0000000000E+00	6.1714283584E+03	6.1714283584E+03	9.3827000000E-01	0.000E+00	0.0
	2212	1	0	0	0	0	0.0000000000E+00	0.0000000000E+00	-5.6590577455E+03	5.6590577455E+03	9.3827000000E-01	0.000E+00	0.0
	51	2	1	2	0	0	-1.0480570074E+02	3.7654632760E+01	-4.3139384806E+02	1.1418151630E+03	1.0513035281E+03	0.000E+00	0.0
	1000022	2	5	5	0	0	1.0480570074E+02	-3.7654632760E+01	-5.0778666772E+02	1.0019156373E+03	8.5649608174E+02	0.000E+00	0.0
	14	1	6	6	0	0	-5.7756547921E+01	2.3126624421E+02	-1.6926787955E+02	4.3714586763E+02	3.2500000000E+02	0.000E+00	0.0
	-14	1	6	6	0	0	1.6256224866E+02	-2.6892087697E+02	-3.3851878817E+02	5.6476976965E+02	3.2500000000E+02	0.000E+00	0.0
	25	2	5	5	0	0	-1.0480570074E+02	3.7654632760E+01	-4.5839452144E+00	1.6759825879E+02	1.2516412233E+02	0.000E+00	0.0
	-5	1	9	9	0	501	-1.0651096358E+02	1.3131552940E+01	-4.7916853091E+01	1.1760323234E+02	4.1800000000E+00	0.000E+00	0.0
	5	1	9	9	501	0	1.7052628408E+00	2.4523079820E+01	4.3332907876E+01	4.9995026455E+01	4.1800000000E+00	0.000E+00	0.0
</event>
<event>
    11  -1  1.0000000E+00  1.0000000E+00  -1.0000000E+00  -1.0000000E+00
	2212	-1	0	0	0	0	0.0000000000E+00	0.0000000000E+00	6.5000000000E+03	6.5000000000E+03	9.3827000000E-01	0.000E+00	0.0
	2212	-1	0	0	0	0	0.0000000000E+00	0.0000000000E+00	-6.5000000000E+03	6.5000000000E+03	9.3827000000E-01	0.000E+00	0.0
	2212	1	0	0	0	0	0.0000000000E+00	0.0000000000E+00	5.4578704409E+03	5.4578704409E+03	9.3827000000E-01	0.000E+00	0.0
	2212	1	0	0	0	0	0.0000000000E+00	0.0000000000E+00	-6.2366021661E+03	6.2366021661E+03	9.3827000000E-01	0.000E+00	0.0
	51	2	1	2	0	0	-5.5894472281E+01	3.2833762666E+01	6.4070122987E+02	1.2299101544E+03	1.0478447757E+03	0.000E+00	0.0
	1000022	2	5	5	0	0	5.5894472281E+01	-3.2833762666E+01	7.8736385224E+02	1.1642109830E+03	8.5512755141E+02	0.000E+00	0.0
	14	1	6	6	0	0	1.9732489516E+02	-8.7153375965E+01	1.2257131893E+02	4.0887840908E+02	3.2500000000E+02	0.000E+00	0.0
	-14	1	6	6	0	0	-1.4143042288E+02	5.4319613300E+01	6.6479253331E+02	7.5533257394E+02	3.2500000000E+02	0.000E+00	0.0
	25	2	5	5	0	0	-5.5894472281E+01	3.2833762666E+01	-8.6321270609E+00	1.4131640997E+02	1.2527396420E+02	0.000E+00	0.0
	-5	1	9	9	0	501	-6.3387633945E+01	-2.5304023611E+01	2.5939414953E+01	7.3134201275E+01	4.1800000000E+00	0.000E+00	0.0
	5	1	9	9	501	0	7.4931616639E+00	5.8137786277E+01	-3.4571542014E+01	6.8182208692E+01	4.1800000000E+00	0.000E+00	0.0
</event>
<event>
    11  -1  1.0000000E+00  1.0000000E+00  -1.0000000E+00  -1.0000000E+00
	2212	-1	0	0	0	0	0.0000000000E+00	0.0000000000E+00	6.5000000000E+03	6.5000000000E+03	9.3827000000E-01	0.000E+00	0.0
	2212	-1	0	0	0	0	0.0000000000E+00	0.0000000000E+00	-6.5000000000E+03	6.5000000000E+03	9.3827000000E-01	0.000E+00	0.0
	2212	1	0	0	0	0	0.0000000000E+00	0.0000000000E+00	6.3109871170E+03	6.3109871170E+03	9.3827000000E-01	0.000E+00	0.0
	2212	1	0	0	0	0	0.0000000000E+00	0.0000000000E+00	-5.0357546978E+03	5.0357546978E+03	9.3827000000E-01	0.000E+00	0.0
	51	2	1	2	0	0	8.5766912857E+01	1.0199567098E+02	-1.3833820438E+03	1.7431436726E+03	1.0521620142E+03	0.000E+00	0.0
	1000022	2	5	5	0	0	-8.5766912857E+01	-1.0199567098E+02	-9.4579105467E+02	1.2764819517E+03	8.4683314388E+02	0.000E+00	0.0
	14	1	6	6	0	0	-1.7847063318E+02	7.5721616330E+01	-1.7634922455E+02	4.1750398691E+02	3.2500000000E+02	0.000E+00	0.0
	-14	1	6	6	0	0	9.2703720327E+01	-1.7771728731E+02	-7.6944183012E+02	8.5897796474E+02	3.2500000000E+02	0.000E+00	0.0
	25	2	5	5	0	0	8.5766912857E+01	1.0199567098E+02	-3.2944136447E+02	3.7677623352E+02	1.2517842179E+02	0.000E+00	0.0
	-5	1	9	9	0	501	3.0552898549E+01	1.0882288367E+02	-2.8092546924E+02	3.0284070283E+02	4.1800000000E+00	0.000E+00	0.0
	5	1	9	9	501	0	5.5214014308E+01	-6.8272126882E+00	-4.8515895226E+01	7.3935530692E+01	4.1800000000E+00	0.000E+00	0.0
</event>
<event>
    11  -1  1.0000000E+00  1.0000000E+00  -1.0000000E+00  -1.0000000E+00
	2212	-1	0	0	0	0	0.0000000000E+00	0.0000000000E+00	6.5000000000E+03	6.5000000000E+03	9.3827000000E-01	0.000E+00	0.0
	2212	-1	0	0	0	0	0.0000000000E+00	0.0000000000E+00	-6.5000000000E+03	6.5000000000E+03	9.3827000000E-01	0.000E+00	0.0
	2212	1	0	0	0	0	0.0000000000E+00	0.0000000000E+00	6.3234561278E+03	6.3234561278E+03	9.3827000000E-01	0.000E+00	0.0
	2212	1	0	0	0	0	0.0000000000E+00	0.0000000000E+00	-4.9393371140E+03	4.9393371140E+03	9.3827000000E-01	0.000E+00	0.0
	51	2	1	2	0	0	8.4289037543E+01	1.2101838459E+01	-1.2043633467E+03	1.5999512628E+03	1.0498104001E+03	0.000E+00	0.0
	1000022	2	5	5	0	0	-8.4289037543E+01	-1.2101838459E+01	-1.3250127455E+03	1.5746668137E+03	8.4656110359E+02	0.000E+00	0.0
	14	1	6	6	0	0	5.8556180076E+01	-2.5479180296E+02	-5.7914308220E+02	7.1370820280E+02	3.2500000000E+02	0.000E+00	0.0
	-14	1	6	6	0	0	-1.4284521762E+02	2.4268996450E+02	-7.4586966330E+02	8.6095861091E+02	3.2500000000E+02	0.000E+00	0.0
	25	2	5	5	0	0	8.4289037543E+01	1.2101838459E+01	-5.9106268289E+01	1.6253994443E+02	1.2519818785E+02	0.000E+00	0.0
	-5	1	9	9	0	501	6.3571685575E+01	6.5695183012E+01	-4.9790450861E+01	1.0418146512E+02	4.1800000000E+00	0.000E+00	0.0
	5	1	9	9	501	0	2.0717351968E+01	-5.3593344553E+01	-9.3158174273E+00	5.8358479309E+01	4.1800000000E+00	0.000E+00	0.0
</event>
<event>
    11  -1  1.0000000E+00  1.0000000E+00  -1.0000000E+00  -1.0000000E+00
	2212	-1	0	0	0	0	0.0000000000E+00	0.0000000000E+00	6.5000000000E+03	6.5000000000E+03	9.3827000000E-01	0.000E+00	0.0
	2212	-1	0	0	0	0	0.0000000000E+00	0.0000000000E+00	-6.5000000000E+03	6.5000000000E+03	9.3827000000E-01	0.000E+00	0.0
	2212	1	0	0	0	0	0.0000000000E+00	0.0000000000E+00	6.3020405406E+03	6.3020405406E+03	9.3827000000E-01	0.000E+00	0.0
	2212	1	0	0	0	0	0.0000000000E+00	0.0000000000E+00	-5.1346718362E+03	5.1346718362E+03	9.3827000000E-01	0.000E+00	0.0
	51	2	1	2	0	0	2.0115741568E+01	7.8971636307E+00	-1.3641364241E+03	1.7153581820E+03	1.0397684841E+03	0.000E+00	0.0
	1000022	2	5	5	0	0	-2.0115741568E+01	-7.8971636307E+00	-7.7910567346E+02	1.1547751631E+03	8.5207571175E+02	0.000E+00	0.0
	14	1	6	6	0	0	-5.5229206477E+01	1.0466365230E+02	-5.2135889343E+01	3.4978264153E+02	3.2500000000E+02	0.000E+00	0.0
	-14	1	6	6	0	0	3.5113464909E+01	-1.1256081593E+02	-7.2696978411E+02	8.0499252153E+02	3.2500000000E+02	0.000E+00	0.0
	25	2	5	5	0	0	2.0115741568E+01	7.8971636307E+00	-3.8826303100E+02	4.0851246011E+02	1.2516884825E+02	0.000E+00	0.0
	-5	1	9	9	0	501	4.0554792204E-01	-1.6000349428E+01	-3.7363512844E+02	3.7400114606E+02	4.1800000000E+00	0.000E+00	0.0
	5	1	9	9	501	0	1.9710193646E+01	2.3897513058E+01	-1.4627902556E+01	3.4511314045E+01	4.1800000000E+00	0.000E+00	0.0
</event>
<event>
    11  -1  1.0000000E+00  1.0000000E+00  -1.0000000E+00  -1.0000000E+00
	2212	-1	0	0	0	0	0.0000000000E+00	0.0000000000E+00	6.5000000000E+03	6.5000000000E+03	9.3827000000E-01	0.000E+00	0.0
	2212	-1	0	0	0	0	0.0000000000E+00	0.0000000000E+00	-6.5000000000E+03	6.5000000000E+03	9.3827000000E-01	0.000E+00	0.0
	2212	1	0	0	0	0	0.0000000000E+00	0.0000000000E+00	6.0992359477E+03	6.0992359477E+03	9.3827000000E-01	0.000E+00	0.0
	2212	1	0	0	0	0	0.0000000000E+00	0.0000000000E+00	-5.7732915277E+03	5.7732915277E+03	9.3827000000E-01	0.000E+00	0.0
	51	2	1	2	0	0	5.7496845819E+01	-5.9840911577E+01	-4.8378358883E+02	1.1857014429E+03	1.0793305929E+03	0.000E+00	0.0
	1000022	2	5	5	0	0	-5.7496845819E+01	5.9840911577E+01	-1.0855188635E+02	8.6324289467E+02	8.5236022971E+02	0.000E+00	0.0
	14	1	6	6	0	0	2.6567952860E+00	-2.1126507015E+02	8.0353660788E+01	3.9588091547E+02	3.2500000000E+02	0.000E+00	0.0
	-14	1	6	6	0	0	-6.0153641105E+01	2.7110598173E+02	-1.8890554714E+02	4.6736197920E+02	3.2500000000E+02	0.000E+00	0.0
	25	2	5	5	0	0	5.7496845819E+01	-5.9840911577E+01	-2.1739253360E+02	2.6422962995E+02	1.2518371180E+02	0.000E+00	0.0
	-5	1	9	9	0	501	4.4683882516E+01	3.3011149314E+01	-6.9311192425E+01	8.8926369155E+01	4.1800000000E+00	0.000E+00	0.0
	5	1	9	9	501	0	1.2812963302E+01	-9.2852060891E+01	-1.4808134118E+02	1.7530326079E+02	4.1800000000E+00	0.000E+00	0.0
</event>
<event>
    11  -1  1.0000000E+00  1.0000000E+00  -1.0000000E+00  -1.0000000E+00
	2212	-1	0	0	0	0	0.0000000000E+00	0.0000000000E+00	6.5000000000E+03	6.5000000000E+03	9.3827000000E-01	0.000E+00	0.0
	2212	-1	0	0	0	0	0.0000000000E+00	0.0000000000E+00	-6.5000000000E+03	6.5000000000E+03	9.3827000000E-01	0.000E+00	0.0
	2212	1	0	0	0	0	0.0000000000E+00	0.0000000000E+00	6.3165931967E+03	6.3165931967E+03	9.3827000000E-01	0.000E+00	0.0
	2212	1	0	0	0	0	0.0000000000E+00	0.0000000000E+00	-5.0557109346E+03	5.0557109346E+03	9.3827000000E-01	0.000E+00	0.0
	51	2	1	2	0	0	8.1565853212E+01	9.0249035128E+01	-1.2316479599E+03	1.6097590926E+03	1.0293540509E+03	0.000E+00	0.0
	1000022	2	5	5	0	0	-8.1565853212E+01	-9.0249035128E+01	-1.0833691150E+03	1.3787385984E+03	8.4405782179E+02	0.000E+00	0.0
	14	1	6	6	0	0	-6.4242834639E+01	-7.0583283177E+01	-9.7969431978E+02	1.0365978496E+03	3.2500000000E+02	0.000E+00	0.0
	-14	1	6	6	0	0	-1.7323018573E+01	-1.9665751951E+01	-1.0367479522E+02	3.4214074872E+02	3.2500000000E+02	0.000E+00	0.0
	25	2	5	5	0	0	8.1565853212E+01	9.0249035128E+01	-1.7751314714E+02	2.4895727040E+02	1.2518357849E+02	0.000E+00	0.0
	-5	1	9	9	0	501	1.9696744867E+00	-2.2448917463E+01	-7.0990544249E+01	7.4598681527E+01	4.1800000000E+00	0.000E+00	0.0
	5	1	9	9	501	0	7.9596178725E+01	1.1269795259E+02	-1.0652260289E+02	1.7435858887E+02	4.1800000000E+00	0.000E+00	0.0
</event>
<event>
    11  -1  1.0000000E+00  1.0000000E+00  -1.0000000E+00  -1.0000000E+00
	2212	-1	0	0	0	0	0.0000000000E+00	0.0000000000E+00	6.5000000000E+03	6.5000000000E+03	9.3827000000E-01	0.000E+00	0.0
	2212	-1	0	0	0	0	0.0000000000E+00	0.0000000000E+00	-6.5000000000E+03	6.5000000000E+03	9.3827000000E-01	0.000E+00	0.0
	2212	1	0	0	0	0	0.0000000000E+00	0.0000000000E+00	6.0506628151E+03	6.0506628151E+03	9.3827000000E-01	0.000E+00	0.0
	2212	1	0	0	0	0	0.0000000000E+00	0.0000000000E+00	-5.8945290765E+03	5.8945290765E+03	9.3827000000E-01	0.000E+00	0.0
	51	2	1	2	0	0	-5.3914650960E+01	1.0331278272E+02	-1.1028150131E+02	1.0554547510E+03	1.0431885741E+03	0.000E+00	0.0
	1000022	2	5	5	0	0	5.3914650960E+01	-1.0331278272E+02	-1.7658582139E+02	8.8256313525E+02	8.5682834612E+02	0.000E+00	0.0
	14	1	6	6	0	0	2.1760480948E+02	-4.5297084358E+01	-2.9886196565E+02	4.9431483234E+02	3.2500000000E+02	0.000E+00	0.0
	-14	1	6	6	0	0	-1.6369015852E+02	-5.8015698367E+01	1.2227614426E+02	3.8824830291E+02	3.2500000000E+02	0.000E+00	0.0
	25	2	5	5	0	0	-5.3914650960E+01	1.0331278272E+02	2.0452082813E+01	1.7224497311E+02	1.2517876181E+02	0.000E+00	0.0
	-5	1	9	9	0	501	2.6688007416E+01	2.7340691940E+00	3.2934650905E+01	4.2683585890E+01	4.1800000000E+00	0.000E+00	0.0
	5	1	9	9	501	0	-8.0602658376E+01	1.0057871353E+02	-1.2482568092E+01	1.2956138722E+02	4.1800000000E+00	0.000E+00	0.0
</event>
<event>
    11  -1  1.0000000E+00  1.0000000E+00  -1.0000000E+00  -1.0000000E+00
	2212	-1	0	0	0	0	0.0000000000E+00	0.0000000000E+00	6.5000000000E+03	6.5000000000E+03	9.3827000000E-01	0.000E+00	0.0
	2212	-1	0	0	0	0	0.0000000000E+00	0.0000000000E+00	-6.5000000000E+03	6.5000000000E+03	9.3827000000E-01	0.000E+00	0.0
	2212	1	0	0	0	0	0.0000000000E+00	0.0000000000E+00	6.2482535382E+03	6.2482535382E+03	9.3827000000E-01	0.000E+00	0.0
	2212	1	0	0	0	0	0.0000000000E+00	0.0000000000E+00	-5.4035389564E+03	5.4035389564E+03	9.3827000000E-01	0.000E+00	0.0
	51	2	1	2	0	0	-1.0678173556E+02	-8.0536020107E+01	-9.1908306624E+02	1.4023989537E+03	1.0507715037E+03	0.000E+00	0.0
	1000022	2	5	5	0	0	1.0678173556E+02	8.0536020107E+01	-6.2511367707E+02	1.0622177159E+03	8.4832244876E+02	0.000E+00	0.0
	14	1	6	6	0	0	-1.3715968427E+02	-1.5475229037E+02	-3.3311205904E+02	5.0926387487E+02	3.2500000000E+02	0.000E+00	0.0
	-14	1	6	6	0	0	2.4394141983E+02	2.3528831048E+02	-2.9200161803E+02	5.5295384101E+02	3.2500000000E+02	0.000E+00	0.0
	25	2	5	5	0	0	-1.0678173556E+02	-8.0536020107E+01	-2.1960090466E+02	2.8598978952E+02	1.2520867702E+02	0.000E+00	0.0
	-5	1	9	9	0	501	-4.3283210615E+01	5.3952504036E+00	-1.5497137304E+02	1.6104702391E+02	4.1800000000E+00	0.000E+00	0.0
	5	1	9	9	501	0	-6.3498524943E+01	-8.5931270510E+01	-6.4629531616E+01	1.2494276561E+02	4.1800000000E+00	0.000E+00	0.0
</event>
<event>
    11  -1  1.0000000E+00  1.0000000E+00  -1.0000000E+00  -1.0000000E+00
	2212	-1	0	0	0	0	0.0000000000E+00	0.0000000000E+00	6.5000000000E+03	6.5000000000E+03	9.3827000000E-01	0.000E+00	0.0
	2212	-1	0	0	0	0	0.0000000000E+00	0.0000000000E+00	-6.5000000000E+03	6.5000000000E+03	9.3827000000E-01	0.000E+00	0.0
	2212	1	0	0	0	0	0.0000000000E+00	0.0000000000E+00	6.2570393395E+03	6.2570393395E+03	9.3827000000E-01	0.000E+00	0.0
	2212	1	0	0	0	0	0.0000000000E+00	0.0000000000E+00	-5.3718485537E+03	5.3718485537E+03	9.3827000000E-01	0.000E+00	0.0
	51	2	1	2	0	0	-2.4867210334E+02	-5.4734688361E+01	-9.0860887259E+02	1.4095351952E+03	1.0470843720E+03	0.000E+00	0.0
	1000022	2	5	5	0	0	2.4867210334E+02	5.4734688361E+01	-6.4770247042E+02	1.0011059439E+03	7.1962554130E+02	0.000E+00	0.0
	14	1	6	6	0	0	1.5191122470E+02	-8.2889184175E+01	-1.8768965558E+02	4.1327961945E+02	3.2500000000E+02	0.000E+00	0.0
	-14	1	6	6	0	0	9.6760878638E+01	1.3762387254E+02	-4.6001281484E+02	5.8782632447E+02	3.2500000000E+02	0.000E+00	0.0
	25	2	5	5	0	0	-2.4867210334E+02	-5.4734688361E+01	-2.3748831545E+02	3.7000616290E+02	1.2518050774E+02	0.000E+00	0.0
	-5	1	9	9	0	501	-1.1473061093E+02	-3.3749810147E+00	-3.1757329755E+01	1.1916586749E+02	4.1800000000E+00	0.000E+00	0.0
	5	1	9	9	501	0	-1.3394149241E+02	-5.1359707347E+01	-2.0573098569E+02	2.5084029541E+02	4.1800000000E+00	0.000E+00	0.0
</event>
<event>
    11  -1  1.0000000E+00  1.0000000E+00  -1.0000000E+00  -1.0000000E+00
	2212	-1	0	0	0	0	0.0000000000E+00	0.0000000000E+00	6.5000000000E+03	6.5000000000E+03	9.3827000000E-01	0.000E+00	0.0
	2212	-1	0	0	0	0	0.0000000000E+00	0.0000000000E+00	-6.5000000000E+03	6.5000000000E+03	9.3827000000E-01	0.000E+00	0.0
	2212	1	0	0	0	0	0.0000000000E+00	0.0000000000E+00	5.7071332427E+03	5.7071332427E+03	9.3827000000E-01	0.000E+00	0.0
	2212	1	0	0	0	0	0.0000000000E+00	0.0000000000E+00	-6.1482583248E+03	6.1482583248E+03	9.3827000000E-01	0.000E+00	0.0
	51	2	1	2	0	0	3.3384944911E+01	-1.2989727467E+02	3.4242016516E+02	1.1183812194E+03	1.0561899100E+03	0.000E+00	0.0
	1000022	2	5	5	0	0	-3.3384944911E+01	1.2989727467E+02	4.5869339431E+02	9.6030660151E+02	8.3294734671E+02	0.000E+00	0.0
	14	1	6	6	0	0	1.4178330734E+01	-1.9696198626E+02	2.0804700164E+02	4.3347849310E+02	3.2500000000E+02	0.000E+00	0.0
	-14	1	6	6	0	0	-4.7563275645E+01	3.2685926093E+02	2.5064639267E+02	5.2682810840E+02	3.2500000000E+02	0.000E+00	0.0
	25	2	5	5	0	0	3.3384944911E+01	-1.2989727467E+02	-1.7568312225E+01	1.8430183108E+02	1.2518251806E+02	0.000E+00	0.0
	-5	1	9	9	0	501	-1.3997530527E+01	-1.0387729332E+02	3.3197176957E+01	1.1002703252E+02	4.1800000000E+00	0.000E+00	0.0
	5	1	9	9	501	0	4.7382475438E+01	-2.6019981358E+01	-5.0765489182E+01	7.4274798555E+01	4.1800000000E+00	0.000E+00	0.0
</event>
<event>
    11  -1  1.0000000E+00  1.0000000E+00  -1.0000000E+00  -1.0000000E+00
	2212	-1	0	0	0	0	0.0000000000E+00	0.0000000000E+00	6.5000000000E+03	6.5000000000E+03	9.3827000000E-01	0.000E+00	0.0
	2212	-1	0	0	0	0	0.0000000000E+00	0.0000000000E+00	-6.5000000000E+03	6.5000000000E+03	9.3827000000E-01	0.000E+00	0.0
	2212	1	0	0	0	0	0.0000000000E+00	0.0000000000E+00	5.6424102778E+03	5.6424102778E+03	9.3827000000E-01	0.000E+00	0.0
	2212	1	0	0	0	0	0.0000000000E+00	0.0000000000E+00	-6.1785990416E+03	6.1785990416E+03	9.3827000000E-01	0.000E+00	0.0
	51	2	1	2	0	0	-4.1607956187E+01	-1.3467945015E+02	5.6563357805E+02	1.2009711717E+03	1.0500098258E+03	0.000E+00	0.0
	1000022	2	5	5	0	0	4.1607956187E+01	1.3467945015E+02	4.1475719847E+02	9.5474649121E+02	8.4832043031E+02	0.000E+00	0.0
	14	1	6	6	0	0	-1.8415599584E+02	1.5506108976E+02	3.8334729876E+02	5.5725893786E+02	3.2500000000E+02	0.000E+00	0.0
	-14	1	6	6	0	0	2.2576395203E+02	-2.0381639605E+01	3.1409899708E+01	3.9748755335E+02	3.2500000000E+02	0.000E+00	0.0
	25	2	5	5	0	0	-4.1607956187E+01	-1.3467945015E+02	1.2143156533E+02	2.2424418929E+02	1.2518009052E+02	0.000E+00	0.0
	-5	1	9	9	0	501	-1.1729900014E+01	1.6986058493E+01	-8.0585960976E+00	2.2550612154E+01	4.1800000000E+00	0.000E+00	0.0
	5	1	9	9	501	0	-2.9878056172E+01	-1.5166550864E+02	1.2949016143E+02	2.0169357714E+02	4.1800000000E+00	0.000E+00	0.0
</event>
<event>
    11  -1  1.0000000E+00  1.0000000E+00  -1.0000000E+00  -1.0000000E+00
	2212	-1	0	0	0	0	0.0000000000E+00	0.0000000000E+00	6.5000000000E+03	6.5000000000E+03	9.3827000000E-01	0.000E+00	0.0
	2212	-1	0	0	0	0	0.0000000000E+00	0.0000000000E+00	-6.5000000000E+03	6.5000000000E+03	9.3827000000E-01	0.000E+00	0.0
	2212	1	0	0	0	0	0.0000000000E+00	0.0000000000E+00	6.1081417884E+03	6.1081417884E+03	9.3827000000E-01	0.000E+00	0.0
	2212	1	0	0	0	0	0.0000000000E+00	0.0000000000E+00	-5.7930049371E+03	5.7930049371E+03	9.3827000000E-01	0.000E+00	0.0
	51	2	1	2	0	0	-3.8277964653E-01	-5.5381179402E+01	-1.7143182872E+02	1.0679997085E+03	1.0526952474E+03	0.000E+00	0.0
	1000022	2	5	5	0	0	3.8277964653E-01	5.5381179402E+01	-4.0331475724E+02	9.3608888174E+02	8.4293082726E+02	0.000E+00	0.0
	14	1	6	6	0	0	1.3991864618E+02	2.4001411268E+02	-1.1173777632E+02	4.4192118358E+02	3.2500000000E+02	0.000E+00	0.0
	-14	1	6	6	0	0	-1.3953586653E+02	-1.8463293328E+02	-2.9157698092E+02	4.9416769816E+02	3.2500000000E+02	0.000E+00	0.0
	25	2	5	5	0	0	-3.8277964653E-01	-5.5381179402E+01	8.8177905965E+01	1.6276439280E+02	1.2509869268E+02	0.000E+00	0.0
	-5	1	9	9	0	501	-1.8678652852E+01	-3.7232215519E+01	-2.3545492874E+01	4.8031162588E+01	4.1800000000E+00	0.000E+00	0.0
	5	1	9	9	501	0	1.8295873205E+01	-1.8148963883E+01	1.1172339884E+02	1.1473323021E+02	4.1800000000E+00	0.000E+00	0.0
</event>
<event>
    11  -1  1.0000000E+00  1.0000000E+00  -1.0000000E+00  -1.0000000E+00
	2212	-1	0	0	0	0	0.0000000000E+00	0.0000000000E+00	6.5000000000E+03	6.5000000000E+03	9.3827000000E-01	0.000E+00	0.0
	2212	-1	0	0	0	0	0.0000000000E+00	0.0000000000E+00	-6.5000000000E+03	6.5000000000E+03	9.3827000000E-01	0.000E+00	0.0
	2212	1	0	0	0	0	0.0000000000E+00	0.0000000000E+00	6.1513151156E+03	6.1513151156E+03	9.3827000000E-01	0.000E+00	0.0
	2212	1	0	0	0	0	0.0000000000E+00	0.0000000000E+00	-5.7835530482E+03	5.7835530482E+03	9.3827000000E-01	0.000E+00	0.0
	51	2	1	2	0	0	1.3609272622E+01	-3.5271272840E+01	-4.2941455036E+02	1.0886151851E+03	9.9962837604E+02	0.000E+00	0.0
	1000022	2	5	5	0	0	-1.3609272622E+01	3.5271272840E+01	-2.5449358627E+02	8.9215551960E+02	8.5425125736E+02	0.000E+00	0.0
	14	1	6	6	0	0	1.4739852429E+02	3.6492216869E+01	-3.6621868828E+02	5.1263938056E+02	3.2500000000E+02	0.000E+00	0.0
	-14	1	6	6	0	0	-1.6100779691E+02	-1.2209440290E+00	1.1172510201E+02	3.7951613904E+02	3.2500000000E+02	0.000E+00	0.0
	25	2	5	5	0	0	1.3609272622E+01	-3.5271272840E+01	-1.1326848109E+02	1.7297631655E+02	1.2514704267E+02	0.000E+00	0.0
	-5	1	9	9	0	501	2.5046049183E+01	-8.0035232027E+01	-6.6592036324E+01	1.0716769405E+02	4.1800000000E+00	0.000E+00	0.0
	5	1	9	9	501	0	-1.1436776562E+01	4.4763959187E+01	-4.6676444764E+01	6.5808622505E+01	4.1800000000E+00	0.000E+00	0.0
</event>
<event>
    11  -1  1.0000000E+00  1.0000000E+00  -1.0000000E+00  -1.0000000E+00
	2212	-1	0	0	0	0	0.0000000000E+00	0.0000000000E+00	6.5000000000E+03	6.5000000000E+03	9.3827000000E-01	0.000E+00	0.0
	2212	-1	0	0	0	0	0.0000000000E+00	0.0000000000E+00	-6.5000000000E+03	6.5000000000E+03	9.3827000000E-01	0.000E+00	0.0
	2212	1	0	0	0	0	0.0000000000E+00	0.0000000000E+00	6.2691650667E+03	6.2691650667E+03	9.3827000000E-01	0.000E+00	0.0
	2212	1	0	0	0	0	0.0000000000E+00	0.0000000000E+00	-5.3008496660E+03	5.3008496660E+03	9.3827000000E-01	0.000E+00	0.0
	51	2	1	2	0	0	4.7975332446E+01	1.2208792934E+02	-9.8042551962E+02	1.4441829676E+03	1.0522467151E+03	0.000E+00	0.0
	1000022	2	5	5	0	0	-4.7975332446E+01	-1.2208792934E+02	-7.9680240072E+02	1.1803851648E+03	8.6093436242E+02	0.000E+00	0.0
	14	1	6	6	0	0	1.0289056587E+02	-2.3140700423E+02	-6.6685428518E+02	7.8387199709E+02	3.2500000000E+02	0.000E+00	0.0
	-14	1	6	6	0	0	-1.5086589832E+02	1.0931907489E+02	-1.2994811554E+02	3.9651316768E+02	3.2500000000E+02	0.000E+00	0.0
	25	2	5	5	0	0	4.7975332446E+01	1.2208792934E+02	-1.7151299993E+02	2.4960010249E+02	1.2520545917E+02	0.000E+00	0.0
	-5	1	9	9	0	501	8.3531384132E+01	9.1713164415E+01	-1.5764496156E+02	2.0064446907E+02	4.1800000000E+00	0.000E+00	0.0
	5	1	9	9	501	0	-3.5556051686E+01	3.0374764928E+01	-1.3868038367E+01	4.8955633426E+01	4.1800000000E+00	0.000E+00	0.0
</event>
<event>
    11  -1  1.0000000E+00  1.0000000E+00  -1.0000000E+00  -1.0000000E+00
	2212	-1	0	0	0	0	0.0000000000E+00	0.0000000000E+00	6.5000000000E+03	6.5000000000E+03	9.3827000000E-01	0.000E+00	0.0
	2212	-1	0	0	0	0	0.0000000000E+00	0.0000000000E+00	-6.5000000000E+03	6.5000000000E+03	9.3827000000E-01	0.000E+00	0.0
	2212	1	0	0	0	0	0.0000000000E+00	0.0000000000E+00	6.3137394107E+03	6.3137394107E+03	9.3827000000E-01	0.000E+00	0.0
	2212	1	0	0	0	0	0.0000000000E+00	0.0000000000E+00	-4.9765934219E+03	4.9765934219E+03	9.3827000000E-01	0.000E+00	0.0
	51	2	1	2	0	0	-5.0298238165E+01	-8.7375867620E+01	-1.5146001846E+03	1.8545027911E+03	1.0653649272E+03	0.000E+00	0.0
	1000022	2	5	5	0	0	5.0298238165E+01	8.7375867620E+01	-9.3228730979E+02	1.2740734799E+03	8.6251907186E+02	0.000E+00	0.0
	14	1	6	6	0	0	2.5006995815E+02	1.6373061624E+02	-3.0756900866E+02	5.3811373682E+02	3.2500000000E+02	0.000E+00	0.0
	-14	1	6	6	0	0	-1.9977171999E+02	-7.6354748623E+01	-6.2471830113E+02	7.3595974313E+02	3.2500000000E+02	0.000E+00	0.0
	25	2	5	5	0	0	-5.0298238165E+01	-8.7375867620E+01	-4.0485867904E+02	4.3559368751E+02	1.2516731041E+02	0.000E+00	0.0
	-5	1	9	9	0	501	-3.9790498612E+01	-1.0571665179E+02	-2.0102917174E+02	2.3062847729E+02	4.1800000000E+00	0.000E+00	0.0
	5	1	9	9	501	0	-1.0507739553E+01	1.8340784165E+01	-2.0382950730E+02	2.0496521022E+02	4.1800000000E+00	0.000E+00	0.0
</event>
<event>
    11  -1  1.0000000E+00  1.0000000E+00  -1.0000000E+00  -1.0000000E+00
	2212	-1	0	0	0	0	0.0000000000E+00	0.0000000000E+00	6.5000000000E+03	6.5000000000E+03	9.3827000000E-01	0.000E+00	0.0
	2212	-1	0	0	0	0	0.0000000000E+00	0.0000000000E+00	-6.5000000000E+03	6.5000000000E+03	9.3827000000E-01	0.000E+00	0.0
	2212	1	0	0	0	0	0.0000000000E+00	0.0000000000E+00	5.2902723803E+03	5.2902723803E+03	9.3827000000E-01	0.000E+00	0.0
	2212	1	0	0	0	0	0.0000000000E+00	0.0000000000E+00	-6.2714977496E+03	6.2714977496E+03	9.3827000000E-01	0.000E+00	0.0
	51	2	1	2	0	0	-9.8566685848E+01	7.9628486078E+01	9.0760570155E+02	1.3948140129E+03	1.0515236249E+03	0.000E+00	0.0
	1000022	2	5	5	0	0	9.8566685848E+01	-7.9628486078E+01	8.8809453035E+02	1.2372313785E+03	8.5204078650E+02	0.000E+00	0.0
	14	1	6	6	0	0	-6.9557533808E+01	-2.7828892935E+02	3.5174045303E+02	5.5823769579E+02	3.2500000000E+02	0.000E+00	0.0
	-14	1	6	6	0	0	1.6812421966E+02	1.9866044327E+02	5.3635407732E+02	6.7899368275E+02	3.2500000000E+02	0.000E+00	0.0
	25	2	5	5	0	0	-9.8566685848E+01	7.9628486078E+01	9.3130838920E+01	2.0099849151E+02	1.2518367735E+02	0.000E+00	0.0
	-5	1	9	9	0	501	-1.0991524472E+02	3.0924777635E+01	9.8067306467E+01	1.5057347672E+02	4.1800000000E+00	0.000E+00	0.0
	5	1	9	9	501	0	1.1348558870E+01	4.8703708444E+01	-4.9364675472E+00	5.0425014789E+01	4.1800000000E+00	0.000E+00	0.0
</event>
<event>
    11  -1  1.0000000E+00  1.0000000E+00  -1.0000000E+00  -1.0000000E+00
	2212	-1	0	0	0	0	0.0000000000E+00	0.0000000000E+00	6.5000000000E+03	6.5000000000E+03	9.3827000000E-01	0.000E+00	0.0
	2212	-1	0	0	0	0	0.0000000000E+00	0.0000000000E+00	-6.5000000000E+03	6.5000000000E+03	9.3827000000E-01	0.000E+00	0.0
	2212	1	0	0	0	0	0.0000000000E+00	0.0000000000E+00	5.7799346114E+03	5.7799346114E+03	9.3827000000E-01	0.000E+00	0.0
	2212	1	0	0	0	0	0.0000000000E+00	0.0000000000E+00	-6.1275882151E+03	6.1275882151E+03	9.3827000000E-01	0.000E+00	0.0
	51	2	1	2	0	0	5.1509752488E+01	-9.1610104465E+01	2.8036607578E+02	1.0780974672E+03	1.0356849649E+03	0.000E+00	0.0
	1000022	2	5	5	0	0	-5.1509752488E+01	9.1610104465E+01	3.5823627315E+02	9.2866582197E+02	8.5031836135E+02	0.000E+00	0.0
	14	1	6	6	0	0	1.2050193009E+02	6.1246760959E+01	-7.4705865712E+01	3.5983030341E+02	3.2500000000E+02	0.000E+00	0.0
	-14	1	6	6	0	0	-1.7201168257E+02	3.0363343507E+01	4.3294213886E+02	5.6883551856E+02	3.2500000000E+02	0.000E+00	0.0
	25	2	5	5	0	0	5.1509752488E+01	-9.1610104465E+01	-1.0582669501E+01	1.6381135153E+02	1.2520583115E+02	0.000E+00	0.0
	-5	1	9	9	0	501	5.4822160238E+01	-1.1048683357E+02	-3.8870571470E+01	1.2938780225E+02	4.1800000000E+00	0.000E+00	0.0
	5	1	9	9	501	0	-3.3124077493E+00	1.8876729104E+01	2.8287901968E+01	3.4423549273E+01	4.1800000000E+00	0.000E+00	0.0
</event>
<event>
    11  -1  1.0000000E+00  1.0000000E+00  -1.0000000E+00  -1.0000000E+00
	2212	-1	0	0	0	0	0.0000000000E+00	0.0000000000E+00	6.5000000000E+03	6.5000000000E+03	9.3827000000E-01	0.000E+00	0.0
	2212	-1	0	0	0	0	0.0000000000E+00	0.0000000000E+00	-6.5000000000E+03	6.5000000000E+03	9.3827000000E-01	0.000E+00	0.0
	2212	1	0	0	0	0	0.0000000000E+00	0.0000000000E+00	5.1932595752E+03	5.1932595752E+03	9.3827000000E-01	0.000E+00	0.0
	2212	1	0	0	0	0	0.0000000000E+00	0.0000000000E+00	-6.2895745407E+03	6.2895745407E+03	9.3827000000E-01	0.000E+00	0.0
	51	2	1	2	0	0	7.0371054531E+01	-1.2176521902E+02	1.1954980128E+03	1.5965212710E+03	1.0487544118E+03	0.000E+00	0.0
	1000022	2	5	5	0	0	-7.0371054531E+01	1.2176521902E+02	8.0201671640E+02	1.1677949114E+03	8.3709932967E+02	0.000E+00	0.0
	14	1	6	6	0	0	-4.0032726962E+01	2.5541433757E+02	1.7975721064E+02	4.5252266003E+02	3.2500000000E+02	0.000E+00	0.0
	-14	1	6	6	0	0	-3.0338327570E+01	-1.3364911855E+02	6.2225950576E+02	7.1527225133E+02	3.2500000000E+02	0.000E+00	0.0
	25	2	5	5	0	0	7.0371054531E+01	-1.2176521902E+02	2.9429824911E+02	3.4937097275E+02	1.2517892511E+02	0.000E+00	0.0
	-5	1	9	9	0	501	9.0508723353E+01	-4.2502865694E+01	1.1624831625E+02	1.5339317464E+02	4.1800000000E+00	0.000E+00	0.0
	5	1	9	9	501	0	-2.0137668822E+01	-7.9262353327E+01	1.7804993286E+02	1.9597779811E+02	4.1800000000E+00	0.000E+00	0.0
</event>
<event>
    11  -1  1.0000000E+00  1.0000000E+00  -1.0000000E+00  -1.0000000E+00
	2212	-1	0	0	0	0	0.0000000000E+00	0.0000000000E+00	6.5000000000E+03	6.5000000000E+03	9.3827000000E-01	0.000E+00	0.0
	2212	-1	0	0	0	0	0.0000000000E+00	0.0000000000E+00	-6.5000000000E+03	6.5000000000E+03	9.3827000000E-01	0.000E+00	0.0
	2212	1	0	0	0	0	0.0000000000E+00	0.0000000000E+00	5.3509507342E+03	5.3509507342E+03	9.3827000000E-01	0.000E+00	0.0
	2212	1	0	0	0	0	0.0000000000E+00	0.0000000000E+00	-6.2593274366E+03	6.2593274366E+03	9.3827000000E-01	0.000E+00	0.0
	51	2	1	2	0	0	1.3396506730E+02	-6.3938600879E-01	9.9132867440E+02	1.4515020214E+03	1.0517502219E+03	0.000E+00	0.0
	1000022	2	5	5	0	0	-1.3396506730E+02	6.3938600879E-01	6.6841730749E+02	1.0877366183E+03	8.4760970138E+02	0.000E+00	0.0
	14	1	6	6	0	0	6.9111013629E+01	1.1754140561E+02	5.7802900796E+02	6.7700431924E+02	3.2500000000E+02	0.000E+00	0.0
	-14	1	6	6	0	0	-2.0307608093E+02	-1.1690201960E+02	9.0388299534E+01	4.1073229910E+02	3.2500000000E+02	0.000E+00	0.0
	25	2	5	5	0	0	1.3396506730E+02	-6.3938600879E-01	2.3995939485E+02	3.0198521087E+02	1.2516991786E+02	0.000E+00	0.0
	-5	1	9	9	0	501	4.6335366675E+01	3.9742135503E+01	1.7553131417E+02	1.8589007018E+02	4.1800000000E+00	0.000E+00	0.0
	5	1	9	9	501	0	8.7629700627E+01	-4.0381521512E+01	6.4428080684E+01	1.1609514069E+02	4.1800000000E+00	0.000E+00	0.0
</event>
<event>
    11  -1  1.0000000E+00  1.0000000E+00  -1.0000000E+00  -1.0000000E+00
	2212	-1	0	0	0	0	0.0000000000E+00	0.0000000000E+00	6.5000000000E+03	6.5000000000E+03	9.3827000000E-01	0.000E+00	0.0
	2212	-1	0	0	0	0	0.0000000000E+00	0.0000000000E+00	-6.5000000000E+03	6.5000000000E+03	9.3827000000E-01	0.000E+00	0.0
	2212	1	0	0	0	0	0.0000000000E+00	0.0000000000E+00	4.9039896670E+03	4.9039896670E+03	9.3827000000E-01	0.000E+00	0.0
	2212	1	0	0	0	0	0.0000000000E+00	0.0000000000E+00	-6.3250507211E+03	6.3250507211E+03	9.3827000000E-01	0.000E+00	0.0
	51	2	1	2	0	0	-5.4558372128E+01	9.8830345855E+01	1.5992394865E+03	1.9202068680E+03	1.0568270566E+03	0.000E+00	0.0
	1000022	2	5	5	0	0	5.4558372128E+01	-9.8830345855E+01	9.9491273190E+02	1.3126864638E+03	8.4885237529E+02	0.000E+00	0.0
	14	1	6	6	0	0	-1.6481336807E+02	-9.7256718145E+01	2.0135831472E+02	4.2754237968E+02	3.2500000000E+02	0.000E+00	0.0
	-14	1	6	6	0	0	2.1937174020E+02	-1.5736277098E+00	7.9355441718E+02	8.8514408416E+02	3.2500000000E+02	0.000E+00	0.0
	25	2	5	5	0	0	-5.4558372128E+01	9.8830345855E+01	4.2614832220E+02	4.5827314808E+02	1.2517121279E+02	0.000E+00	0.0
	-5	1	9	9	0	501	-6.9397630081E+01	8.4421349235E+01	4.2303478544E+02	4.3694267056E+02	4.1800000000E+00	0.000E+00	0.0
	5	1	9	9	501	0	1.4839257953E+01	1.4408996620E+01	3.1135367630E+00	2.1330477523E+01	4.1800000000E+00	0.000E+00	0.0
</event>
<event>
    11  -1  1.0000000E+00  1.0000000E+00  -1.0000000E+00  -1.0000000E+00
	2212	-1	0	0	0	0	0.0000000000E+00	0.0000000000E+00	6.5000000000E+03	6.5000000000E+03	9.3827000000E-01	0.000E+00	0.0
	2212	-1	0	0	0	0	0.0000000000E+00	0.0000000000E+00	-6.5000000000E+03	6.5000000000E+03	9.3827000000E-01	0.000E+00	0.0
	2212	1	0	0	0	0	0.0000000000E+00	0.0000000000E+00	5.7846623429E+03	5.7846623429E+03	9.3827000000E-01	0.000E+00	0.0
	2212	1	0	0	0	0	0.0000000000E+00	0.0000000000E+00	-6.1147735110E+03	6.1147735110E+03	9.3827000000E-01	0.000E+00	0.0
	51	2	1	2	0	0	-4.1553253419E+01	1.3554611515E+02	6.9693641974E+02	1.2681040382E+03	1.0498895448E+03	0.000E+00	0.0
	1000022	2	5	5	0	0	4.1553253419E+01	-1.3554611515E+02	-1.3785963516E+02	5.9581310085E+02	5.6203963378E+02	0.000E+00	0.0
	14	1	6	6	0	0	0.0000000000E+00	0.0000000000E+00	0.0000000000E+00	0.0000000000E+00	0.0000000000E+00	0.000E+00	0.0
	-14	1	6	6	0	0	0.0000000000E+00	0.0000000000E+00	0.0000000000E+00	0.0000000000E+00	0.0000000000E+00	0.000E+00	0.0
	25	2	5	5	0	0	-4.1553253419E+01	1.3554611515E+02	4.6797080326E+02	5.0475104517E+02	1.2520991454E+02	0.000E+00	0.0
	-5	1	9	9	0	501	8.6465957723E+00	8.8890468484E+01	1.1766328949E+02	1.4777821591E+02	4.1800000000E+00	0.000E+00	0.0
	5	1	9	9	501	0	-5.0199849191E+01	4.6655646666E+01	3.5030751377E+02	3.5697282926E+02	4.1800000000E+00	0.000E+00	0.0
</event>
<event>
    11  -1  1.0000000E+00  1.0000000E+00  -1.0000000E+00  -1.0000000E+00
	2212	-1	0	0	0	0	0.0000000000E+00	0.0000000000E+00	6.5000000000E+03	6.5000000000E+03	9.3827000000E-01	0.000E+00	0.0
	2212	-1	0	0	0	0	0.0000000000E+00	0.0000000000E+00	-6.5000000000E+03	6.5000000000E+03	9.3827000000E-01	0.000E+00	0.0
	2212	1	0	0	0	0	0.0000000000E+00	0.0000000000E+00	6.2683544469E+03	6.2683544469E+03	9.3827000000E-01	0.000E+00	0.0
	2212	1	0	0	0	0	0.0000000000E+00	0.0000000000E+00	-5.3143703168E+03	5.3143703168E+03	9.3827000000E-01	0.000E+00	0.0
	51	2	1	2	0	0	1.1778966395E+02	-7.1153355754E+01	-9.6969973654E+02	1.4345166987E+03	1.0481332811E+03	0.000E+00	0.0
	1000022	2	5	5	0	0	-1.1778966395E+02	7.1153355754E+01	-7.7707435295E+02	1.1605575611E+03	8.5094776434E+02	0.000E+00	0.0
	14	1	6	6	0	0	-1.7982223067E+02	2.6962695741E+02	-5.3576206974E+02	7.0547907565E+02	3.2500000000E+02	0.000E+00	0.0
	-14	1	6	6	0	0	6.2032566719E+01	-1.9847360166E+02	-2.4131228321E+02	4.5507848545E+02	3.2500000000E+02	0.000E+00	0.0
	25	2	5	5	0	0	1.1778966395E+02	-7.1153355754E+01	-1.7690977723E+02	2.5671767523E+02	1.2517863446E+02	0.000E+00	0.0
	-5	1	9	9	0	501	-6.6269019271E+00	1.7389917958E+01	4.4570878497E+00	1.9587320078E+01	4.1800000000E+00	0.000E+00	0.0
	5	1	9	9	501	0	1.2441656588E+02	-8.8543273712E+01	-1.8136686508E+02	2.3713035515E+02	4.1800000000E+00	0.000E+00	0.0
</event>
<event>
    11  -1  1.0000000E+00  1.0000000E+00  -1.0000000E+00  -1.0000000E+00
	2212	-1	0	0	0	0	0.0000000000E+00	0.0000000000E+00	6.5000000000E+03	6.5000000000E+03	9.3827000000E-01	0.000E+00	0.0
	2212	-1	0	0	0	0	0.0000000000E+00	0.0000000000E+00	-6.5000000000E+03	6.5000000000E+03	9.3827000000E-01	0.000E+00	0.0
	2212	1	0	0	0	0	0.0000000000E+00	0.0000000000E+00	5.9981012587E+03	5.9981012587E+03	9.3827000000E-01	0.000E+00	0.0
	2212	1	0	0	0	0	0.0000000000E+00	0.0000000000E+00	-5.9498571677E+03	5.9498571677E+03	9.3827000000E-01	0.000E+00	0.0
	51	2	1	2	0	0	2.7226122648E+01	-3.2221277044E+01	8.7871638598E+01	1.0554453457E+03	1.0509348126E+03	0.000E+00	0.0
	1000022	2	5	5	0	0	-2.7226122648E+01	3.2221277044E+01	-1.7608604266E+02	8.6821449703E+02	8.4912345744E+02	0.000E+00	0.0
	14	1	6	6	0	0	6.6810428903E+01	-1.2893550845E+02	-3.0820589925E+02	4.7085440965E+02	3.2500000000E+02	0.000E+00	0.0
	-14	1	6	6	0	0	-9.4036551550E+01	1.6115678549E+02	1.3211985659E+02	3.9736008738E+02	3.2500000000E+02	0.000E+00	0.0
	25	2	5	5	0	0	2.7226122648E+01	-3.2221277044E+01	1.2784195168E+02	1.8382707665E+02	1.2517730247E+02	0.000E+00	0.0
	-5	1	9	9	0	501	-1.3227328956E+01	-7.2924377391E+01	7.8354437932E+01	1.0793431981E+02	4.1800000000E+00	0.000E+00	0.0
	5	1	9	9	501	0	4.0453451604E+01	4.0703100347E+01	4.9487513747E+01	7.5892756844E+01	4.1800000000E+00	0.000E+00	0.0
</event>
<event>
    11  -1  1.0000000E+00  1.0000000E+00  -1.0000000E+00  -1.0000000E+00
	2212	-1	0	0	0	0	0.0000000000E+00	0.0000000000E+00	6.5000000000E+03	6.5000000000E+03	9.3827000000E-01	0.000E+00	0.0
	2212	-1	0	0	0	0	0.0000000000E+00	0.0000000000E+00	-6.5000000000E+03	6.5000000000E+03	9.3827000000E-01	0.000E+00	0.0
	2212	1	0	0	0	0	0.0000000000E+00	0.0000000000E+00	5.5487100209E+03	5.5487100209E+03	9.3827000000E-01	0.000E+00	0.0
	2212	1	0	0	0	0	0.0000000000E+00	0.0000000000E+00	-6.2151315959E+03	6.2151315959E+03	9.3827000000E-01	0.000E+00	0.0
	51	2	1	2	0	0	-3.8559105665E+01	1.1559751560E+02	5.9453929818E+02	1.2051126089E+03	1.0411387192E+03	0.000E+00	0.0
	1000022	2	5	5	0	0	3.8559105665E+01	-1.1559751560E+02	6.2473306018E+02	1.0565394800E+03	8.4328802086E+02	0.000E+00	0.0
	14	1	6	6	0	0	1.5022190926E+02	-2.7743280403E+02	2.2730560156E+02	5.0678241808E+02	3.2500000000E+02	0.000E+00	0.0
	-14	1	6	6	0	0	-1.1166280359E+02	1.6183528843E+02	3.9742745862E+02	5.4975706194E+02	3.2500000000E+02	0.000E+00	0.0
	25	2	5	5	0	0	-3.8559105665E+01	1.1559751560E+02	4.1688514824E+01	1.7961890317E+02	1.2520154897E+02	0.000E+00	0.0
	-5	1	9	9	0	501	3.7637175394E+01	3.9392764453E+01	4.6379609045E+01	7.1672082417E+01	4.1800000000E+00	0.000E+00	0.0
	5	1	9	9	501	0	-7.6196281060E+01	7.6204751148E+01	-4.6910942211E+00	1.0794682075E+02	4.1800000000E+00	0.000E+00	0.0
</event>
<event>
    11  -1  1.0000000E+00  1.0000000E+00  -1.0000000E+00  -1.0000000E+00
	2212	-1	0	0	0	0	0.0000000000E+00	0.0000000000E+00	6.5000000000E+03	6.5000000000E+03	9.3827000000E-01	0.000E+00	0.0
	2212	-1	0	0	0	0	0.0000000000E+00	0.0000000000E+00	-6.5000000000E+03	6.5000000000E+03	9.3827000000E-01	0.000E+00	0.0
	2212	1	0	0	0	0	0.0000000000E+00	0.0000000000E+00	4.9421679130E+03	4.9421679130E+03	9.3827000000E-01	0.000E+00	0.0
	2212	1	0	0	0	0	0.0000000000E+00	0.0000000000E+00	-6.3115323248E+03	6.3115323248E+03	9.3827000000E-01	0.000E+00	0.0
	51	2	1	2	0	0	-1.5268156288E+02	-1.2441357041E+02	1.3755751423E+03	1.7622148947E+03	1.0836992051E+03	0.000E+00	0.0
	1000022	2	5	5	0	0	1.5268156288E+02	1.2441357041E+02	1.0904685376E+03	1.3826393563E+03	8.2690964560E+02	0.000E+00	0.0
	14	1	6	6	0	0	-8.5745655956E+01	-1.4058849732E+02	5.3020710647E+02	6.4332108534E+02	3.2500000000E+02	0.000E+00	0.0
	-14	1	6	6	0	0	2.3842721883E+02	2.6500206773E+02	5.6026143117E+02	7.3931827101E+02	3.2500000000E+02	0.000E+00	0.0
	25	2	5	5	0	0	-1.5268156288E+02	-1.2441357041E+02	2.7889587416E+02	3.6366040583E+02	1.2520218048E+02	0.000E+00	0.0
	-5	1	9	9	0	501	7.0720519062E+00	-5.8159946208E+01	9.0444714625E+01	1.0784392456E+02	4.1800000000E+00	0.000E+00	0.0
	5	1	9	9	501	0	-1.5975361478E+02	-6.6253624202E+01	1.8845115954E+02	2.5581648126E+02	4.1800000000E+00	0.000E+00	0.0
</event>
<event>
    11  -1  1.0000000E+00  1.0000000E+00  -1.0000000E+00  -1.0000000E+00
	2212	-1	0	0	0	0	0.0000000000E+00	0.0000000000E+00	6.5000000000E+03	6.5000000000E+03	9.3827000000E-01	0.000E+00	0.0
	2212	-1	0	0	0	0	0.0000000000E+00	0.0000000000E+00	-6.5000000000E+03	6.5000000000E+03	9.3827000000E-01	0.000E+00	0.0
	2212	1	0	0	0	0	0.0000000000E+00	0.0000000000E+00	5.7561342745E+03	5.7561342745E+03	9.3827000000E-01	0.000E+00	0.0
	2212	1	0	0	0	0	0.0000000000E+00	0.0000000000E+00	-6.1317703101E+03	6.1317703101E+03	9.3827000000E-01	0.000E+00	0.0
	51	2	1	2	0	0	-1.7300076664E+01	1.0570662523E+02	4.7230684690E+02	1.1533432806E+03	1.0467348193E+03	0.000E+00	0.0
	1000022	2	5	5	0	0	1.7300076664E+01	-1.0570662523E+02	2.1523101929E+02	8.8215820636E+02	8.4876706234E+02	0.000E+00	0.0
	14	1	6	6	0	0	-2.0360194987E+02	-2.0902958315E+02	3.6607502006E+01	4.3830609148E+02	3.2500000000E+02	0.000E+00	0.0
	-14	1	6	6	0	0	2.2090202653E+02	1.0332295792E+02	1.7862351728E+02	4.4385211488E+02	3.2500000000E+02	0.000E+00	0.0
	25	2	5	5	0	0	-1.7300076664E+01	1.0570662523E+02	1.6040501629E+02	2.2993720911E+02	1.2517255136E+02	0.000E+00	0.0
	-5	1	9	9	0	501	-2.7879014594E+00	5.3855506228E+01	-6.5315294083E+00	5.4482301916E+01	4.1800000000E+00	0.000E+00	0.0
	5	1	9	9	501	0	-1.4512175205E+01	5.1851119002E+01	1.6693654570E+02	1.7545490720E+02	4.1800000000E+00	0.000E+00	0.0
</event>
<event>
    11  -1  1.0000000E+00  1.0000000E+00  -1.0000000E+00  -1.0000000E+00
	2212	-1	0	0	0	0	0.0000000000E+00	0.0000000000E+00	6.5000000000E+03	6.5000000000E+03	9.3827000000E-01	0.000E+00	0.0
	2212	-1	0	0	0	0	0.0000000000E+00	0.0000000000E+00	-6.5000000000E+03	6.5000000000E+03	9.3827000000E-01	0.000E+00	0.0
	2212	1	0	0	0	0	0.0000000000E+00	0.0000000000E+00	5.7251566245E+03	5.7251566245E+03	9.3827000000E-01	0.000E+00	0.0
	2212	1	0	0	0	0	0.0000000000E+00	0.0000000000E+00	-6.1551346094E+03	6.1551346094E+03	9.3827000000E-01	0.000E+00	0.0
	51	2	1	2	0	0	-1.5254953973E+01	-8.1819710277E+01	4.7796518858E+02	1.1420352681E+03	1.0338600744E+03	0.000E+00	0.0
	1000022	2	5	5	0	0	1.5254953973E+01	8.1819710277E+01	3.1876448968E+02	9.3273422330E+02	8.7261397698E+02	0.000E+00	0.0
	14	1	6	6	0	0	-2.4635477552E+02	1.7445266557E+02	2.1511426619E+02	4.9297419351E+02	3.2500000000E+02	0.000E+00	0.0
	-14	1	6	6	0	0	2.6160972949E+02	-9.2632955295E+01	1.0365022349E+02	4.3976002979E+02	3.2500000000E+02	0.000E+00	0.0
	25	2	5	5	0	0	-1.5254953973E+01	-8.1819710277E+01	1.1121349519E+02	1.8697454283E+02	1.2515534165E+02	0.000E+00	0.0
	-5	1	9	9	0	501	-1.2964998059E+01	-9.2524112898E+01	1.3279240090E+02	1.6241950862E+02	4.1800000000E+00	0.000E+00	0.0
	5	1	9	9	501	0	-2.2899559136E+00	1.0704402622E+01	-2.1578905709E+01	2.4555034213E+01	4.1800000000E+00	0.000E+00	0.0
</event>
<event>
    11  -1  1.0000000E+00  1.0000000E+00  -1.0000000E+00  -1.0000000E+00
	2212	-1	0	0	0	0	0.0000000000E+00	0.0000000000E+00	6.5000000000E+03	6.5000000000E+03	9.3827000000E-01	0.000E+00	0.0
	2212	-1	0	0	0	0	0.0000000000E+00	0.0000000000E+00	-6.5000000000E+03	6.5000000000E+03	9.3827000000E-01	0.000E+00	0.0
	2212	1	0	0	0	0	0.0000000000E+00	0.0000000000E+00	6.0773447543E+03	6.0773447543E+03	9.3827000000E-01	0.000E+00	0.0
	2212	1	0	0	0	0	0.0000000000E+00	0.0000000000E+00	-5.8439798484E+03	5.8439798484E+03	9.3827000000E-01	0.000E+00	0.0
	51	2	1	2	0	0	-9.6192709096E+01	-5.4021882749E+01	-1.4520849071E+02	1.0688022924E+03	1.0531293526E+03	0.000E+00	0.0
	1000022	2	5	5	0	0	9.6192709096E+01	5.4021882749E+01	-2.8179525518E+02	9.0492393431E+02	8.5282317038E+02	0.000E+00	0.0
	14	1	6	6	0	0	7.5847803522E+01	2.7385975503E+01	-4.3095993555E+02	5.4576033843E+02	3.2500000000E+02	0.000E+00	0.0
	-14	1	6	6	0	0	2.0344905574E+01	2.6635907246E+01	1.4916468037E+02	3.5916359588E+02	3.2500000000E+02	0.000E+00	0.0
	25	2	5	5	0	0	-9.6192709096E+01	-5.4021882749E+01	4.8430349248E+01	1.7375146294E+02	1.2519053896E+02	0.000E+00	0.0
	-5	1	9	9	0	501	-2.0212592757E+01	-8.0355518510E+01	4.1954164714E+01	9.2968718384E+01	4.1800000000E+00	0.000E+00	0.0
	5	1	9	9	501	0	-7.5980116339E+01	2.6333635761E+01	6.4761845339E+00	8.0782744553E+01	4.1800000000E+00	0.000E+00	0.0
</event>
<event>
    11  -1  1.0000000E+00  1.0000000E+00  -1.0000000E+00  -1.0000000E+00
	2212	-1	0	0	0	0	0.0000000000E+00	0.0000000000E+00	6.5000000000E+03	6.5000000000E+03	9.3827000000E-01	0.000E+00	0.0
	2212	-1	0	0	0	0	0.0000000000E+00	0.0000000000E+00	-6.5000000000E+03	6.5000000000E+03	9.3827000000E-01	0.000E+00	0.0
	2212	1	0	0	0	0	0.0000000000E+00	0.0000000000E+00	5.1105756185E+03	5.1105756185E+03	9.3827000000E-01	0.000E+00	0.0
	2212	1	0	0	0	0	0.0000000000E+00	0.0000000000E+00	-6.3161020032E+03	6.3161020032E+03	9.3827000000E-01	0.000E+00	0.0
	51	2	1	2	0	0	-7.4574829519E+01	-1.6475312607E+01	1.2777537850E+03	1.6311152681E+03	1.0109646096E+03	0.000E+00	0.0
	1000022	2	5	5	0	0	7.4574829519E+01	1.6475312607E+01	9.5545597637E+02	1.2834280695E+03	8.5349788846E+02	0.000E+00	0.0
	14	1	6	6	0	0	3.1160238425E+02	5.1087587045E+01	5.1102282258E+02	6.8298997988E+02	3.2500000000E+02	0.000E+00	0.0
	-14	1	6	6	0	0	-2.3702755473E+02	-3.4612274439E+01	4.4443315379E+02	6.0043808959E+02	3.2500000000E+02	0.000E+00	0.0
	25	2	5	5	0	0	-7.4574829519E+01	-1.6475312607E+01	2.5007040839E+02	2.8989430884E+02	1.2518250687E+02	0.000E+00	0.0
	-5	1	9	9	0	501	2.7161933563E+00	3.5808632056E+01	1.9401872058E+01	4.1030974586E+01	4.1800000000E+00	0.000E+00	0.0
	5	1	9	9	501	0	-7.7291022876E+01	-5.2283944663E+01	2.3066853633E+02	2.4886333426E+02	4.1800000000E+00	0.000E+00	0.0
</event>
<event>
    11  -1  1.0000000E+00  1.0000000E+00  -1.0000000E+00  -1.0000000E+00
	2212	-1	0	0	0	0	0.0000000000E+00	0.0000000000E+00	6.5000000000E+03	6.5000000000E+03	9.3827000000E-01	0.000E+00	0.0
	2212	-1	0	0	0	0	0.0000000000E+00	0.0000000000E+00	-6.5000000000E+03	6.5000000000E+03	9.3827000000E-01	0.000E+00	0.0
	2212	1	0	0	0	0	0.0000000000E+00	0.0000000000E+00	5.5059660553E+03	5.5059660553E+03	9.3827000000E-01	0.000E+00	0.0
	2212	1	0	0	0	0	0.0000000000E+00	0.0000000000E+00	-6.2223049203E+03	6.2223049203E+03	9.3827000000E-01	0.000E+00	0.0
	51	2	1	2	0	0	1.1251420440E+02	4.9647149100E+01	6.1519747777E+02	1.2238241557E+03	1.0507870107E+03	0.000E+00	0.0
	1000022	2	5	5	0	0	-1.1251420440E+02	-4.9647149100E+01	6.9059342086E+02	1.0943694628E+03	8.4000057294E+02	0.000E+00	0.0
	14	1	6	6	0	0	-1.8848070198E+02	6.1524234277E+01	6.3189586865E+02	7.3771782901E+02	3.2500000000E+02	0.000E+00	0.0
	-14	1	6	6	0	0	7.5966497585E+01	-1.1117138338E+02	5.8697552205E+01	3.5665163377E+02	3.2500000000E+02	0.000E+00	0.0
	25	2	5	5	0	0	1.1251420440E+02	4.9647149100E+01	2.5745444134E+01	1.7735956157E+02	1.2517707690E+02	0.000E+00	0.0
	-5	1	9	9	0	501	6.4134639876E+01	9.7488158089E+00	7.3724314323E+01	9.8290581258E+01	4.1800000000E+00	0.000E+00	0.0
	5	1	9	9	501	0	4.8379564521E+01	3.9898333291E+01	-4.7978870189E+01	7.9068980310E+01	4.1800000000E+00	0.000E+00	0.0
</event>
<event>
    11  -1  1.0000000E+00  1.0000000E+00  -1.0000000E+00  -1.0000000E+00
	2212	-1	0	0	0	0	0.0000000000E+00	0.0000000000E+00	6.5000000000E+03	6.5000000000E+03	9.3827000000E-01	0.000E+00	0.0
	2212	-1	0	0	0	0	0.0000000000E+00	0.0000000000E+00	-6.5000000000E+03	6.5000000000E+03	9.3827000000E-01	0.000E+00	0.0
	2212	1	0	0	0	0	0.0000000000E+00	0.0000000000E+00	5.5384811408E+03	5.5384811408E+03	9.3827000000E-01	0.000E+00	0.0
	2212	1	0	0	0	0	0.0000000000E+00	0.0000000000E+00	-6.2140075917E+03	6.2140075917E+03	9.3827000000E-01	0.000E+00	0.0
	51	2	1	2	0	0	-5.2966166223E+01	1.4790136253E+01	7.3442624029E+02	1.2815437730E+03	1.0487842375E+03	0.000E+00	0.0
	1000022	2	5	5	0	0	5.2966166223E+01	-1.4790136253E+01	5.2489181481E+02	1.0440697705E+03	9.0085853807E+02	0.000E+00	0.0
	14	1	6	6	0	0	3.0621348556E+02	1.2423286243E+02	2.2044913655E+02	5.1324781992E+02	3.2500000000E+02	0.000E+00	0.0
	-14	1	6	6	0	0	-2.5324731934E+02	-1.3902299869E+02	3.0444267826E+02	5.3082195062E+02	3.2500000000E+02	0.000E+00	0.0
	25	2	5	5	0	0	-5.2966166223E+01	1.4790136253E+01	1.5063463604E+02	2.0344149697E+02	1.2519379465E+02	0.000E+00	0.0
	-5	1	9	9	0	501	-5.9696503145E+00	-5.1426083578E+01	3.7243329786E+01	6.3912571616E+01	4.1800000000E+00	0.000E+00	0.0
	5	1	9	9	501	0	-4.6996515909E+01	6.6216219831E+01	1.1339130626E+02	1.3952892536E+02	4.1800000000E+00	0.000E+00	0.0
</event>
<event>
    11  -1  1.0000000E+00  1.0000000E+00  -1.0000000E+00  -1.0000000E+00
	2212	-1	0	0	0	0	0.0000000000E+00	0.0000000000E+00	6.5000000000E+03	6.5000000000E+03	9.3827000000E-01	0.000E+00	0.0
	2212	-1	0	0	0	0	0.0000000000E+00	0.0000000000E+00	-6.5000000000E+03	6.5000000000E+03	9.3827000000E-01	0.000E+00	0.0
	2212	1	0	0	0	0	0.0000000000E+00	0.0000000000E+00	6.1333876866E+03	6.1333876866E+03	9.3827000000E-01	0.000E+00	0.0
	2212	1	0	0	0	0	0.0000000000E+00	0.0000000000E+00	-5.7501973371E+03	5.7501973371E+03	9.3827000000E-01	0.000E+00	0.0
	51	2	1	2	0	0	1.2104282933E+02	-3.1299376785E+01	-4.3547629572E+02	1.1422863814E+03	1.0485931315E+03	0.000E+00	0.0
	1000022	2	5	5	0	0	-1.2104282933E+02	3.1299376785E+01	-2.6716030650E+02	9.0482682692E+02	8.5539811774E+02	0.000E+00	0.0
	14	1	6	6	0	0	1.1762833346E+02	1.5041531232E+02	4.7149977025E+01	3.7988065408E+02	3.2500000000E+02	0.000E+00	0.0
	-14	1	6	6	0	0	-2.3867116279E+02	-1.1911593554E+02	-3.1431028353E+02	5.2494617284E+02	3.2500000000E+02	0.000E+00	0.0
	25	2	5	5	0	0	1.2104282933E+02	-3.1299376785E+01	-1.1603004294E+02	2.1158814941E+02	1.2520206304E+02	0.000E+00	0.0
	-5	1	9	9	0	501	1.4016934893E+02	-4.4584634519E+01	-1.1687037647E+02	1.8791326007E+02	4.1800000000E+00	0.000E+00	0.0
	5	1	9	9	501	0	-1.9126519599E+01	1.3285257734E+01	8.4033353125E-01	2.3674889344E+01	4.1800000000E+00	0.000E+00	0.0
</event>
<event>
    11  -1  1.0000000E+00  1.0000000E+00  -1.0000000E+00  -1.0000000E+00
	2212	-1	0	0	0	0	0.0000000000E+00	0.0000000000E+00	6.5000000000E+03	6.5000000000E+03	9.3827000000E-01	0.000E+00	0.0
	2212	-1	0	0	0	0	0.0000000000E+00	0.0000000000E+00	-6.5000000000E+03	6.5000000000E+03	9.3827000000E-01	0.000E+00	0.0
	2212	1	0	0	0	0	0.0000000000E+00	0.0000000000E+00	5.8060472150E+03	5.8060472150E+03	9.3827000000E-01	0.000E+00	0.0
	2212	1	0	0	0	0	0.0000000000E+00	0.0000000000E+00	-6.1007025751E+03	6.1007025751E+03	9.3827000000E-01	0.000E+00	0.0
	51	2	1	2	0	0	-2.8124444064E+01	-1.2391397814E+02	2.1011086961E+02	1.0810487853E+03	1.0527935411E+03	0.000E+00	0.0
	1000022	2	5	5	0	0	2.8124444064E+01	1.2391397814E+02	3.2706893432E+02	9.1203198988E+02	8.4183288391E+02	0.000E+00	0.0
	14	1	6	6	0	0	-2.3405375246E+02	-1.2702395112E+01	8.2197782953E+01	4.0905254602E+02	3.2500000000E+02	0.000E+00	0.0
	-14	1	6	6	0	0	2.6217819653E+02	1.3661637325E+02	2.4487115137E+02	5.0297944386E+02	3.2500000000E+02	0.000E+00	0.0
	25	2	5	5	0	0	-2.8124444064E+01	-1.2391397814E+02	-3.2413574275E+01	1.8121822003E+02	1.2507495809E+02	0.000E+00	0.0
	-5	1	9	9	0	501	-4.6610008395E+01	-6.0233259447E+01	-7.1150659060E+01	1.0430928583E+02	4.1800000000E+00	0.000E+00	0.0
	5	1	9	9	501	0	1.8485564331E+01	-6.3680718690E+01	3.8737084784E+01	7.6908934195E+01	4.1800000000E+00	0.000E+00	0.0
</event>
<event>
    11  -1  1.0000000E+00  1.0000000E+00  -1.0000000E+00  -1.0000000E+00
	2212	-1	0	0	0	0	0.0000000000E+00	0.0000000000E+00	6.5000000000E+03	6.5000000000E+03	9.3827000000E-01	0.000E+00	0.0
	2212	-1	0	0	0	0	0.0000000000E+00	0.0000000000E+00	-6.5000000000E+03	6.5000000000E+03	9.3827000000E-01	0.000E+00	0.0
	2212	1	0	0	0	0	0.0000000000E+00	0.0000000000E+00	5.4018702594E+03	5.4018702594E+03	9.3827000000E-01	0.000E+00	0.0
	2212	1	0	0	0	0	0.0000000000E+00	0.0000000000E+00	-6.2494091318E+03	6.2494091318E+03	9.3827000000E-01	0.000E+00	0.0
	51	2	1	2	0	0	-6.4556941462E+01	-1.0715197496E+02	9.4839284227E+02	1.4197969109E+03	1.0491544884E+03	0.000E+00	0.0
	1000022	2	5	5	0	0	6.4556941462E+01	1.0715197496E+02	6.0026199874E+02	1.0446360114E+03	8.4575456531E+02	0.000E+00	0.0
	14	1	6	6	0	0	3.7229219260E+01	1.1592138709E+01	6.2327386986E+02	7.0399979353E+02	3.2500000000E+02	0.000E+00	0.0
	-14	1	6	6	0	0	2.7327722201E+01	9.5559836246E+01	-2.3011871122E+01	3.4063621786E+02	3.2500000000E+02	0.000E+00	0.0
	25	2	5	5	0	0	-6.4556941462E+01	-1.0715197496E+02	2.4727687365E+02	3.0408459743E+02	1.2518963904E+02	0.000E+00	0.0
	-5	1	9	9	0	501	8.8867549247E+00	-7.8598499130E+01	1.9212156655E+02	2.0780968989E+02	4.1800000000E+00	0.000E+00	0.0
	5	1	9	9	501	0	-7.3443696386E+01	-2.8553475826E+01	5.5155307105E+01	9.6274907543E+01	4.1800000000E+00	0.000E+00	0.0
</event>
<event>
    11  -1  1.0000000E+00  1.0000000E+00  -1.0000000E+00  -1.0000000E+00
	2212	-1	0	0	0	0	0.0000000000E+00	0.0000000000E+00	6.5000000000E+03	6.5000000000E+03	9.3827000000E-01	0.000E+00	0.0
	2212	-1	0	0	0	0	0.0000000000E+00	0.0000000000E+00	-6.5000000000E+03	6.5000000000E+03	9.3827000000E-01	0.000E+00	0.0
	2212	1	0	0	0	0	0.0000000000E+00	0.0000000000E+00	6.3272092775E+03	6.3272092775E+03	9.3827000000E-01	0.000E+00	0.0
	2212	1	0	0	0	0	0.0000000000E+00	0.0000000000E+00	-4.9668513066E+03	4.9668513066E+03	9.3827000000E-01	0.000E+00	0.0
	51	2	1	2	0	0	4.9164402746E+01	-7.7287894822E+01	-1.3212702572E+03	1.6774388606E+03	1.0293956875E+03	0.000E+00	0.0
	1000022	2	5	5	0	0	-4.9164402746E+01	7.7287894822E+01	-1.1971986365E+03	1.4808146617E+03	8.6668156198E+02	0.000E+00	0.0
	14	1	6	6	0	0	1.2496998366E+02	2.8338475383E+02	-6.0247331273E+02	7.5134779435E+02	3.2500000000E+02	0.000E+00	0.0
	-14	1	6	6	0	0	-1.7413438641E+02	-2.0609685901E+02	-5.9472532380E+02	7.2946686737E+02	3.2500000000E+02	0.000E+00	0.0
	25	2	5	5	0	0	4.9164402746E+01	-7.7287894822E+01	-1.6315933441E+02	2.2512475413E+02	1.2517839004E+02	0.000E+00	0.0
	-5	1	9	9	0	501	-4.0313506746E+01	-3.9636498575E+01	-4.6657703522E+01	7.3421008870E+01	4.1800000000E+00	0.000E+00	0.0
	5	1	9	9	501	0	8.9477909492E+01	-3.7651396246E+01	-1.1650163089E+02	1.5170374526E+02	4.1800000000E+00	0.000E+00	0.0
</event>
<event>
    11  -1  1.0000000E+00  1.0000000E+00  -1.0000000E+00  -1.0000000E+00
	2212	-1	0	0	0	0	0.0000000000E+00	0.0000000000E+00	6.5000000000E+03	6.5000000000E+03	9.3827000000E-01	0.000E+00	0.0
	2212	-1	0	0	0	0	0.0000000000E+00	0.0000000000E+00	-6.5000000000E+03	6.5000000000E+03	9.3827000000E-01	0.000E+00	0.0
	2212	1	0	0	0	0	0.0000000000E+00	0.0000000000E+00	5.4761195508E+03	5.4761195508E+03	9.3827000000E-01	0.000E+00	0.0
	2212	1	0	0	0	0	0.0000000000E+00	0.0000000000E+00	-6.2308431493E+03	6.2308431493E+03	9.3827000000E-01	0.000E+00	0.0
	51	2	1	2	0	0	-1.4179522231E+01	-8.0997444458E+01	8.7073746583E+02	1.3664856853E+03	1.0499227347E+03	0.000E+00	0.0
	1000022	2	5	5	0	0	1.4179522231E+01	8.0997444458E+01	5.1815464784E+02	1.0130467848E+03	8.6661289183E+02	0.000E+00	0.0
	14	1	6	6	0	0	-2.0491690062E+02	-1.1698347924E+02	1.1710137434E+02	4.1834651002E+02	3.2500000000E+02	0.000E+00	0.0
	-14	1	6	6	0	0	2.1909642285E+02	1.9798092370E+02	4.0105327349E+02	5.9470027479E+02	3.2500000000E+02	0.000E+00	0.0
	25	2	5	5	0	0	-1.4179522231E+01	-8.0997444458E+01	2.3656895064E+02	2.7999051512E+02	1.2517258203E+02	0.000E+00	0.0
	-5	1	9	9	0	501	3.5507338146E+01	-4.3545936253E+01	2.9223931892E+01	6.3470703648E+01	4.1800000000E+00	0.000E+00	0.0
	5	1	9	9	501	0	-4.9686860377E+01	-3.7451508205E+01	2.0734501875E+02	2.1651981148E+02	4.1800000000E+00	0.000E+00	0.0
</event>
<event>
    11  -1  1.0000000E+00  1.0000000E+00  -1.0000000E+00  -1.0000000E+00
	2212	-1	0	0	0	0	0.0000000000E+00	0.0000000000E+00	6.5000000000E+03	6.5000000000E+03	9.3827000000E-01	0.000E+00	0.0
	2212	-1	0	0	0	0	0.0000000000E+00	0.0000000000E+00	-6.5000000000E+03	6.5000000000E+03	9.3827000000E-01	0.000E+00	0.0
	2212	1	0	0	0	0	0.0000000000E+00	0.0000000000E+00	4.8420984777E+03	4.8420984777E+03	9.3827000000E-01	0.000E+00	0.0
	2212	1	0	0	0	0	0.0000000000E+00	0.0000000000E+00	-6.3338186039E+03	6.3338186039E+03	9.3827000000E-01	0.000E+00	0.0
	51	2	1	2	0	0	9.5312198642E+01	-1.0436681840E+02	1.5063824434E+03	1.8415250397E+03	1.0497854819E+03	0.000E+00	0.0
	1000022	2	5	5	0	0	-9.5312198642E+01	1.0436681840E+02	1.2222386109E+03	1.4950465922E+03	8.4930574164E+02	0.000E+00	0.0
	14	1	6	6	0	0	-1.4129790165E+02	3.0639804414E+02	7.6480107789E+02	8.9687822318E+02	3.2500000000E+02	0.000E+00	0.0
	-14	1	6	6	0	0	4.5985703010E+01	-2.0203122574E+02	4.5743753305E+02	5.9816836902E+02	3.2500000000E+02	0.000E+00	0.0
	25	2	5	5	0	0	9.5312198642E+01	-1.0436681840E+02	2.6948151530E+02	3.2903632619E+02	1.2517095856E+02	0.000E+00	0.0
	-5	1	9	9	0	501	4.6043552695E+01	-1.0444964375E+02	2.5184794518E+02	2.7654040702E+02	4.1800000000E+00	0.000E+00	0.0
	5	1	9	9	501	0	4.9268645947E+01	8.2825350329E-02	1.7633570122E+01	5.2495919163E+01	4.1800000000E+00	0.000E+00	0.0
</event>
<event>
    11  -1  1.0000000E+00  1.0000000E+00  -1.0000000E+00  -1.0000000E+00
	2212	-1	0	0	0	0	0.0000000000E+00	0.0000000000E+00	6.5000000000E+03	6.5000000000E+03	9.3827000000E-01	0.000E+00	0.0
	2212	-1	0	0	0	0	0.0000000000E+00	0.0000000000E+00	-6.5000000000E+03	6.5000000000E+03	9.3827000000E-01	0.000E+00	0.0
	2212	1	0	0	0	0	0.0000000000E+00	0.0000000000E+00	5.9290922272E+03	5.9290922272E+03	9.3827000000E-01	0.000E+00	0.0
	2212	1	0	0	0	0	0.0000000000E+00	0.0000000000E+00	-6.0466232665E+03	6.0466232665E+03	9.3827000000E-01	0.000E+00	0.0
	51	2	1	2	0	0	7.7806518832E+01	-3.7190124463E+01	1.3884603229E+02	1.0305631398E+03	1.0175191422E+03	0.000E+00	0.0
	1000022	2	5	5	0	0	-7.7806518832E+01	3.7190124463E+01	7.8942526409E+01	8.6746692687E+02	8.5955220144E+02	0.000E+00	0.0
	14	1	6	6	0	0	8.9207969151E+00	-2.4796869693E+02	-3.9677115767E+01	4.1081300952E+02	3.2500000000E+02	0.000E+00	0.0
	-14	1	6	6	0	0	-8.6727315747E+01	2.8515882140E+02	1.1861964218E+02	4.5665391735E+02	3.2500000000E+02	0.000E+00	0.0
	25	2	5	5	0	0	7.7806518832E+01	-3.7190124463E+01	3.8588512878E+01	1.5681757949E+02	1.2516277474E+02	0.000E+00	0.0
	-5	1	9	9	0	501	9.2360355475E+01	-5.7072465462E+01	5.9814756432E+01	1.2402813820E+02	4.1800000000E+00	0.000E+00	0.0
	5	1	9	9	501	0	-1.4553836644E+01	1.9882341000E+01	-2.1226243554E+01	3.2789441290E+01	4.1800000000E+00	0.000E+00	0.0
</event>
<event>
    11  -1  1.0000000E+00  1.0000000E+00  -1.0000000E+00  -1.0000000E+00
	2212	-1	0	0	0	0	0.0000000000E+00	0.0000000000E+00	6.5000000000E+03	6.5000000000E+03	9.3827000000E-01	0.000E+00	0.0
	2212	-1	0	0	0	0	0.0000000000E+00	0.0000000000E+00	-6.5000000000E+03	6.5000000000E+03	9.3827000000E-01	0.000E+00	0.0
	2212	1	0	0	0	0	0.0000000000E+00	0.0000000000E+00	6.2444021962E+03	6.2444021962E+03	9.3827000000E-01	0.000E+00	0.0
	2212	1	0	0	0	0	0.0000000000E+00	0.0000000000E+00	-5.4113166034E+03	5.4113166034E+03	9.3827000000E-01	0.000E+00	0.0
	51	2	1	2	0	0	2.0686881402E+02	-2.8541624499E+01	-8.5183901984E+02	1.3719691641E+03	1.0550167491E+03	0.000E+00	0.0
	1000022	2	5	5	0	0	-2.0686881402E+02	2.8541624499E+01	-6.3823216182E+02	1.0324352501E+03	7.8420209310E+02	0.000E+00	0.0
	14	1	6	6	0	0	-2.5630976029E+02	1.0799529067E+02	-1.8286376400E+02	4.6521159940E+02	3.2500000000E+02	0.000E+00	0.0
	-14	1	6	6	0	0	4.9440946270E+01	-7.9453666169E+01	-4.5536839782E+02	5.6722365075E+02	3.2500000000E+02	0.000E+00	0.0
	25	2	5	5	0	0	2.0686881402E+02	-2.8541624499E+01	-1.9485343101E+02	3.1184595029E+02	1.2518269286E+02	0.000E+00	0.0
	-5	1	9	9	0	501	2.0503961577E+01	3.2067156338E+01	-4.4020466176E+00	3.8543032709E+01	4.1800000000E+00	0.000E+00	0.0
	5	1	9	9	501	0	1.8636485245E+02	-6.0608780837E+01	-1.9045138440E+02	2.7330291759E+02	4.1800000000E+00	0.000E+00	0.0
</event>
<event>
    11  -1  1.0000000E+00  1.0000000E+00  -1.0000000E+00  -1.0000000E+00
	2212	-1	0	0	0	0	0.0000000000E+00	0.0000000000E+00	6.5000000000E+03	6.5000000000E+03	9.3827000000E-01	0.000E+00	0.0
	2212	-1	0	0	0	0	0.0000000000E+00	0.0000000000E+00	-6.5000000000E+03	6.5000000000E+03	9.3827000000E-01	0.000E+00	0.0
	2212	1	0	0	0	0	0.0000000000E+00	0.0000000000E+00	5.2726859647E+03	5.2726859647E+03	9.3827000000E-01	0.000E+00	0.0
	2212	1	0	0	0	0	0.0000000000E+00	0.0000000000E+00	-6.2728358056E+03	6.2728358056E+03	9.3827000000E-01	0.000E+00	0.0
	51	2	1	2	0	0	-1.3623460026E+02	-1.8493845289E+01	1.0546593415E+03	1.4988046676E+03	1.0560337193E+03	0.000E+00	0.0
	1000022	2	5	5	0	0	1.3623460026E+02	1.8493845289E+01	7.7570545786E+02	1.1630222348E+03	8.5556991103E+02	0.000E+00	0.0
	14	1	6	6	0	0	-1.5541123059E+02	8.7010757259E+01	5.5912818896E+02	6.7080015963E+02	3.2500000000E+02	0.000E+00	0.0
	-14	1	6	6	0	0	2.9164583085E+02	-6.8516911970E+01	2.1657726890E+02	4.9222207517E+02	3.2500000000E+02	0.000E+00	0.0
	25	2	5	5	0	0	-1.3623460026E+02	-1.8493845289E+01	2.2444438310E+02	2.9145599487E+02	1.2517758274E+02	0.000E+00	0.0
	-5	1	9	9	0	501	-1.4955107701E+02	-2.8421476239E+01	2.2778901387E+02	2.7400476672E+02	4.1800000000E+00	0.000E+00	0.0
	5	1	9	9	501	0	1.3316476746E+01	9.9276309501E+00	-3.3446307681E+00	1.7451228157E+01	4.1800000000E+00	0.000E+00	0.0
</event>
<event>
    11  -1  1.0000000E+00  1.0000000E+00  -1.0000000E+00  -1.0000000E+00
	2212	-1	0	0	0	0	0.0000000000E+00	0.0000000000E+00	6.5000000000E+03	6.5000000000E+03	9.3827000000E-01	0.000E+00	0.0
	2212	-1	0	0	0	0	0.0000000000E+00	0.0000000000E+00	-6.5000000000E+03	6.5000000000E+03	9.3827000000E-01	0.000E+00	0.0
	2212	1	0	0	0	0	0.0000000000E+00	0.0000000000E+00	5.2820897870E+03	5.2820897870E+03	9.3827000000E-01	0.000E+00	0.0
	2212	1	0	0	0	0	0.0000000000E+00	0.0000000000E+00	-6.2707812471E+03	6.2707812471E+03	9.3827000000E-01	0.000E+00	0.0
	51	2	1	2	0	0	9.4920938759E+01	-4.8630659199E+01	1.1310002187E+03	1.5515179215E+03	1.0567267577E+03	0.000E+00	0.0
	1000022	2	5	5	0	0	-9.4920938759E+01	4.8630659199E+01	6.7681799554E+02	1.0945513613E+03	8.5357199923E+02	0.000E+00	0.0
	14	1	6	6	0	0	1.4986560693E+02	1.2313259920E+01	7.2885408035E+01	3.6544301774E+02	3.2500000000E+02	0.000E+00	0.0
	-14	1	6	6	0	0	-2.4478654569E+02	3.6317399279E+01	6.0393258751E+02	7.2910834359E+02	3.2500000000E+02	0.000E+00	0.0
	25	2	5	5	0	0	9.4920938759E+01	-4.8630659199E+01	3.1187346456E+02	3.5257760449E+02	1.2518379951E+02	0.000E+00	0.0
	-5	1	9	9	0	501	-2.3428405695E+01	8.3163674685E+00	1.8972738180E+01	3.1551376441E+01	4.1800000000E+00	0.000E+00	0.0
	5	1	9	9	501	0	1.1834934445E+02	-5.6947026668E+01	2.9290072638E+02	3.2102622805E+02	4.1800000000E+00	0.000E+00	0.0
</event>
<event>
    11  -1  1.0000000E+00  1.0000000E+00  -1.0000000E+00  -1.0000000E+00
	2212	-1	0	0	0	0	0.0000000000E+00	0.0000000000E+00	6.5000000000E+03	6.5000000000E+03	9.3827000000E-01	0.000E+00	0.0
	2212	-1	0	0	0	0	0.0000000000E+00	0.0000000000E+00	-6.5000000000E+03	6.5000000000E+03	9.3827000000E-01	0.000E+00	0.0
	2212	1	0	0	0	0	0.0000000000E+00	0.0000000000E+00	4.8766220866E+03	4.8766220866E+03	9.3827000000E-01	0.000E+00	0.0
	2212	1	0	0	0	0	0.0000000000E+00	0.0000000000E+00	-6.3265725364E+03	6.3265725364E+03	9.3827000000E-01	0.000E+00	0.0
	51	2	1	2	0	0	4.3803703734E+01	9.7881818933E+01	1.6386393303E+03	1.9551960836E+03	1.0612036825E+03	0.000E+00	0.0
	1000022	2	5	5	0	0	-4.3803703734E+01	-9.7881818933E+01	1.0098228869E+03	1.3268272110E+03	8.5394881002E+02	0.000E+00	0.0
	14	1	6	6	0	0	1.0004576357E+02	-1.5910143608E+02	1.6858824413E+02	4.1154515892E+02	3.2500000000E+02	0.000E+00	0.0
	-14	1	6	6	0	0	-1.4384946730E+02	6.1219617144E+01	8.4123464275E+02	9.1528205212E+02	3.2500000000E+02	0.000E+00	0.0
	25	2	5	5	0	0	4.3803703734E+01	9.7881818933E+01	4.4012756298E+02	4.6997816596E+02	1.2517024344E+02	0.000E+00	0.0
	-5	1	9	9	0	501	7.8654377811E+01	1.0056970121E+02	3.7148462815E+02	3.9283466917E+02	4.1800000000E+00	0.000E+00	0.0
	5	1	9	9	501	0	-3.4850674077E+01	-2.6878822735E+00	6.8642934834E+01	7.7143496793E+01	4.1800000000E+00	0.000E+00	0.0
</event>
<event>
    11  -1  1.0000000E+00  1.0000000E+00  -1.0000000E+00  -1.0000000E+00
	2212	-1	0	0	0	0	0.0000000000E+00	0.0000000000E+00	6.5000000000E+03	6.5000000000E+03	9.3827000000E-01	0.000E+00	0.0
	2212	-1	0	0	0	0	0.0000000000E+00	0.0000000000E+00	-6.5000000000E+03	6.5000000000E+03	9.3827000000E-01	0.000E+00	0.0
	2212	1	0	0	0	0	0.0000000000E+00	0.0000000000E+00	6.2873698145E+03	6.2873698145E+03	9.3827000000E-01	0.000E+00	0.0
	2212	1	0	0	0	0	0.0000000000E+00	0.0000000000E+00	-5.1964427203E+03	5.1964427203E+03	9.3827000000E-01	0.000E+00	0.0
	51	2	1	2	0	0	1.4437457727E+02	-2.1266681957E+01	-1.0695028054E+03	1.5079240849E+03	1.0529494313E+03	0.000E+00	0.0
	1000022	2	5	5	0	0	-1.4437457727E+02	2.1266681957E+01	-9.2244672543E+02	1.2605183949E+03	8.4658276159E+02	0.000E+00	0.0
	14	1	6	6	0	0	1.9450721229E+02	-3.2915776692E+01	-4.8725584227E+02	6.1802893121E+02	3.2500000000E+02	0.000E+00	0.0
	-14	1	6	6	0	0	-3.3888178956E+02	5.4182458649E+01	-4.3519088316E+02	6.4248946365E+02	3.2500000000E+02	0.000E+00	0.0
	25	2	5	5	0	0	1.4437457727E+02	-2.1266681957E+01	-1.6848036879E+02	2.5566907038E+02	1.2523876620E+02	0.000E+00	0.0
	-5	1	9	9	0	501	4.0277262216E+01	3.8992131162E+00	1.4851509819E+01	4.3307060145E+01	4.1800000000E+00	0.000E+00	0.0
	5	1	9	9	501	0	1.0409731506E+02	-2.5165895074E+01	-1.8333187861E+02	2.1236201024E+02	4.1800000000E+00	0.000E+00	0.0
</event>
<event>
    11  -1  1.0000000E+00  1.0000000E+00  -1.0000000E+00  -1.0000000E+00
	2212	-1	0	0	0	0	0.0000000000E+00	0.0000000000E+00	6.5000000000E+03	6.5000000000E+03	9.3827000000E-01	0.000E+00	0.0
	2212	-1	0	0	0	0	0.0000000000E+00	0.0000000000E+00	-6.5000000000E+03	6.5000000000E+03	9.3827000000E-01	0.000E+00	0.0
	2212	1	0	0	0	0	0.0000000000E+00	0.0000000000E+00	5.6561146643E+03	5.6561146643E+03	9.3827000000E-01	0.000E+00	0.0
	2212	1	0	0	0	0	0.0000000000E+00	0.0000000000E+00	-6.1768307653E+03	6.1768307653E+03	9.3827000000E-01	0.000E+00	0.0
	51	2	1	2	0	0	9.3886688887E+01	-6.5187589569E+00	4.2803947478E+02	1.1326721101E+03	1.0444477548E+03	0.000E+00	0.0
	1000022	2	5	5	0	0	-9.3886688887E+01	6.5187589569E+00	5.2809305900E+02	1.0102592136E+03	8.5608655816E+02	0.000E+00	0.0
	14	1	6	6	0	0	-2.0812785208E+02	9.7482970894E+01	5.1870437989E+02	6.5383435681E+02	3.2500000000E+02	0.000E+00	0.0
	-14	1	6	6	0	0	1.1424116319E+02	-9.0964211937E+01	9.3886791080E+00	3.5642485676E+02	3.2500000000E+02	0.000E+00	0.0
	25	2	5	5	0	0	9.3886688887E+01	-6.5187589569E+00	-7.3769580665E+00	1.5679535680E+02	1.2519249114E+02	0.000E+00	0.0
	-5	1	9	9	0	501	5.2953723765E+00	-2.5441541457E+00	5.0372874667E+01	5.0886271146E+01	4.1800000000E+00	0.000E+00	0.0
	5	1	9	9	501	0	8.8591316511E+01	-3.9746048111E+00	-5.7749832733E+01	1.0590908566E+02	4.1800000000E+00	0.000E+00	0.0
</event>
<event>
    11  -1  1.0000000E+00  1.0000000E+00  -1.0000000E+00  -1.0000000E+00
	2212	-1	0	0	0	0	0.0000000000E+00	0.0000000000E+00	6.5000000000E+03	6.5000000000E+03	9.3827000000E-01	0.000E+00	0.0
	2212	-1	0	0	0	0	0.0000000000E+00	0.0000000000E+00	-6.5000000000E+03	6.5000000000E+03	9.3827000000E-01	0.000E+00	0.0
	2212	1	0	0	0	0	0.0000000000E+00	0.0000000000E+00	6.2067890551E+03	6.2067890551E+03	9.3827000000E-01	0.000E+00	0.0
	2212	1	0	0	0	0	0.0000000000E+00	0.0000000000E+00	-5.5748102178E+03	5.5748102178E+03	9.3827000000E-01	0.000E+00	0.0
	51	2	1	2	0	0	-1.2713535772E+02	2.8133164605E+01	-6.2124295012E+02	1.2198363653E+03	1.0416828120E+03	0.000E+00	0.0
	1000022	2	5	5	0	0	1.2713535772E+02	-2.8133164605E+01	-5.3780168367E+02	1.0147017887E+03	8.5054934889E+02	0.000E+00	0.0
	14	1	6	6	0	0	2.2123014041E+02	-1.9161204821E+02	-4.5260764853E+02	6.2939386361E+02	3.2500000000E+02	0.000E+00	0.0
	-14	1	6	6	0	0	-9.4094782693E+01	1.6347888361E+02	-8.5194035146E+01	3.8530792509E+02	3.2500000000E+02	0.000E+00	0.0
	25	2	5	5	0	0	-1.2713535772E+02	2.8133164605E+01	-9.4177153637E+01	2.0369893831E+02	1.2517606428E+02	0.000E+00	0.0
	-5	1	9	9	0	501	-8.4237176734E+01	-4.4669530716E+01	-4.1788060155E+01	1.0418725109E+02	4.1800000000E+00	0.000E+00	0.0
	5	1	9	9	501	0	-4.2898180985E+01	7.2802695321E+01	-5.2389093482E+01	9.9511687221E+01	4.1800000000E+00	0.000E+00	0.0
</event>
<event>
    11  -1  1.0000000E+00  1.0000000E+00  -1.0000000E+00  -1.0000000E+00
	2212	-1	0	0	0	0	0.0000000000E+00	0.0000000000E+00	6.5000000000E+03	6.5000000000E+03	9.3827000000E-01	0.000E+00	0.0
	2212	-1	0	0	0	0	0.0000000000E+00	0.0000000000E+00	-6.5000000000E+03	6.5000000000E+03	9.3827000000E-01	0.000E+00	0.0
	2212	1	0	0	0	0	0.0000000000E+00	0.0000000000E+00	6.2771994295E+03	6.2771994295E+03	9.3827000000E-01	0.000E+00	0.0
	2212	1	0	0	0	0	0.0000000000E+00	0.0000000000E+00	-5.1190429738E+03	5.1190429738E+03	9.3827000000E-01	0.000E+00	0.0
	51	2	1	2	0	0	-9.0954257871E+01	1.1651587620E+02	-1.3807025050E+03	1.7773294818E+03	1.1093746225E+03	0.000E+00	0.0
	1000022	2	5	5	0	0	9.0954257871E+01	-1.1651587620E+02	-7.0519827088E+02	1.1111224184E+03	8.4583674611E+02	0.000E+00	0.0
	14	1	6	6	0	0	-1.8612790689E+02	-2.9193317939E+01	-1.4823153013E+02	4.0384828099E+02	3.2500000000E+02	0.000E+00	0.0
	-14	1	6	6	0	0	2.7708216476E+02	-8.7322558265E+01	-5.5696674075E+02	7.0727413745E+02	3.2500000000E+02	0.000E+00	0.0
	25	2	5	5	0	0	-9.0954257871E+01	1.1651587620E+02	-4.5295818485E+02	4.9263517825E+02	1.2517857323E+02	0.000E+00	0.0
	-5	1	9	9	0	501	-2.6414721782E+01	2.2799276340E+01	-2.9945444017E+02	3.0150950013E+02	4.1800000000E+00	0.000E+00	0.0
	5	1	9	9	501	0	-6.4539536088E+01	9.3716599864E+01	-1.5350374468E+02	1.9112567812E+02	4.1800000000E+00	0.000E+00	0.0
</event>
<event>
    11  -1  1.0000000E+00  1.0000000E+00  -1.0000000E+00  -1.0000000E+00
	2212	-1	0	0	0	0	0.0000000000E+00	0.0000000000E+00	6.5000000000E+03	6.5000000000E+03	9.3827000000E-01	0.000E+00	0.0
	2212	-1	0	0	0	0	0.0000000000E+00	0.0000000000E+00	-6.5000000000E+03	6.5000000000E+03	9.3827000000E-01	0.000E+00	0.0
	2212	1	0	0	0	0	0.0000000000E+00	0.0000000000E+00	5.5146039557E+03	5.5146039557E+03	9.3827000000E-01	0.000E+00	0.0
	2212	1	0	0	0	0	0.0000000000E+00	0.0000000000E+00	-6.2296331958E+03	6.2296331958E+03	9.3827000000E-01	0.000E+00	0.0
	51	2	1	2	0	0	5.0906133417E+01	1.7462911800E+00	8.4754588339E+02	1.3366383302E+03	1.0323146407E+03	0.000E+00	0.0
	1000022	2	5	5	0	0	-5.0906133417E+01	-1.7462911800E+00	4.6846095696E+02	9.7458533133E+02	8.5309226693E+02	0.000E+00	0.0
	14	1	6	6	0	0	-1.3729489727E+02	2.4099341315E+02	3.2099692603E+02	5.3440784099E+02	3.2500000000E+02	0.000E+00	0.0
	-14	1	6	6	0	0	8.6388763857E+01	-2.4273970433E+02	1.4746403093E+02	4.4017749033E+02	3.2500000000E+02	0.000E+00	0.0
	25	2	5	5	0	0	5.0906133417E+01	1.7462911800E+00	2.4656828316E+02	2.8117751717E+02	1.2518144409E+02	0.000E+00	0.0
	-5	1	9	9	0	501	5.3629109684E+01	3.0051922563E+01	4.1929641743E+01	7.4530307338E+01	4.1800000000E+00	0.000E+00	0.0
	5	1	9	9	501	0	-2.7229762664E+00	-2.8305631383E+01	2.0463864142E+02	2.0664720983E+02	4.1800000000E+00	0.000E+00	0.0
</event>
<event>
    11  -1  1.0000000E+00  1.0000000E+00  -1.0000000E+00  -1.0000000E+00
	2212	-1	0	0	0	0	0.0000000000E+00	0.0000000000E+00	6.5000000000E+03	6.5000000000E+03	9.3827000000E-01	0.000E+00	0.0
	2212	-1	0	0	0	0	0.0000000000E+00	0.0000000000E+00	-6.5000000000E+03	6.5000000000E+03	9.3827000000E-01	0.000E+00	0.0
	2212	1	0	0	0	0	0.0000000000E+00	0.0000000000E+00	5.7562252033E+03	5.7562252033E+03	9.3827000000E-01	0.000E+00	0.0
	2212	1	0	0	0	0	0.0000000000E+00	0.0000000000E+00	-6.1338932267E+03	6.1338932267E+03	9.3827000000E-01	0.000E+00	0.0
	51	2	1	2	0	0	-8.3404973660E-01	-2.6315588711E+01	5.6362466524E+02	1.1864105246E+03	1.0436493490E+03	0.000E+00	0.0
	1000022	2	5	5	0	0	8.3404973660E-01	2.6315588711E+01	1.1979695525E+02	8.2201225488E+02	8.1280971379E+02	0.000E+00	0.0
	14	1	6	6	0	0	-8.2823696084E+01	-7.0616448437E+01	-1.5636086618E+02	3.7672293253E+02	3.2500000000E+02	0.000E+00	0.0
	-14	1	6	6	0	0	8.3657745820E+01	9.6932037148E+01	2.7615782142E+02	4.4528932235E+02	3.2500000000E+02	0.000E+00	0.0
	25	2	5	5	0	0	-8.3404973660E-01	-2.6315588711E+01	2.5787106810E+02	2.8786931516E+02	1.2521201620E+02	0.000E+00	0.0
	-5	1	9	9	0	501	-6.1671552769E+01	-4.5223172540E+00	1.0638679185E+02	1.2312373311E+02	4.1800000000E+00	0.000E+00	0.0
	5	1	9	9	501	0	6.0837503033E+01	-2.1793271457E+01	1.5148427624E+02	1.6474558205E+02	4.1800000000E+00	0.000E+00	0.0
</event>
<event>
    11  -1  1.0000000E+00  1.0000000E+00  -1.0000000E+00  -1.0000000E+00
	2212	-1	0	0	0	0	0.0000000000E+00	0.0000000000E+00	6.5000000000E+03	6.5000000000E+03	9.3827000000E-01	0.000E+00	0.0
	2212	-1	0	0	0	0	0.0000000000E+00	0.0000000000E+00	-6.5000000000E+03	6.5000000000E+03	9.3827000000E-01	0.000E+00	0.0
	2212	1	0	0	0	0	0.0000000000E+00	0.0000000000E+00	6.2214081638E+03	6.2214081638E+03	9.3827000000E-01	0.000E+00	0.0
	2212	1	0	0	0	0	0.0000000000E+00	0.0000000000E+00	-5.4771379441E+03	5.4771379441E+03	9.3827000000E-01	0.000E+00	0.0
	51	2	1	2	0	0	1.0696541308E+02	-5.1452808691E+00	-6.0628225700E+02	1.2324326845E+03	1.0676348033E+03	0.000E+00	0.0
	1000022	2	5	5	0	0	-1.0696541308E+02	5.1452808691E+00	-7.4854669646E+02	1.1366630657E+03	8.4865345973E+02	0.000E+00	0.0
	14	1	6	6	0	0	-1.0530906060E+02	-9.6813808732E+01	-7.1002952713E+02	7.9387016646E+02	3.2500000000E+02	0.000E+00	0.0
	-14	1	6	6	0	0	-1.6563524861E+00	1.0195908960E+02	-3.8517169333E+01	3.4279289927E+02	3.2500000000E+02	0.000E+00	0.0
	25	2	5	5	0	0	1.0696541308E+02	-5.1452808691E+00	4.2764767597E+00	1.6479082629E+02	1.2517849122E+02	0.000E+00	0.0
	-5	1	9	9	0	501	1.0960964026E+02	-4.5646678422E+01	2.1080332874E+01	1.2066376972E+02	4.1800000000E+00	0.000E+00	0.0
	5	1	9	9	501	0	-2.6442271764E+00	4.0501397553E+01	-1.6803856114E+01	4.4127056568E+01	4.1800000000E+00	0.000E+00	0.0
</event>
<event>
    11  -1  1.0000000E+00  1.0000000E+00  -1.0000000E+00  -1.0000000E+00
	2212	-1	0	0	0	0	0.0000000000E+00	0.0000000000E+00	6.5000000000E+03	6.5000000000E+03	9.3827000000E-01	0.000E+00	0.0
	2212	-1	0	0	0	0	0.0000000000E+00	0.0000000000E+00	-6.5000000000E+03	6.5000000000E+03	9.3827000000E-01	0.000E+00	0.0
	2212	1	0	0	0	0	0.0000000000E+00	0.0000000000E+00	6.0462464828E+03	6.0462464828E+03	9.3827000000E-01	0.000E+00	0.0
	2212	1	0	0	0	0	0.0000000000E+00	0.0000000000E+00	-5.9177312158E+03	5.9177312158E+03	9.3827000000E-01	0.000E+00	0.0
	51	2	1	2	0	0	2.0433615760E+01	-9.9998057265E+01	-1.6096653957E+02	1.0455397678E+03	1.0280204449E+03	0.000E+00	0.0
	1000022	2	5	5	0	0	-2.0433615760E+01	9.9998057265E+01	-7.6183970312E+01	8.6624256493E+02	8.5682847750E+02	0.000E+00	0.0
	14	1	6	6	0	0	5.4545076043E+01	1.9908269813E+02	1.8887061698E+02	4.2884285697E+02	3.2500000000E+02	0.000E+00	0.0
	-14	1	6	6	0	0	-7.4978691803E+01	-9.9084640865E+01	-2.6505458729E+02	4.3739970796E+02	3.2500000000E+02	0.000E+00	0.0
	25	2	5	5	0	0	2.0433615760E+01	-9.9998057265E+01	-5.2331296734E+01	1.6977973647E+02	1.2517767447E+02	0.000E+00	0.0
	-5	1	9	9	0	501	-2.9612088473E+01	-1.8440318115E+01	2.7878151735E+01	4.4850695202E+01	4.1800000000E+00	0.000E+00	0.0
	5	1	9	9	501	0	5.0045704233E+01	-8.1557739150E+01	-8.0209448469E+01	1.2492904126E+02	4.1800000000E+00	0.000E+00	0.0
</event>
<event>
    11  -1  1.0000000E+00  1.0000000E+00  -1.0000000E+00  -1.0000000E+00
	2212	-1	0	0	0	0	0.0000000000E+00	0.0000000000E+00	6.5000000000E+03	6.5000000000E+03	9.3827000000E-01	0.000E+00	0.0
	2212	-1	0	0	0	0	0.0000000000E+00	0.0000000000E+00	-6.5000000000E+03	6.5000000000E+03	9.3827000000E-01	0.000E+00	0.0
	2212	1	0	0	0	0	0.0000000000E+00	0.0000000000E+00	4.9071534447E+03	4.9071534447E+03	9.3827000000E-01	0.000E+00	0.0
	2212	1	0	0	0	0	0.0000000000E+00	0.0000000000E+00	-6.3287013889E+03	6.3287013889E+03	9.3827000000E-01	0.000E+00	0.0
	51	2	1	2	0	0	-5.5817389401E+01	-4.9707605060E+01	1.5855052616E+03	1.9002165593E+03	1.0447055138E+03	0.000E+00	0.0
	1000022	2	5	5	0	0	5.5817389401E+01	4.9707605060E+01	1.0323094016E+03	1.3484991126E+03	8.6440773321E+02	0.000E+00	0.0
	14	1	6	6	0	0	1.4934346412E+02	2.4127113579E+02	7.6000713516E+02	8.7392853068E+02	3.2500000000E+02	0.000E+00	0.0
	-14	1	6	6	0	0	-9.3526074722E+01	-1.9156353073E+02	2.7230226640E+02	4.7457058195E+02	3.2500000000E+02	0.000E+00	0.0
	25	2	5	5	0	0	-5.5817389401E+01	-4.9707605060E+01	3.8923854263E+02	4.1564605381E+02	1.2517416675E+02	0.000E+00	0.0
	-5	1	9	9	0	501	2.8034611437E+01	2.1351362625E+01	8.3667287838E+01	9.0881833050E+01	4.1800000000E+00	0.000E+00	0.0
	5	1	9	9	501	0	-8.3852000837E+01	-7.1058967685E+01	3.0557125479E+02	3.2476422076E+02	4.1800000000E+00	0.000E+00	0.0
</event>
<event>
    11  -1  1.0000000E+00  1.0000000E+00  -1.0000000E+00  -1.0000000E+00
	2212	-1	0	0	0	0	0.0000000000E+00	0.0000000000E+00	6.5000000000E+03	6.5000000000E+03	9.3827000000E-01	0.000E+00	0.0
	2212	-1	0	0	0	0	0.0000000000E+00	0.0000000000E+00	-6.5000000000E+03	6.5000000000E+03	9.3827000000E-01	0.000E+00	0.0
	2212	1	0	0	0	0	0.0000000000E+00	0.0000000000E+00	6.0071866203E+03	6.0071866203E+03	9.3827000000E-01	0.000E+00	0.0
	2212	1	0	0	0	0	0.0000000000E+00	0.0000000000E+00	-5.9435971966E+03	5.9435971966E+03	9.3827000000E-01	0.000E+00	0.0
	51	2	1	2	0	0	8.1408339739E+01	-7.7133246633E+01	-1.5131914141E+02	1.0640889634E+03	1.0472874409E+03	0.000E+00	0.0
	1000022	2	5	5	0	0	-8.1408339739E+01	7.7133246633E+01	3.5049608838E+01	8.5434130601E+02	8.4622321911E+02	0.000E+00	0.0
	14	1	6	6	0	0	-1.3620576724E+02	2.9226869577E+02	4.9512349907E+01	4.6048829991E+02	3.2500000000E+02	0.000E+00	0.0
	-14	1	6	6	0	0	5.4797427500E+01	-2.1513544914E+02	-1.4462741069E+01	3.9385300610E+02	3.2500000000E+02	0.000E+00	0.0
	25	2	5	5	0	0	8.1408339739E+01	-7.7133246633E+01	-9.8639032500E+01	1.9487487704E+02	1.2517868609E+02	0.000E+00	0.0
	-5	1	9	9	0	501	8.0232145204E+01	-6.4476228142E+01	-1.2699366608E+02	1.6352138925E+02	4.1800000000E+00	0.000E+00	0.0
	5	1	9	9	501	0	1.1761945347E+00	-1.2657018491E+01	2.8354633579E+01	3.1353487782E+01	4.1800000000E+00	0.000E+00	0.0
</event>
<event>
    11  -1  1.0000000E+00  1.0000000E+00  -1.0000000E+00  -1.0000000E+00
	2212	-1	0	0	0	0	0.0000000000E+00	0.0000000000E+00	6.5000000000E+03	6.5000000000E+03	9.3827000000E-01	0.000E+00	0.0
	2212	-1	0	0	0	0	0.0000000000E+00	0.0000000000E+00	-6.5000000000E+03	6.5000000000E+03	9.3827000000E-01	0.000E+00	0.0
	2212	1	0	0	0	0	0.0000000000E+00	0.0000000000E+00	5.3043638331E+03	5.3043638331E+03	9.3827000000E-01	0.000E+00	0.0
	2212	1	0	0	0	0	0.0000000000E+00	0.0000000000E+00	-6.2913620154E+03	6.2913620154E+03	9.3827000000E-01	0.000E+00	0.0
	51	2	1	2	0	0	-4.1850029369E+01	-8.2038618750E+01	1.0046865331E+03	1.4197525384E+03	9.9890964591E+02	0.000E+00	0.0
	1000022	2	5	5	0	0	4.1850029369E+01	8.2038618750E+01	8.1966935531E+02	1.1758913677E+03	8.3808167662E+02	0.000E+00	0.0
	14	1	6	6	0	0	2.5895525545E+02	-7.2478614483E+01	3.8164221758E+02	5.6884686527E+02	3.2500000000E+02	0.000E+00	0.0
	-14	1	6	6	0	0	-2.1710522608E+02	1.5451723323E+02	4.3802713772E+02	6.0704450244E+02	3.2500000000E+02	0.000E+00	0.0
	25	2	5	5	0	0	-4.1850029369E+01	-8.2038618750E+01	1.6732882695E+02	2.2838278376E+02	1.2521181919E+02	0.000E+00	0.0
	-5	1	9	9	0	501	8.8945714526E+00	-3.7526234682E+01	-8.7466621861E+00	3.9765665971E+01	4.1800000000E+00	0.000E+00	0.0
	5	1	9	9	501	0	-5.0744600821E+01	-4.4512384068E+01	1.7607548914E+02	1.8861711779E+02	4.1800000000E+00	0.000E+00	0.0
</event>
<event>
    11  -1  1.0000000E+00  1.0000000E+00  -1.0000000E+00  -1.0000000E+00
	2212	-1	0	0	0	0	0.0000000000E+00	0.0000000000E+00	6.5000000000E+03	6.5000000000E+03	9.3827000000E-01	0.000E+00	0.0
	2212	-1	0	0	0	0	0.0000000000E+00	0.0000000000E+00	-6.5000000000E+03	6.5000000000E+03	9.3827000000E-01	0.000E+00	0.0
	2212	1	0	0	0	0	0.0000000000E+00	0.0000000000E+00	6.1891248115E+03	6.1891248115E+03	9.3827000000E-01	0.000E+00	0.0
	2212	1	0	0	0	0	0.0000000000E+00	0.0000000000E+00	-5.6192265987E+03	5.6192265987E+03	9.3827000000E-01	0.000E+00	0.0
	51	2	1	2	0	0	3.4469289748E+01	-1.0033283176E+02	-4.7209131076E+02	1.1529819615E+03	1.0465382882E+03	0.000E+00	0.0
	1000022	2	5	5	0	0	-3.4469289748E+01	1.0033283176E+02	-5.7074581722E+02	1.0275747855E+03	8.4788226943E+02	0.000E+00	0.0
	14	1	6	6	0	0	2.2526875308E+02	1.7382607409E+02	-2.8265569910E+02	5.1621774416E+02	3.2500000000E+02	0.000E+00	0.0
	-14	1	6	6	0	0	-2.5973804283E+02	-7.3493242323E+01	-2.8809011811E+02	5.1135704132E+02	3.2500000000E+02	0.000E+00	0.0
	25	2	5	5	0	0	3.4469289748E+01	-1.0033283176E+02	8.4760442218E-01	1.6407380436E+02	1.2515864245E+02	0.000E+00	0.0
	-5	1	9	9	0	501	1.4341169680E+01	-1.1177547458E+02	3.8938487837E+01	1.1930257374E+02	4.1800000000E+00	0.000E+00	0.0
	5	1	9	9	501	0	2.0128120067E+01	1.1442642819E+01	-3.8090883414E+01	4.4771230622E+01	4.1800000000E+00	0.000E+00	0.0
</event>
<event>
    11  -1  1.0000000E+00  1.0000000E+00  -1.0000000E+00  -1.0000000E+00
	2212	-1	0	0	0	0	0.0000000000E+00	0.0000000000E+00	6.5000000000E+03	6.5000000000E+03	9.3827000000E-01	0.000E+00	0.0
	2212	-1	0	0	0	0	0.0000000000E+00	0.0000000000E+00	-6.5000000000E+03	6.5000000000E+03	9.3827000000E-01	0.000E+00	0.0
	2212	1	0	0	0	0	0.0000000000E+00	0.0000000000E+00	5.9799503903E+03	5.9799503903E+03	9.3827000000E-01	0.000E+00	0.0
	2212	1	0	0	0	0	0.0000000000E+00	0.0000000000E+00	-5.9587555202E+03	5.9587555202E+03	9.3827000000E-01	0.000E+00	0.0
	51	2	1	2	0	0	-1.0097830959E+01	9.9301609363E+01	9.3561143799E+01	1.0698655922E+03	1.0610824294E+03	0.000E+00	0.0
	1000022	2	5	5	0	0	1.0097830959E+01	-9.9301609363E+01	-1.3223093763E+02	8.6645312119E+02	8.5046646879E+02	0.000E+00	0.0
	14	1	6	6	0	0	1.8767537823E+02	-1.8357185248E+02	-2.2633075634E+02	4.7515395808E+02	3.2500000000E+02	0.000E+00	0.0
	-14	1	6	6	0	0	-1.7757754727E+02	8.4270243113E+01	9.4099818705E+01	3.9129916311E+02	3.2500000000E+02	0.000E+00	0.0
	25	2	5	5	0	0	-1.0097830959E+01	9.9301609363E+01	1.1103606751E+02	1.9484096832E+02	1.2518473882E+02	0.000E+00	0.0
	-5	1	9	9	0	501	-5.7334420597E+01	7.5150342378E+01	3.2639068877E+01	1.0008791616E+02	4.1800000000E+00	0.000E+00	0.0
	5	1	9	9	501	0	4.7236589638E+01	2.4151266986E+01	7.8396998636E+01	9.4753052156E+01	4.1800000000E+00	0.000E+00	0.0
</event>
<event>
    11  -1  1.0000000E+00  1.0000000E+00  -1.0000000E+00  -1.0000000E+00
	2212	-1	0	0	0	0	0.0000000000E+00	0.0000000000E+00	6.5000000000E+03	6.5000000000E+03	9.3827000000E-01	0.000E+00	0.0
	2212	-1	0	0	0	0	0.0000000000E+00	0.0000000000E+00	-6.5000000000E+03	6.5000000000E+03	9.3827000000E-01	0.000E+00	0.0
	2212	1	0	0	0	0	0.0000000000E+00	0.0000000000E+00	6.0261283266E+03	6.0261283266E+03	9.3827000000E-01	0.000E+00	0.0
	2212	1	0	0	0	0	0.0000000000E+00	0.0000000000E+00	-5.8064438937E+03	5.8064438937E+03	9.3827000000E-01	0.000E+00	0.0
	51	2	1	2	0	0	-1.3373919007E+02	-1.7727667595E+02	-2.9467792630E+02	1.2044810674E+03	1.1465715725E+03	0.000E+00	0.0
	1000022	2	5	5	0	0	1.3373919007E+02	1.7727667595E+02	-9.8554352012E+01	8.8519947752E+02	8.5120618178E+02	0.000E+00	0.0
	14	1	6	6	0	0	-1.3560918600E+02	-1.0558526198E+02	-8.2708692091E+01	3.7683395100E+02	3.2500000000E+02	0.000E+00	0.0
	-14	1	6	6	0	0	2.6934837608E+02	2.8286193792E+02	-1.5845659921E+01	5.0836552653E+02	3.2500000000E+02	0.000E+00	0.0
	25	2	5	5	0	0	-1.3373919007E+02	-1.7727667595E+02	-1.2113008095E+02	2.8222830220E+02	1.2516839560E+02	0.000E+00	0.0
	-5	1	9	9	0	501	-1.0408238345E+02	-1.7555867570E+02	-5.7813868924E+01	2.1216481093E+02	4.1800000000E+00	0.000E+00	0.0
	5	1	9	9	501	0	-2.9656806626E+01	-1.7180002476E+00	-6.3316212023E+01	7.0063491270E+01	4.1800000000E+00	0.000E+00	0.0
</event>
<event>
    11  -1  1.0000000E+00  1.0000000E+00  -1.0000000E+00  -1.0000000E+00
	2212	-1	0	0	0	0	0.0000000000E+00	0.0000000000E+00	6.5000000000E+03	6.5000000000E+03	9.3827000000E-01	0.000E+00	0.0
	2212	-1	0	0	0	0	0.0000000000E+00	0.0000000000E+00	-6.5000000000E+03	6.5000000000E+03	9.3827000000E-01	0.000E+00	0.0
	2212	1	0	0	0	0	0.0000000000E+00	0.0000000000E+00	5.2589447105E+03	5.2589447105E+03	9.3827000000E-01	0.000E+00	0.0
	2212	1	0	0	0	0	0.0000000000E+00	0.0000000000E+00	-6.2797616439E+03	6.2797616439E+03	9.3827000000E-01	0.000E+00	0.0
	51	2	1	2	0	0	4.9960554546E-01	-5.9616530436E+01	8.5875955421E+02	1.3543759669E+03	1.0456155639E+03	0.000E+00	0.0
	1000022	2	5	5	0	0	-4.9960554546E-01	5.9616530436E+01	1.0110892976E+03	1.3223020507E+03	8.5007456455E+02	0.000E+00	0.0
	14	1	6	6	0	0	1.8480992978E+02	-1.9321924636E+01	8.0534215811E+02	8.8810418226E+02	3.2500000000E+02	0.000E+00	0.0
	-14	1	6	6	0	0	-1.8530953533E+02	7.8938455072E+01	2.0574713953E+02	4.3419786849E+02	3.2500000000E+02	0.000E+00	0.0
	25	2	5	5	0	0	4.9960554546E-01	-5.9616530436E+01	9.7276357212E+00	1.3899159491E+02	1.2517849757E+02	0.000E+00	0.0
	-5	1	9	9	0	501	-1.7479819123E+01	-5.7659344136E+01	-4.8764520957E+01	7.7624705777E+01	4.1800000000E+00	0.000E+00	0.0
	5	1	9	9	501	0	1.7979424669E+01	-1.9571863005E+00	5.8492156678E+01	6.1366889138E+01	4.1800000000E+00	0.000E+00	0.0
</event>
<event>
    11  -1  1.0000000E+00  1.0000000E+00  -1.0000000E+00  -1.0000000E+00
	2212	-1	0	0	0	0	0.0000000000E+00	0.0000000000E+00	6.5000000000E+03	6.5000000000E+03	9.3827000000E-01	0.000E+00	0.0
	2212	-1	0	0	0	0	0.0000000000E+00	0.0000000000E+00	-6.5000000000E+03	6.5000000000E+03	9.3827000000E-01	0.000E+00	0.0
	2212	1	0	0	0	0	0.0000000000E+00	0.0000000000E+00	6.1829071054E+03	6.1829071054E+03	9.3827000000E-01	0.000E+00	0.0
	2212	1	0	0	0	0	0.0000000000E+00	0.0000000000E+00	-5.5642813690E+03	5.5642813690E+03	9.3827000000E-01	0.000E+00	0.0
	51	2	1	2	0	0	1.1714064459E+02	-1.1947528316E+02	-5.8522106517E+02	1.2479258335E+03	1.0894213680E+03	0.000E+00	0.0
	1000022	2	5	5	0	0	-1.1714064459E+02	1.1947528316E+02	-5.3923232526E+02	1.0292638868E+03	8.6059071236E+02	0.000E+00	0.0
	14	1	6	6	0	0	1.1498343471E+02	-8.7701517000E+01	-4.4478588213E+02	5.6953685331E+02	3.2500000000E+02	0.000E+00	0.0
	-14	1	6	6	0	0	-2.3212407929E+02	2.0717680016E+02	-9.4446443135E+01	4.5972703350E+02	3.2500000000E+02	0.000E+00	0.0
	25	2	5	5	0	0	1.1714064459E+02	-1.1947528316E+02	-7.9393411067E+01	2.2354763877E+02	1.2519568355E+02	0.000E+00	0.0
	-5	1	9	9	0	501	-2.2635646050E+01	-4.0784762977E+01	-6.4038414504E+00	4.7267863803E+01	4.1800000000E+00	0.000E+00	0.0
	5	1	9	9	501	0	1.3977629064E+02	-7.8690520181E+01	-7.2989569617E+01	1.7627977497E+02	4.1800000000E+00	0.000E+00	0.0
</event>
<event>
    11  -1  1.0000000E+00  1.0000000E+00  -1.0000000E+00  -1.0000000E+00
	2212	-1	0	0	0	0	0.0000000000E+00	0.0000000000E+00	6.5000000000E+03	6.5000000000E+03	9.3827000000E-01	0.000E+00	0.0
	2212	-1	0	0	0	0	0.0000000000E+00	0.0000000000E+00	-6.5000000000E+03	6.5000000000E+03	9.3827000000E-01	0.000E+00	0.0
	2212	1	0	0	0	0	0.0000000000E+00	0.0000000000E+00	6.0871995356E+03	6.0871995356E+03	9.3827000000E-01	0.000E+00	0.0
	2212	1	0	0	0	0	0.0000000000E+00	0.0000000000E+00	-5.8331879283E+03	5.8331879283E+03	9.3827000000E-01	0.000E+00	0.0
	51	2	1	2	0	0	-1.1340384285E+02	-1.7258206027E+01	-4.8051453152E+02	1.1597818000E+03	1.0493051660E+03	0.000E+00	0.0
	1000022	2	5	5	0	0	1.1340384285E+02	1.7258206027E+01	3.1857714751E+01	7.4712130965E+02	7.3757512166E+02	0.000E+00	0.0
	14	1	6	6	0	0	2.1884274491E+02	-5.0245861740E+01	-1.7240343451E+01	3.9539729774E+02	3.2500000000E+02	0.000E+00	0.0
	-14	1	6	6	0	0	-1.0543890206E+02	6.7504067768E+01	4.9098058203E+01	3.5172401191E+02	3.2500000000E+02	0.000E+00	0.0
	25	2	5	5	0	0	-1.1340384285E+02	-1.7258206027E+01	-2.8586932201E+02	3.3249122644E+02	1.2518334212E+02	0.000E+00	0.0
	-5	1	9	9	0	501	-8.7134205906E+01	-6.0347983037E+01	-2.4648262328E+02	2.6833822850E+02	4.1800000000E+00	0.000E+00	0.0
	5	1	9	9	501	0	-2.6269636941E+01	4.3089777009E+01	-3.9386698735E+01	6.4152997942E+01	4.1800000000E+00	0.000E+00	0.0
</event>
<event>
    11  -1  1.0000000E+00  1.0000000E+00  -1.0000000E+00  -1.0000000E+00
	2212	-1	0	0	0	0	0.0000000000E+00	0.0000000000E+00	6.5000000000E+03	6.5000000000E+03	9.3827000000E-01	0.000E+00	0.0
	2212	-1	0	0	0	0	0.0000000000E+00	0.0000000000E+00	-6.5000000000E+03	6.5000000000E+03	9.3827000000E-01	0.000E+00	0.0
	2212	1	0	0	0	0	0.0000000000E+00	0.0000000000E+00	5.5719658769E+03	5.5719658769E+03	9.3827000000E-01	0.000E+00	0.0
	2212	1	0	0	0	0	0.0000000000E+00	0.0000000000E+00	-6.2050091362E+03	6.2050091362E+03	9.3827000000E-01	0.000E+00	0.0
	51	2	1	2	0	0	-9.7014796343E+01	9.3586710866E+01	6.4141528060E+02	1.2347591894E+03	1.0464446237E+03	0.000E+00	0.0
	1000022	2	5	5	0	0	9.7014796343E+01	-9.3586710866E+01	5.1860791295E+02	1.0063788847E+03	8.5186498284E+02	0.000E+00	0.0
	14	1	6	6	0	0	4.8269214761E+01	-3.2325082655E+02	2.5840263972E+02	5.2841076652E+02	3.2500000000E+02	0.000E+00	0.0
	-14	1	6	6	0	0	4.8745581582E+01	2.2966411568E+02	2.6020527324E+02	4.7796811816E+02	3.2500000000E+02	0.000E+00	0.0
	25	2	5	5	0	0	-9.7014796343E+01	9.3586710866E+01	1.1443534643E+02	2.1664610224E+02	1.2517883984E+02	0.000E+00	0.0
	-5	1	9	9	0	501	-4.5956553473E+01	1.0479788404E+02	3.1915109351E+01	1.1887240181E+02	4.1800000000E+00	0.000E+00	0.0
	5	1	9	9	501	0	-5.1058242870E+01	-1.1211173177E+01	8.2520237076E+01	9.7773700432E+01	4.1800000000E+00	0.000E+00	0.0
</event>
<event>
    11  -1  1.0000000E+00  1.0000000E+00  -1.0000000E+00  -1.0000000E+00
	2212	-1	0	0	0	0	0.0000000000E+00	0.0000000000E+00	6.5000000000E+03	6.5000000000E+03	9.3827000000E-01	0.000E+00	0.0
	2212	-1	0	0	0	0	0.0000000000E+00	0.0000000000E+00	-6.5000000000E+03	6.5000000000E+03	9.3827000000E-01	0.000E+00	0.0
	2212	1	0	0	0	0	0.0000000000E+00	0.0000000000E+00	4.8391341326E+03	4.8391341326E+03	9.3827000000E-01	0.000E+00	0.0
	2212	1	0	0	0	0	0.0000000000E+00	0.0000000000E+00	-6.3305451036E+03	6.3305451036E+03	9.3827000000E-01	0.000E+00	0.0
	51	2	1	2	0	0	1.2649430243E+02	7.5496835590E+01	1.5051371276E+03	1.8474051445E+03	1.0610218727E+03	0.000E+00	0.0
	1000022	2	5	5	0	0	-1.2649430243E+02	-7.5496835590E+01	1.2202634682E+03	1.4973183405E+03	8.5511326746E+02	0.000E+00	0.0
	14	1	6	6	0	0	1.4529790481E+02	-2.1418080684E+02	4.9787161327E+02	6.4844895132E+02	3.2500000000E+02	0.000E+00	0.0
	-14	1	6	6	0	0	-2.7179220724E+02	1.3868397125E+02	7.2239185489E+02	8.4886938914E+02	3.2500000000E+02	0.000E+00	0.0
	25	2	5	5	0	0	1.2649430243E+02	7.5496835590E+01	2.7114750276E+02	3.3300242336E+02	1.2517613582E+02	0.000E+00	0.0
	-5	1	9	9	0	501	1.4871715408E+02	7.8243401216E+01	2.5358466080E+02	3.0423917293E+02	4.1800000000E+00	0.000E+00	0.0
	5	1	9	9	501	0	-2.2222851641E+01	-2.7465656258E+00	1.7562841960E+01	2.8763250434E+01	4.1800000000E+00	0.000E+00	0.0
</event>
<event>
    11  -1  1.0000000E+00  1.0000000E+00  -1.0000000E+00  -1.0000000E+00
	2212	-1	0	0	0	0	0.0000000000E+00	0.0000000000E+00	6.5000000000E+03	6.5000000000E+03	9.3827000000E-01	0.000E+00	0.0
	2212	-1	0	0	0	0	0.0000000000E+00	0.0000000000E+00	-6.5000000000E+03	6.5000000000E+03	9.3827000000E-01	0.000E+00	0.0
	2212	1	0	0	0	0	0.0000000000E+00	0.0000000000E+00	4.8830512576E+03	4.8830512576E+03	9.3827000000E-01	0.000E+00	0.0
	2212	1	0	0	0	0	0.0000000000E+00	0.0000000000E+00	-6.3319264036E+03	6.3319264036E+03	9.3827000000E-01	0.000E+00	0.0
	51	2	1	2	0	0	1.5244496937E+01	-1.2820177113E+02	1.5374879076E+03	1.8621500250E+03	1.0426243624E+03	0.000E+00	0.0
	1000022	2	5	5	0	0	-1.5244496937E+01	1.2820177113E+02	1.1152034092E+03	1.4059806150E+03	8.4642469069E+02	0.000E+00	0.0
	14	1	6	6	0	0	1.8300480382E+01	9.6464170536E+01	1.0032681756E+03	1.0591563983E+03	3.2500000000E+02	0.000E+00	0.0
	-14	1	6	6	0	0	-3.3544977319E+01	3.1737600589E+01	1.1193523362E+02	3.4682421674E+02	3.2500000000E+02	0.000E+00	0.0
	25	2	5	5	0	0	1.5244496937E+01	-1.2820177113E+02	3.3367173675E+02	3.7904172371E+02	1.2517072981E+02	0.000E+00	0.0
	-5	1	9	9	0	501	-1.9705929037E+01	4.6236073244E+00	2.9089087739E+00	2.0871883819E+01	4.1800000000E+00	0.000E+00	0.0
	5	1	9	9	501	0	3.4950425974E+01	-1.3282537845E+02	3.3076282798E+02	3.5816983989E+02	4.1800000000E+00	0.000E+00	0.0
</event>
<event>
    11  -1  1.0000000E+00  1.0000000E+00  -1.0000000E+00  -1.0000000E+00
	2212	-1	0	0	0	0	0.0000000000E+00	0.0000000000E+00	6.5000000000E+03	6.5000000000E+03	9.3827000000E-01	0.000E+00	0.0
	2212	-1	0	0	0	0	0.0000000000E+00	0.0000000000E+00	-6.5000000000E+03	6.5000000000E+03	9.3827000000E-01	0.000E+00	0.0
	2212	1	0	0	0	0	0.0000000000E+00	0.0000000000E+00	6.2722066339E+03	6.2722066339E+03	9.3827000000E-01	0.000E+00	0.0
	2212	1	0	0	0	0	0.0000000000E+00	0.0000000000E+00	-5.2760581306E+03	5.2760581306E+03	9.3827000000E-01	0.000E+00	0.0
	51	2	1	2	0	0	1.7277933739E+01	-8.4143593843E+01	-1.1958377985E+03	1.5976952353E+03	1.0560413596E+03	0.000E+00	0.0
	1000022	2	5	5	0	0	-1.7277933739E+01	8.4143593843E+01	-6.1529387323E+02	1.0417542595E+03	8.3623364875E+02	0.000E+00	0.0
	14	1	6	6	0	0	1.8526102522E+02	2.1883244760E+02	-3.4655864731E+02	5.5492088050E+02	3.2500000000E+02	0.000E+00	0.0
	-14	1	6	6	0	0	-2.0253895896E+02	-1.3468885376E+02	-2.6873522591E+02	4.8683337896E+02	3.2500000000E+02	0.000E+00	0.0
	25	2	5	5	0	0	1.7277933739E+01	-8.4143593843E+01	-3.8085463016E+02	4.0998097603E+02	1.2512186067E+02	0.000E+00	0.0
	-5	1	9	9	0	501	-1.7392129897E+01	-5.6731213300E+01	-3.5209512203E+02	3.5708453355E+02	4.1800000000E+00	0.000E+00	0.0
	5	1	9	9	501	0	3.4670063637E+01	-2.7412380543E+01	-2.8759508133E+01	5.2896442486E+01	4.1800000000E+00	0.000E+00	0.0
</event>
<event>
    11  -1  1.0000000E+00  1.0000000E+00  -1.0000000E+00  -1.0000000E+00
	2212	-1	0	0	0	0	0.0000000000E+00	0.0000000000E+00	6.5000000000E+03	6.5000000000E+03	9.3827000000E-01	0.000E+00	0.0
	2212	-1	0	0	0	0	0.0000000000E+00	0.0000000000E+00	-6.5000000000E+03	6.5000000000E+03	9.3827000000E-01	0.000E+00	0.0
	2212	1	0	0	0	0	0.0000000000E+00	0.0000000000E+00	4.9103292934E+03	4.9103292934E+03	9.3827000000E-01	0.000E+00	0.0
	2212	1	0	0	0	0	0.0000000000E+00	0.0000000000E+00	-6.3232985441E+03	6.3232985441E+03	9.3827000000E-01	0.000E+00	0.0
	51	2	1	2	0	0	-1.3267022163E+02	-7.9091400357E+01	1.4152619727E+03	1.7749399432E+03	1.0599945817E+03	0.000E+00	0.0
	1000022	2	5	5	0	0	1.3267022163E+02	7.9091400357E+01	1.1604230289E+03	1.4449590631E+03	8.4703497621E+02	0.000E+00	0.0
	14	1	6	6	0	0	2.1146264001E+02	-9.4462584815E+01	9.0693231741E+02	9.9085359989E+02	3.2500000000E+02	0.000E+00	0.0
	-14	1	6	6	0	0	-7.8792418387E+01	1.7355398517E+02	2.5349071145E+02	4.5410546325E+02	3.2500000000E+02	0.000E+00	0.0
	25	2	5	5	0	0	-1.3267022163E+02	-7.9091400357E+01	2.5254622184E+02	3.2141309943E+02	1.2517966690E+02	0.000E+00	0.0
	-5	1	9	9	0	501	-2.2482046703E+01	2.7683957492E+01	1.5723362012E+01	3.9198730073E+01	4.1800000000E+00	0.000E+00	0.0
	5	1	9	9	501	0	-1.1018817492E+02	-1.0677535785E+02	2.3682285983E+02	2.8221436936E+02	4.1800000000E+00	0.000E+00	0.0
</event>
<event>
    11  -1  1.0000000E+00  1.0000000E+00  -1.0000000E+00  -1.0000000E+00
	2212	-1	0	0	0	0	0.0000000000E+00	0.0000000000E+00	6.5000000000E+03	6.5000000000E+03	9.3827000000E-01	0.000E+00	0.0
	2212	-1	0	0	0	0	0.0000000000E+00	0.0000000000E+00	-6.5000000000E+03	6.5000000000E+03	9.3827000000E-01	0.000E+00	0.0
	2212	1	0	0	0	0	0.0000000000E+00	0.0000000000E+00	6.2402102567E+03	6.2402102567E+03	9.3827000000E-01	0.000E+00	0.0
	2212	1	0	0	0	0	0.0000000000E+00	0.0000000000E+00	-5.4876461941E+03	5.4876461941E+03	9.3827000000E-01	0.000E+00	0.0
	51	2	1	2	0	0	-3.4450911594E+01	-2.7196744321E+01	-8.8793896066E+02	1.3573351346E+03	1.0256688264E+03	0.000E+00	0.0
	1000022	2	5	5	0	0	3.4450911594E+01	2.7196744321E+01	-4.9752318272E+02	9.8466711606E+02	8.4859500582E+02	0.000E+00	0.0
	14	1	6	6	0	0	-1.8161757834E+02	1.7735954011E+02	-3.5111255641E+02	5.4161460329E+02	3.2500000000E+02	0.000E+00	0.0
	-14	1	6	6	0	0	2.1606848993E+02	-1.5016279579E+02	-1.4641062630E+02	4.4305251277E+02	3.2500000000E+02	0.000E+00	0.0
	25	2	5	5	0	0	-3.4450911594E+01	-2.7196744321E+01	-2.5504087988E+02	2.8747643312E+02	1.2518115265E+02	0.000E+00	0.0
	-5	1	9	9	0	501	3.1872398334E+01	-2.3255724891E+01	-1.9108666410E+02	1.9516214826E+02	4.1800000000E+00	0.000E+00	0.0
	5	1	9	9	501	0	-6.6323309927E+01	-3.9410194300E+00	-6.3954215777E+01	9.2314284862E+01	4.1800000000E+00	0.000E+00	0.0
</event>
<event>
    11  -1  1.0000000E+00  1.0000000E+00  -1.0000000E+00  -1.0000000E+00
	2212	-1	0	0	0	0	0.0000000000E+00	0.0000000000E+00	6.5000000000E+03	6.5000000000E+03	9.3827000000E-01	0.000E+00	0.0
	2212	-1	0	0	0	0	0.0000000000E+00	0.0000000000E+00	-6.5000000000E+03	6.5000000000E+03	9.3827000000E-01	0.000E+00	0.0
	2212	1	0	0	0	0	0.0000000000E+00	0.0000000000E+00	6.0823482331E+03	6.0823482331E+03	9.3827000000E-01	0.000E+00	0.0
	2212	1	0	0	0	0	0.0000000000E+00	0.0000000000E+00	-5.8348675450E+03	5.8348675450E+03	9.3827000000E-01	0.000E+00	0.0
	51	2	1	2	0	0	-8.1777520456E+01	-2.7277300359E+01	-1.2188780387E+02	1.0646423019E+03	1.0541228487E+03	0.000E+00	0.0
	1000022	2	5	5	0	0	8.1777520456E+01	2.7277300359E+01	-3.2945595832E+02	9.1008917319E+02	8.4397242889E+02	0.000E+00	0.0
	14	1	6	6	0	0	9.1462871683E+01	1.5070894195E+01	-4.5028531022E+02	5.6300483955E+02	3.2500000000E+02	0.000E+00	0.0
	-14	1	6	6	0	0	-9.6853512266E+00	1.2206406164E+01	1.2082935190E+02	3.4708433364E+02	3.2500000000E+02	0.000E+00	0.0
	25	2	5	5	0	0	-8.1777520456E+01	-2.7277300359E+01	8.1975270168E+01	1.7269504872E+02	1.2518794257E+02	0.000E+00	0.0
	-5	1	9	9	0	501	-9.0684475976E+01	-6.4680113994E+01	4.8561784652E+01	1.2158499356E+02	4.1800000000E+00	0.000E+00	0.0
	5	1	9	9	501	0	8.9069555195E+00	3.7402813635E+01	3.3413485516E+01	5.1110055163E+01	4.1800000000E+00	0.000E+00	0.0
</event>
<event>
    11  -1  1.0000000E+00  1.0000000E+00  -1.0000000E+00  -1.0000000E+00
	2212	-1	0	0	0	0	0.0000000000E+00	0.0000000000E+00	6.5000000000E+03	6.5000000000E+03	9.3827000000E-01	0.000E+00	0.0
	2212	-1	0	0	0	0	0.0000000000E+00	0.0000000000E+00	-6.5000000000E+03	6.5000000000E+03	9.3827000000E-01	0.000E+00	0.0
	2212	1	0	0	0	0	0.0000000000E+00	0.0000000000E+00	6.3213817465E+03	6.3213817465E+03	9.3827000000E-01	0.000E+00	0.0
	2212	1	0	0	0	0	0.0000000000E+00	0.0000000000E+00	-4.9772892128E+03	4.9772892128E+03	9.3827000000E-01	0.000E+00	0.0
	51	2	1	2	0	0	-3.2055067019E+01	1.0021144573E+01	-1.1328974333E+03	1.5402987732E+03	1.0430415935E+03	0.000E+00	0.0
	1000022	2	5	5	0	0	3.2055067019E+01	-1.0021144573E+01	-1.3245032171E+03	1.5702363919E+03	8.4273697183E+02	0.000E+00	0.0
	14	1	6	6	0	0	-1.6429983452E+02	-4.1591553621E+01	-1.0156307823E+03	1.0797477385E+03	3.2500000000E+02	0.000E+00	0.0
	-14	1	6	6	0	0	1.9635490154E+02	3.1570409049E+01	-3.0887243479E+02	4.9048865334E+02	3.2500000000E+02	0.000E+00	0.0
	25	2	5	5	0	0	-3.2055067019E+01	1.0021144573E+01	-1.9589316633E+01	1.3109264888E+02	1.2519421154E+02	0.000E+00	0.0
	-5	1	9	9	0	501	-6.4578147486E+01	-5.2747952351E+00	2.8503270655E+01	7.0908881217E+01	4.1800000000E+00	0.000E+00	0.0
	5	1	9	9	501	0	3.2523080467E+01	1.5295939808E+01	-4.8092587288E+01	6.0183767660E+01	4.1800000000E+00	0.000E+00	0.0
</event>
<event>
    11  -1  1.0000000E+00  1.0000000E+00  -1.0000000E+00  -1.0000000E+00
	2212	-1	0	0	0	0	0.0000000000E+00	0.0000000000E+00	6.5000000000E+03	6.5000000000E+03	9.3827000000E-01	0.000E+00	0.0
	2212	-1	0	0	0	0	0.0000000000E+00	0.0000000000E+00	-6.5000000000E+03	6.5000000000E+03	9.3827000000E-01	0.000E+00	0.0
	2212	1	0	0	0	0	0.0000000000E+00	0.0000000000E+00	5.0366303102E+03	5.0366303102E+03	9.3827000000E-01	0.000E+00	0.0
	2212	1	0	0	0	0	0.0000000000E+00	0.0000000000E+00	-6.3140680513E+03	6.3140680513E+03	9.3827000000E-01	0.000E+00	0.0
	51	2	1	2	0	0	6.4770971835E+01	4.4220589746E+01	1.4622372673E+03	1.7979536361E+03	1.0432395278E+03	0.000E+00	0.0
	1000022	2	5	5	0	0	-6.4770971835E+01	-4.4220589746E+01	8.7769900043E+02	1.2231413230E+03	8.4827378914E+02	0.000E+00	0.0
	14	1	6	6	0	0	-1.6713890184E+01	-2.9408474098E+02	4.3094402044E+02	6.1490075439E+02	3.2500000000E+02	0.000E+00	0.0
	-14	1	6	6	0	0	-4.8057081652E+01	2.4986415123E+02	4.4675497999E+02	6.0824056861E+02	3.2500000000E+02	0.000E+00	0.0
	25	2	5	5	0	0	6.4770971835E+01	4.4220589746E+01	3.9973874074E+02	4.2616031552E+02	1.2518312315E+02	0.000E+00	0.0
	-5	1	9	9	0	501	7.0344798742E-01	5.6334471921E+01	6.9715796398E+01	8.9732002280E+01	4.1800000000E+00	0.000E+00	0.0
	5	1	9	9	501	0	6.4067523848E+01	-1.2113882175E+01	3.3002294435E+02	3.3642831324E+02	4.1800000000E+00	0.000E+00	0.0
</event>
<event>
    11  -1  1.0000000E+00  1.0000000E+00  -1.0000000E+00  -1.0000000E+00
	2212	-1	0	0	0	0	0.0000000000E+00	0.0000000000E+00	6.5000000000E+03	6.5000000000E+03	9.3827000000E-01	0.000E+00	0.0
	2212	-1	0	0	0	0	0.0000000000E+00	0.0000000000E+00	-6.5000000000E+03	6.5000000000E+03	9.3827000000E-01	0.000E+00	0.0
	2212	1	0	0	0	0	0.0000000000E+00	0.0000000000E+00	5.9674815457E+03	5.9674815457E+03	9.3827000000E-01	0.000E+00	0.0
	2212	1	0	0	0	0	0.0000000000E+00	0.0000000000E+00	-5.9491701976E+03	5.9491701976E+03	9.3827000000E-01	0.000E+00	0.0
	51	2	1	2	0	0	-1.1000561742E+02	-9.3732671875E+01	-8.1101123380E+01	1.0957976919E+03	1.0831934914E+03	0.000E+00	0.0
	1000022	2	5	5	0	0	1.1000561742E+02	9.3732671875E+01	4.7686821231E+01	8.8108166684E+02	8.6783859161E+02	0.000E+00	0.0
	14	1	6	6	0	0	1.2052113045E+02	-2.3053831609E+02	-2.0636733080E+01	4.1680227065E+02	3.2500000000E+02	0.000E+00	0.0
	-14	1	6	6	0	0	-1.0515513035E+01	3.2427098796E+02	6.8323554310E+01	4.6427939619E+02	3.2500000000E+02	0.000E+00	0.0
	25	2	5	5	0	0	-1.1000561742E+02	-9.3732671875E+01	-6.5998169276E+01	2.0226658985E+02	1.2517573799E+02	0.000E+00	0.0
	-5	1	9	9	0	501	-3.6718008302E+01	-1.8287576502E+01	3.6703091011E+01	5.5201783284E+01	4.1800000000E+00	0.000E+00	0.0
	5	1	9	9	501	0	-7.3287609114E+01	-7.5445095373E+01	-1.0270126029E+02	1.4706480657E+02	4.1800000000E+00	0.000E+00	0.0
</event>
<event>
    11  -1  1.0000000E+00  1.0000000E+00  -1.0000000E+00  -1.0000000E+00
	2212	-1	0	0	0	0	0.0000000000E+00	0.0000000000E+00	6.5000000000E+03	6.5000000000E+03	9.3827000000E-01	0.000E+00	0.0
	2212	-1	0	0	0	0	0.0000000000E+00	0.0000000000E+00	-6.5000000000E+03	6.5000000000E+03	9.3827000000E-01	0.000E+00	0.0
	2212	1	0	0	0	0	0.0000000000E+00	0.0000000000E+00	6.2316898659E+03	6.2316898659E+03	9.3827000000E-01	0.000E+00	0.0
	2212	1	0	0	0	0	0.0000000000E+00	0.0000000000E+00	-5.4893918039E+03	5.4893918039E+03	9.3827000000E-01	0.000E+00	0.0
	51	2	1	2	0	0	3.1865085406E+01	1.2029649340E+02	-7.7477124186E+02	1.3039872660E+03	1.0414536392E+03	0.000E+00	0.0
	1000022	2	5	5	0	0	-3.1865085406E+01	-1.2029649340E+02	-5.8849052733E+02	1.0448003099E+03	8.5428330011E+02	0.000E+00	0.0
	14	1	6	6	0	0	1.5351353787E+02	-1.3677544898E+02	-5.4605496224E+02	6.6788842746E+02	3.2500000000E+02	0.000E+00	0.0
	-14	1	6	6	0	0	-1.8537862328E+02	1.6478955574E+01	-4.2435565089E+01	3.7691188245E+02	3.2500000000E+02	0.000E+00	0.0
	25	2	5	5	0	0	3.1865085406E+01	1.2029649340E+02	-1.5380753463E+02	2.3411802033E+02	1.2517132157E+02	0.000E+00	0.0
	-5	1	9	9	0	501	-5.8636386808E+00	-2.1105533732E+01	-7.5211304662E-01	2.2312863705E+01	4.1800000000E+00	0.000E+00	0.0
	5	1	9	9	501	0	3.7728724087E+01	1.4140202713E+02	-1.5305542158E+02	2.1180515663E+02	4.1800000000E+00	0.000E+00	0.0
</event>
<event>
    11  -1  1.0000000E+00  1.0000000E+00  -1.0000000E+00  -1.0000000E+00
	2212	-1	0	0	0	0	0.0000000000E+00	0.0000000000E+00	6.5000000000E+03	6.5000000000E+03	9.3827000000E-01	0.000E+00	0.0
	2212	-1	0	0	0	0	0.0000000000E+00	0.0000000000E+00	-6.5000000000E+03	6.5000000000E+03	9.3827000000E-01	0.000E+00	0.0
	2212	1	0	0	0	0	0.0000000000E+00	0.0000000000E+00	5.6264815580E+03	5.6264815580E+03	9.3827000000E-01	0.000E+00	0.0
	2212	1	0	0	0	0	0.0000000000E+00	0.0000000000E+00	-6.1626322093E+03	6.1626322093E+03	9.3827000000E-01	0.000E+00	0.0
	51	2	1	2	0	0	-2.1279939200E+01	-1.0736714463E+02	4.3553156550E+02	1.1749281815E+03	1.0857200135E+03	0.000E+00	0.0
	1000022	2	5	5	0	0	2.1279939200E+01	1.0736714463E+02	5.4706208178E+02	1.0442412198E+03	8.8271301349E+02	0.000E+00	0.0
	14	1	6	6	0	0	-2.8289567186E+02	1.5512583090E+01	2.1817779461E+02	4.8321542965E+02	3.2500000000E+02	0.000E+00	0.0
	-14	1	6	6	0	0	3.0417561105E+02	9.1854561541E+01	3.2888428717E+02	5.6102579012E+02	3.2500000000E+02	0.000E+00	0.0
	25	2	5	5	0	0	-2.1279939200E+01	-1.0736714463E+02	-1.0911430491E+01	1.6664501293E+02	1.2518371084E+02	0.000E+00	0.0
	-5	1	9	9	0	501	-6.8872460520E+01	-3.2619603351E+01	-1.5240574829E+01	7.7828027484E+01	4.1800000000E+00	0.000E+00	0.0
	5	1	9	9	501	0	4.7592521320E+01	-7.4747541280E+01	4.3291443386E+00	8.8816985446E+01	4.1800000000E+00	0.000E+00	0.0
</event>
<event>
    11  -1  1.0000000E+00  1.0000000E+00  -1.0000000E+00  -1.0000000E+00
	2212	-1	0	0	0	0	0.0000000000E+00	0.0000000000E+00	6.5000000000E+03	6.5000000000E+03	9.3827000000E-01	0.000E+00	0.0
	2212	-1	0	0	0	0	0.0000000000E+00	0.0000000000E+00	-6.5000000000E+03	6.5000000000E+03	9.3827000000E-01	0.000E+00	0.0
	2212	1	0	0	0	0	0.0000000000E+00	0.0000000000E+00	6.3125295254E+03	6.3125295254E+03	9.3827000000E-01	0.000E+00	0.0
	2212	1	0	0	0	0	0.0000000000E+00	0.0000000000E+00	-5.0250513847E+03	5.0250513847E+03	9.3827000000E-01	0.000E+00	0.0
	51	2	1	2	0	0	-1.0357899850E+02	4.6263179064E+01	-1.4173969722E+03	1.7685927555E+03	1.0516830642E+03	0.000E+00	0.0
	1000022	2	5	5	0	0	1.0357899850E+02	-4.6263179064E+01	-9.4183775116E+02	1.2777011716E+03	8.5591649349E+02	0.000E+00	0.0
	14	1	6	6	0	0	5.0490992499E+01	-2.8057010398E+02	-6.4402908382E+02	7.7567221452E+02	3.2500000000E+02	0.000E+00	0.0
	-14	1	6	6	0	0	5.3088006004E+01	2.3430692491E+02	-2.9780866734E+02	5.0202895712E+02	3.2500000000E+02	0.000E+00	0.0
	25	2	5	5	0	0	-1.0357899850E+02	4.6263179064E+01	-3.4564038963E+02	3.8471791827E+02	1.2518668870E+02	0.000E+00	0.0
	-5	1	9	9	0	501	-7.7011456867E+00	-3.8053550239E+01	-5.7242079239E+01	6.9292917144E+01	4.1800000000E+00	0.000E+00	0.0
	5	1	9	9	501	0	-9.5877852816E+01	8.4316729303E+01	-2.8839831039E+02	3.1542500113E+02	4.1800000000E+00	0.000E+00	0.0
</event>
<event>
    11  -1  1.0000000E+00  1.0000000E+00  -1.0000000E+00  -1.0000000E+00
	2212	-1	0	0	0	0	0.0000000000E+00	0.0000000000E+00	6.5000000000E+03	6.5000000000E+03	9.3827000000E-01	0.000E+00	0.0
	2212	-1	0	0	0	0	0.0000000000E+00	0.0000000000E+00	-6.5000000000E+03	6.5000000000E+03	9.3827000000E-01	0.000E+00	0.0
	2212	1	0	0	0	0	0.0000000000E+00	0.0000000000E+00	6.1456476742E+03	6.1456476742E+03	9.3827000000E-01	0.000E+00	0.0
	2212	1	0	0	0	0	0.0000000000E+00	0.0000000000E+00	-5.8194868063E+03	5.8194868063E+03	9.3827000000E-01	0.000E+00	0.0
	51	2	1	2	0	0	-2.4599806510E+01	-5.4019988038E+00	-3.5597329597E+02	1.0449483485E+03	9.8212307352E+02	0.000E+00	0.0
	1000022	2	5	5	0	0	2.4599806510E+01	5.4019988038E+00	-2.5317181439E+02	8.8778893859E+02	8.5055211469E+02	0.000E+00	0.0
	14	1	6	6	0	0	-3.5115247903E+01	2.0665291905E+02	5.8284875572E+01	3.9110182345E+02	3.2500000000E+02	0.000E+00	0.0
	-14	1	6	6	0	0	5.9715054413E+01	-2.0125092025E+02	-3.1145668996E+02	4.9668711514E+02	3.2500000000E+02	0.000E+00	0.0
	25	2	5	5	0	0	-2.4599806510E+01	-5.4019988038E+00	-7.2989053542E+01	1.4707658085E+02	1.2517901831E+02	0.000E+00	0.0
	-5	1	9	9	0	501	-5.3963365796E+01	-9.1514431026E+00	-9.5159563481E+01	1.0985721952E+02	4.1800000000E+00	0.000E+00	0.0
	5	1	9	9	501	0	2.9363559286E+01	3.7494442987E+00	2.2170509939E+01	3.7219361325E+01	4.1800000000E+00	0.000E+00	0.0
</event>
<event>
    11  -1  1.0000000E+00  1.0000000E+00  -1.0000000E+00  -1.0000000E+00
	2212	-1	0	0	0	0	0.0000000000E+00	0.0000000000E+00	6.5000000000E+03	6.5000000000E+03	9.3827000000E-01	0.000E+00	0.0
	2212	-1	0	0	0	0	0.0000000000E+00	0.0000000000E+00	-6.5000000000E+03	6.5000000000E+03	9.3827000000E-01	0.000E+00	0.0
	2212	1	0	0	0	0	0.0000000000E+00	0.0000000000E+00	4.9855252734E+03	4.9855252734E+03	9.3827000000E-01	0.000E+00	0.0
	2212	1	0	0	0	0	0.0000000000E+00	0.0000000000E+00	-6.3184905233E+03	6.3184905233E+03	9.3827000000E-01	0.000E+00	0.0
	51	2	1	2	0	0	1.9282728681E+02	-2.0553982846E+02	1.0505365469E+03	1.5108348951E+03	1.0486019551E+03	0.000E+00	0.0
	1000022	2	5	5	0	0	-1.9282728681E+02	2.0553982846E+02	1.2084942057E+03	1.3634189321E+03	5.6482205663E+02	0.000E+00	0.0
	14	1	6	6	0	0	0.0000000000E+00	0.0000000000E+00	0.0000000000E+00	0.0000000000E+00	0.0000000000E+00	0.000E+00	0.0
	-14	1	6	6	0	0	0.0000000000E+00	0.0000000000E+00	0.0000000000E+00	0.0000000000E+00	0.0000000000E+00	0.000E+00	0.0
	25	2	5	5	0	0	1.9282728681E+02	-2.0553982846E+02	1.2447104421E+02	3.3256527115E+02	1.2521036340E+02	0.000E+00	0.0
	-5	1	9	9	0	501	9.4458098632E+01	-1.0026297289E+02	1.2841413672E+02	1.8836841306E+02	4.1800000000E+00	0.000E+00	0.0
	5	1	9	9	501	0	9.8369188182E+01	-1.0527685558E+02	-3.9430925148E+00	1.4419685809E+02	4.1800000000E+00	0.000E+00	0.0
</event>
<event>
    11  -1  1.0000000E+00  1.0000000E+00  -1.0000000E+00  -1.0000000E+00
	2212	-1	0	0	0	0	0.0000000000E+00	0.0000000000E+00	6.5000000000E+03	6.5000000000E+03	9.3827000000E-01	0.000E+00	0.0
	2212	-1	0	0	0	0	0.0000000000E+00	0.0000000000E+00	-6.5000000000E+03	6.5000000000E+03	9.3827000000E-01	0.000E+00	0.0
	2212	1	0	0	0	0	0.0000000000E+00	0.0000000000E+00	5.1537581295E+03	5.1537581295E+03	9.3827000000E-01	0.000E+00	0.0
	2212	1	0	0	0	0	0.0000000000E+00	0.0000000000E+00	-6.2986558233E+03	6.2986558233E+03	9.3827000000E-01	0.000E+00	0.0
	51	2	1	2	0	0	-5.9115987057E+01	2.9920886254E+01	1.3139525991E+03	1.6778239587E+03	1.0412645411E+03	0.000E+00	0.0
	1000022	2	5	5	0	0	5.9115987057E+01	-2.9920886254E+01	7.8841695332E+02	1.1640000778E+03	8.5375929245E+02	0.000E+00	0.0
	14	1	6	6	0	0	1.1889056066E+02	-2.4886914948E+02	5.6889459346E+02	7.1087050681E+02	3.2500000000E+02	0.000E+00	0.0
	-14	1	6	6	0	0	-5.9774573605E+01	2.1894826322E+02	2.1952235985E+02	4.5312957098E+02	3.2500000000E+02	0.000E+00	0.0
	25	2	5	5	0	0	-5.9115987057E+01	2.9920886254E+01	3.5648074045E+02	3.8358596948E+02	1.2517874545E+02	0.000E+00	0.0
	-5	1	9	9	0	501	-1.2847711935E+00	7.0265854748E+01	1.9547771472E+02	2.0776898309E+02	4.1800000000E+00	0.000E+00	0.0
	5	1	9	9	501	0	-5.7831215864E+01	-4.0344968495E+01	1.6100302573E+02	1.7581698640E+02	4.1800000000E+00	0.000E+00	0.0
</event>
<event>
    11  -1  1.0000000E+00  1.0000000E+00  -1.0000000E+00  -1.0000000E+00
	2212	-1	0	0	0	0	0.0000000000E+00	0.0000000000E+00	6.5000000000E+03	6.5000000000E+03	9.3827000000E-01	0.000E+00	0.0
	2212	-1	0	0	0	0	0.0000000000E+00	0.0000000000E+00	-6.5000000000E+03	6.5000000000E+03	9.3827000000E-01	0.000E+00	0.0
	2212	1	0	0	0	0	0.0000000000E+00	0.0000000000E+00	6.3049580433E+03	6.3049580433E+03	9.3827000000E-01	0.000E+00	0.0
	2212	1	0	0	0	0	0.0000000000E+00	0.0000000000E+00	-5.0036147099E+03	5.0036147099E+03	9.3827000000E-01	0.000E+00	0.0
	51	2	1	2	0	0	-1.9304648016E+01	-2.1683501093E+01	-1.3300792590E+03	1.7138801997E+03	1.0804775147E+03	0.000E+00	0.0
	1000022	2	5	5	0	0	1.9304648016E+01	2.1683501093E+01	-1.1169536999E+03	1.4666626396E+03	9.5008993633E+02	0.000E+00	0.0
	14	1	6	6	0	0	-1.0882529197E+02	-2.3900218365E+02	-2.2658372789E+02	4.7532112693E+02	3.2500000000E+02	0.000E+00	0.0
	-14	1	6	6	0	0	1.2812993998E+02	2.6068568474E+02	-8.9036997203E+02	9.9134151272E+02	3.2500000000E+02	0.000E+00	0.0
	25	2	5	5	0	0	-1.9304648016E+01	-2.1683501093E+01	-1.8438963353E+02	2.2476460718E+02	1.2520682104E+02	0.000E+00	0.0
	-5	1	9	9	0	501	5.3334833718E+01	-8.9355644870E+00	-8.7144493560E+01	1.0264542834E+02	4.1800000000E+00	0.000E+00	0.0
	5	1	9	9	501	0	-7.2639481734E+01	-1.2747936606E+01	-9.7245139968E+01	1.2211917884E+02	4.1800000000E+00	0.000E+00	0.0
</event>
<event>
    11  -1  1.0000000E+00  1.0000000E+00  -1.0000000E+00  -1.0000000E+00
	2212	-1	0	0	0	0	0.0000000000E+00	0.0000000000E+00	6.5000000000E+03	6.5000000000E+03	9.3827000000E-01	0.000E+00	0.0
	2212	-1	0	0	0	0	0.0000000000E+00	0.0000000000E+00	-6.5000000000E+03	6.5000000000E+03	9.3827000000E-01	0.000E+00	0.0
	2212	1	0	0	0	0	0.0000000000E+00	0.0000000000E+00	5.5098195847E+03	5.5098195847E+03	9.3827000000E-01	0.000E+00	0.0
	2212	1	0	0	0	0	0.0000000000E+00	0.0000000000E+00	-6.2194993182E+03	6.2194993182E+03	9.3827000000E-01	0.000E+00	0.0
	51	2	1	2	0	0	-4.1331209056E+01	-1.1419387511E+02	6.1287044229E+02	1.2252933588E+03	1.0540327918E+03	0.000E+00	0.0
	1000022	2	5	5	0	0	4.1331209056E+01	1.1419387511E+02	6.8255507515E+02	1.0941651799E+03	8.4650310117E+02	0.000E+00	0.0
	14	1	6	6	0	0	-2.0383206822E+02	1.6390585134E+02	2.0548006111E+02	4.6503730565E+02	3.2500000000E+02	0.000E+00	0.0
	-14	1	6	6	0	0	2.4516327727E+02	-4.9711976236E+01	4.7707501404E+02	6.2912787422E+02	3.2500000000E+02	0.000E+00	0.0
	25	2	5	5	0	0	-4.1331209056E+01	-1.1419387511E+02	2.7124658349E+01	1.7651591713E+02	1.2519429681E+02	0.000E+00	0.0
	-5	1	9	9	0	501	1.7605841560E+01	2.0427956548E+01	1.9572673350E+00	2.7360013911E+01	4.1800000000E+00	0.000E+00	0.0
	5	1	9	9	501	0	-5.8937050616E+01	-1.3462183166E+02	2.5167391014E+01	1.4915590322E+02	4.1800000000E+00	0.000E+00	0.0
</event>
<event>
    11  -1  1.0000000E+00  1.0000000E+00  -1.0000000E+00  -1.0000000E+00
	2212	-1	0	0	0	0	0.0000000000E+00	0.0000000000E+00	6.5000000000E+03	6.5000000000E+03	9.3827000000E-01	0.000E+00	0.0
	2212	-1	0	0	0	0	0.0000000000E+00	0.0000000000E+00	-6.5000000000E+03	6.5000000000E+03	9.3827000000E-01	0.000E+00	0.0
	2212	1	0	0	0	0	0.0000000000E+00	0.0000000000E+00	6.2729556253E+03	6.2729556253E+03	9.3827000000E-01	0.000E+00	0.0
	2212	1	0	0	0	0	0.0000000000E+00	0.0000000000E+00	-5.3059939014E+03	5.3059939014E+03	9.3827000000E-01	0.000E+00	0.0
	51	2	1	2	0	0	-3.2908714898E+00	-1.0563234523E+02	-8.7962300851E+02	1.3672143692E+03	1.0413306257E+03	0.000E+00	0.0
	1000022	2	5	5	0	0	3.2908714898E+00	1.0563234523E+02	-8.9625555412E+02	1.2426232380E+03	8.5420692522E+02	0.000E+00	0.0
	14	1	6	6	0	0	-1.1428083368E+02	-9.1391113980E+01	-7.2821593832E+02	8.1076254075E+02	3.2500000000E+02	0.000E+00	0.0
	-14	1	6	6	0	0	1.1757170517E+02	1.9702345921E+02	-1.6803961579E+02	4.3186069723E+02	3.2500000000E+02	0.000E+00	0.0
	25	2	5	5	0	0	-3.2908714898E+00	-1.0563234523E+02	-7.0706169870E+01	1.7842723533E+02	1.2517145703E+02	0.000E+00	0.0
	-5	1	9	9	0	501	1.0338636151E+01	1.1410292784E+00	-6.9808286564E+01	7.0702606871E+01	4.1800000000E+00	0.000E+00	0.0
	5	1	9	9	501	0	-1.3629507641E+01	-1.0677337451E+02	-8.9788330538E-01	1.0772462846E+02	4.1800000000E+00	0.000E+00	0.0
</event>
<event>
    11  -1  1.0000000E+00  1.0000000E+00  -1.0000000E+00  -1.0000000E+00
	2212	-1	0	0	0	0	0.0000000000E+00	0.0000000000E+00	6.5000000000E+03	6.5000000000E+03	9.3827000000E-01	0.000E+00	0.0
	2212	-1	0	0	0	0	0.0000000000E+00	0.0000000000E+00	-6.5000000000E+03	6.5000000000E+03	9.3827000000E-01	0.000E+00	0.0
	2212	1	0	0	0	0	0.0000000000E+00	0.0000000000E+00	5.4118350259E+03	5.4118350259E+03	9.3827000000E-01	0.000E+00	0.0
	2212	1	0	0	0	0	0.0000000000E+00	0.0000000000E+00	-6.2466874674E+03	6.2466874674E+03	9.3827000000E-01	0.000E+00	0.0
	51	2	1	2	0	0	-1.0859342360E+02	-6.9642196558E+00	9.3385075540E+02	1.4094330660E+03	1.0500396669E+03	0.000E+00	0.0
	1000022	2	5	5	0	0	1.0859342360E+02	6.9642196558E+00	5.9839160917E+02	1.0526411461E+03	8.5915064597E+02	0.000E+00	0.0
	14	1	6	6	0	0	1.3890645624E+01	2.4644001625E+02	4.6128801806E+02	6.1590361848E+02	3.2500000000E+02	0.000E+00	0.0
	-14	1	6	6	0	0	9.4702777973E+01	-2.3947579660E+02	1.3710359111E+02	4.3673752759E+02	3.2500000000E+02	0.000E+00	0.0
	25	2	5	5	0	0	-1.0859342360E+02	-6.9642196558E+00	2.3646083228E+02	2.8883636068E+02	1.2518660489E+02	0.000E+00	0.0
	-5	1	9	9	0	501	-1.2759265744E+02	-2.1493189253E+01	2.2963886283E+02	2.6361586284E+02	4.1800000000E+00	0.000E+00	0.0
	5	1	9	9	501	0	1.8999233842E+01	1.4528969597E+01	6.8219694471E+00	2.5220497840E+01	4.1800000000E+00	0.000E+00	0.0
</event>
<event>
    11  -1  1.0000000E+00  1.0000000E+00  -1.0000000E+00  -1.0000000E+00
	2212	-1	0	0	0	0	0.0000000000E+00	0.0000000000E+00	6.5000000000E+03	6.5000000000E+03	9.3827000000E-01	0.000E+00	0.0
	2212	-1	0	0	0	0	0.0000000000E+00	0.0000000000E+00	-6.5000000000E+03	6.5000000000E+03	9.3827000000E-01	0.000E+00	0.0
	2212	1	0	0	0	0	0.0000000000E+00	0.0000000000E+00	6.2681820549E+03	6.2681820549E+03	9.3827000000E-01	0.000E+00	0.0
	2212	1	0	0	0	0	0.0000000000E+00	0.0000000000E+00	-5.2248097169E+03	5.2248097169E+03	9.3827000000E-01	0.000E+00	0.0
	51	2	1	2	0	0	5.0226888368E+01	-1.7655377167E+02	-1.0364597212E+03	1.5134036780E+03	1.0874042322E+03	0.000E+00	0.0
	1000022	2	5	5	0	0	-5.0226888368E+01	1.7655377167E+02	-8.5143955784E+02	1.2134078772E+03	8.4481677381E+02	0.000E+00	0.0
	14	1	6	6	0	0	-3.9577639155E+01	3.2246833630E+02	-2.7457601875E+02	5.3532159261E+02	3.2500000000E+02	0.000E+00	0.0
	-14	1	6	6	0	0	-1.0649249213E+01	-1.4591456464E+02	-5.7686353909E+02	6.7808628464E+02	3.2500000000E+02	0.000E+00	0.0
	25	2	5	5	0	0	5.0226888368E+01	-1.7655377167E+02	-1.9193278009E+02	2.9360035095E+02	1.2517587386E+02	0.000E+00	0.0
	-5	1	9	9	0	501	-2.0193612571E+01	-1.2059106395E+02	-1.5194000026E+02	1.9507235266E+02	4.1800000000E+00	0.000E+00	0.0
	5	1	9	9	501	0	7.0420500939E+01	-5.5962707717E+01	-3.9992779834E+01	9.8527998287E+01	4.1800000000E+00	0.000E+00	0.0
</event>
<event>
    11  -1  1.0000000E+00  1.0000000E+00  -1.0000000E+00  -1.0000000E+00
	2212	-1	0	0	0	0	0.0000000000E+00	0.0000000000E+00	6.5000000000E+03	6.5000000000E+03	9.3827000000E-01	0.000E+00	0.0
	2212	-1	0	0	0	0	0.0000000000E+00	0.0000000000E+00	-6.5000000000E+03	6.5000000000E+03	9.3827000000E-01	0.000E+00	0.0
	2212	1	0	0	0	0	0.0000000000E+00	0.0000000000E+00	5.0695865432E+03	5.0695865432E+03	9.3827000000E-01	0.000E+00	0.0
	2212	1	0	0	0	0	0.0000000000E+00	0.0000000000E+00	-6.3063308171E+03	6.3063308171E+03	9.3827000000E-01	0.000E+00	0.0
	51	2	1	2	0	0	1.6933772769E+01	1.1190502550E+02	1.3924156076E+03	1.7492108888E+03	1.0526670991E+03	0.000E+00	0.0
	1000022	2	5	5	0	0	-1.6933772769E+01	-1.1190502550E+02	8.6652920308E+02	1.2172172796E+03	8.4731078036E+02	0.000E+00	0.0
	14	1	6	6	0	0	2.0503626900E+02	-1.9343177843E+02	5.8647599545E+02	7.2734779697E+02	3.2500000000E+02	0.000E+00	0.0
	-14	1	6	6	0	0	-2.2197004177E+02	8.1526752931E+01	2.8005320763E+02	4.8986948260E+02	3.2500000000E+02	0.000E+00	0.0
	25	2	5	5	0	0	1.6933772769E+01	1.1190502550E+02	3.7021507084E+02	4.0686536017E+02	1.2518280727E+02	0.000E+00	0.0
	-5	1	9	9	0	501	6.7223625663E+01	8.9059738429E+01	2.7340676192E+02	2.9532927846E+02	4.1800000000E+00	0.000E+00	0.0
	5	1	9	9	501	0	-5.0289852894E+01	2.2845287069E+01	9.6808308924E+01	1.1153608170E+02	4.1800000000E+00	0.000E+00	0.0
</event>
<event>
    11  -1  1.0000000E+00  1.0000000E+00  -1.0000000E+00  -1.0000000E+00
	2212	-1	0	0	0	0	0.0000000000E+00	0.0000000000E+00	6.5000000000E+03	6.5000000000E+03	9.3827000000E-01	0.000E+00	0.0
	2212	-1	0	0	0	0	0.0000000000E+00	0.0000000000E+00	-6.5000000000E+03	6.5000000000E+03	9.3827000000E-01	0.000E+00	0.0
	2212	1	0	0	0	0	0.0000000000E+00	0.0000000000E+00	5.6361178561E+03	5.6361178561E+03	9.3827000000E-01	0.000E+00	0.0
	2212	1	0	0	0	0	0.0000000000E+00	0.0000000000E+00	-6.1876500911E+03	6.1876500911E+03	9.3827000000E-01	0.000E+00	0.0
	51	2	1	2	0	0	-4.9882741251E+01	6.5884405067E+01	5.7112690420E+02	1.1884229125E+03	1.0389100229E+03	0.000E+00	0.0
	1000022	2	5	5	0	0	4.9882741251E+01	-6.5884405067E+01	4.5367624479E+02	9.9713621726E+02	8.8409810428E+02	0.000E+00	0.0
	14	1	6	6	0	0	-1.3969753976E+02	1.6824589973E+02	4.4980629925E+01	3.9429727676E+02	3.2500000000E+02	0.000E+00	0.0
	-14	1	6	6	0	0	1.8958028101E+02	-2.3413030480E+02	4.0869561486E+02	6.0283894050E+02	3.2500000000E+02	0.000E+00	0.0
	25	2	5	5	0	0	-4.9882741251E+01	6.5884405067E+01	9.7855990207E+01	1.7909583546E+02	1.2518179083E+02	0.000E+00	0.0
	-5	1	9	9	0	501	-8.0595600370E+01	5.8690242934E+01	1.0667874621E+02	1.4607540076E+02	4.1800000000E+00	0.000E+00	0.0
	5	1	9	9	501	0	3.0712859120E+01	7.1941621335E+00	-8.8227560052E+00	3.3020434698E+01	4.1800000000E+00	0.000E+00	0.0
</event>
<event>
    11  -1  1.0000000E+00  1.0000000E+00  -1.0000000E+00  -1.0000000E+00
	2212	-1	0	0	0	0	0.0000000000E+00	0.0000000000E+00	6.5000000000E+03	6.5000000000E+03	9.3827000000E-01	0.000E+00	0.0
	2212	-1	0	0	0	0	0.0000000000E+00	0.0000000000E+00	-6.5000000000E+03	6.5000000000E+03	9.3827000000E-01	0.000E+00	0.0
	2212	1	0	0	0	0	0.0000000000E+00	0.0000000000E+00	6.2450194255E+03	6.2450194255E+03	9.3827000000E-01	0.000E+00	0.0
	2212	1	0	0	0	0	0.0000000000E+00	0.0000000000E+00	-5.4351998201E+03	5.4351998201E+03	9.3827000000E-01	0.000E+00	0.0
	51	2	1	2	0	0	8.0751835943E+01	7.6490237602E+01	-7.2926697154E+02	1.2767988791E+03	1.0421196891E+03	0.000E+00	0.0
	1000022	2	5	5	0	0	-8.0751835943E+01	-7.6490237602E+01	-7.5608353789E+02	1.1439093907E+03	8.5117258089E+02	0.000E+00	0.0
	14	1	6	6	0	0	-2.2803338106E+02	1.6187103093E+02	-3.9839630263E+02	5.8527435232E+02	3.2500000000E+02	0.000E+00	0.0
	-14	1	6	6	0	0	1.4728154511E+02	-2.3836126854E+02	-3.5768723527E+02	5.5863503841E+02	3.2500000000E+02	0.000E+00	0.0
	25	2	5	5	0	0	8.0751835943E+01	7.6490237602E+01	-5.3736067540E+01	1.7587136371E+02	1.2518608614E+02	0.000E+00	0.0
	-5	1	9	9	0	501	7.5829318763E+00	8.3511607499E+01	1.2694358696E+00	8.3968882988E+01	4.1800000000E+00	0.000E+00	0.0
	5	1	9	9	501	0	7.3168904067E+01	-7.0213698964E+00	-5.5005503410E+01	9.1902480723E+01	4.1800000000E+00	0.000E+00	0.0
</event>
<event>
    11  -1  1.0000000E+00  1.0000000E+00  -1.0000000E+00  -1.0000000E+00
	2212	-1	0	0	0	0	0.0000000000E+00	0.0000000000E+00	6.5000000000E+03	6.5000000000E+03	9.3827000000E-01	0.000E+00	0.0
	2212	-1	0	0	0	0	0.0000000000E+00	0.0000000000E+00	-6.5000000000E+03	6.5000000000E+03	9.3827000000E-01	0.000E+00	0.0
	2212	1	0	0	0	0	0.0000000000E+00	0.0000000000E+00	6.3325931336E+03	6.3325931336E+03	9.3827000000E-01	0.000E+00	0.0
	2212	1	0	0	0	0	0.0000000000E+00	0.0000000000E+00	-4.8500697747E+03	4.8500697747E+03	9.3827000000E-01	0.000E+00	0.0
	51	2	1	2	0	0	-7.8935396606E+01	-8.8068223321E+01	-1.4830861440E+03	1.8216393481E+03	1.0511130270E+03	0.000E+00	0.0
	1000022	2	5	5	0	0	7.8935396606E+01	8.8068223321E+01	-1.2483348292E+03	1.5266469491E+03	8.7081815115E+02	0.000E+00	0.0
	14	1	6	6	0	0	-2.2052459508E+02	1.5367491514E+02	-4.9017529172E+02	6.4664046671E+02	3.2500000000E+02	0.000E+00	0.0
	-14	1	6	6	0	0	2.9945999169E+02	-6.5606691821E+01	-7.5815953752E+02	8.8000648234E+02	3.2500000000E+02	0.000E+00	0.0
	25	2	5	5	0	0	-7.8935396606E+01	-8.8068223321E+01	-2.3418852966E+02	2.9069014272E+02	1.2517860383E+02	0.000E+00	0.0
	-5	1	9	9	0	501	-3.8741967828E+01	3.3286615782E+00	-1.6393346830E+02	1.6853389715E+02	4.1800000000E+00	0.000E+00	0.0
	5	1	9	9	501	0	-4.0193428777E+01	-9.1396884899E+01	-7.0255061354E+01	1.2215624557E+02	4.1800000000E+00	0.000E+00	0.0
</event>
<event>
    11  -1  1.0000000E+00  1.0000000E+00  -1.0000000E+00  -1.0000000E+00
	2212	-1	0	0	0	0	0.0000000000E+00	0.0000000000E+00	6.5000000000E+03	6.5000000000E+03	9.3827000000E-01	0.000E+00	0.0
	2212	-1	0	0	0	0	0.0000000000E+00	0.0000000000E+00	-6.5000000000E+03	6.5000000000E+03	9.3827000000E-01	0.000E+00	0.0
	2212	1	0	0	0	0	0.0000000000E+00	0.0000000000E+00	5.2464925460E+03	5.2464925460E+03	9.3827000000E-01	0.000E+00	0.0
	2212	1	0	0	0	0	0.0000000000E+00	0.0000000000E+00	-6.2772998705E+03	6.2772998705E+03	9.3827000000E-01	0.000E+00	0.0
	51	2	1	2	0	0	-1.0590610526E+02	7.4705563360E+01	1.1420143445E+03	1.5612875702E+03	1.0567048261E+03	0.000E+00	0.0
	1000022	2	5	5	0	0	1.0590610526E+02	-7.4705563360E+01	7.4030904322E+02	1.1343665968E+03	8.4966644763E+02	0.000E+00	0.0
	14	1	6	6	0	0	-1.1384580088E+01	5.9010089856E+01	2.8281481331E+01	3.3171771366E+02	3.2500000000E+02	0.000E+00	0.0
	-14	1	6	6	0	0	1.1729068535E+02	-1.3371565322E+02	7.1202756189E+02	8.0264888318E+02	3.2500000000E+02	0.000E+00	0.0
	25	2	5	5	0	0	-1.0590610526E+02	7.4705563360E+01	2.9049828124E+02	3.4184098668E+02	1.2517581414E+02	0.000E+00	0.0
	-5	1	9	9	0	501	-3.8855318227E+01	6.4401023181E+01	4.6438848183E+01	8.8494443678E+01	4.1800000000E+00	0.000E+00	0.0
	5	1	9	9	501	0	-6.7050787035E+01	1.0304540179E+01	2.4405943305E+02	2.5334654300E+02	4.1800000000E+00	0.000E+00	0.0
</event>
<event>
    11  -1  1.0000000E+00  1.0000000E+00  -1.0000000E+00  -1.0000000E+00
	2212	-1	0	0	0	0	0.0000000000E+00	0.0000000000E+00	6.5000000000E+03	6.5000000000E+03	9.3827000000E-01	0.000E+00	0.0
	2212	-1	0	0	0	0	0.0000000000E+00	0.0000000000E+00	-6.5000000000E+03	6.5000000000E+03	9.3827000000E-01	0.000E+00	0.0
	2212	1	0	0	0	0	0.0000000000E+00	0.0000000000E+00	5.1853594994E+03	5.1853594994E+03	9.3827000000E-01	0.000E+00	0.0
	2212	1	0	0	0	0	0.0000000000E+00	0.0000000000E+00	-6.2881035257E+03	6.2881035257E+03	9.3827000000E-01	0.000E+00	0.0
	51	2	1	2	0	0	-4.9699765979E+01	-9.2969463658E+01	9.7058464041E+02	1.4378521065E+03	1.0555902368E+03	0.000E+00	0.0
	1000022	2	5	5	0	0	4.9699765979E+01	9.2969463658E+01	1.0456184773E+03	1.3531932627E+03	8.5246737066E+02	0.000E+00	0.0
	14	1	6	6	0	0	-9.0516189952E+01	2.9017292468E+02	6.4319844373E+02	7.8212706440E+02	3.2500000000E+02	0.000E+00	0.0
	-14	1	6	6	0	0	1.4021595593E+02	-1.9720346102E+02	4.0242003361E+02	5.7106619825E+02	3.2500000000E+02	0.000E+00	0.0
	25	2	5	5	0	0	-4.9699765979E+01	-9.2969463658E+01	5.7125549012E+01	1.7334371220E+02	1.2518516804E+02	0.000E+00	0.0
	-5	1	9	9	0	501	9.1754201605E+00	-8.5925602673E+01	7.1444090954E+01	1.1220128369E+02	4.1800000000E+00	0.000E+00	0.0
	5	1	9	9	501	0	-5.8875186140E+01	-7.0438609850E+00	-1.4318541942E+01	6.1142428508E+01	4.1800000000E+00	0.000E+00	0.0
</event>
<event>
    11  -1  1.0000000E+00  1.0000000E+00  -1.0000000E+00  -1.0000000E+00
	2212	-1	0	0	0	0	0.0000000000E+00	0.0000000000E+00	6.5000000000E+03	6.5000000000E+03	9.3827000000E-01	0.000E+00	0.0
	2212	-1	0	0	0	0	0.0000000000E+00	0.0000000000E+00	-6.5000000000E+03	6.5000000000E+03	9.3827000000E-01	0.000E+00	0.0
	2212	1	0	0	0	0	0.0000000000E+00	0.0000000000E+00	5.9248343476E+03	5.9248343476E+03	9.3827000000E-01	0.000E+00	0.0
	2212	1	0	0	0	0	0.0000000000E+00	0.0000000000E+00	-6.0230385105E+03	6.0230385105E+03	9.3827000000E-01	0.000E+00	0.0
	51	2	1	2	0	0	5.5038928135E+01	6.4027637402E+01	2.1432203297E+02	1.0725624554E+03	1.0475339923E+03	0.000E+00	0.0
	1000022	2	5	5	0	0	-5.5038928135E+01	-6.4027637402E+01	-3.4785516951E+01	8.5093280053E+02	8.4601878045E+02	0.000E+00	0.0
	14	1	6	6	0	0	-1.1727278985E+02	-4.3751126575E+01	-2.7315129026E+02	4.4261009443E+02	3.2500000000E+02	0.000E+00	0.0
	-14	1	6	6	0	0	6.2233861712E+01	-2.0276510827E+01	2.3836577331E+02	4.0832270611E+02	3.2500000000E+02	0.000E+00	0.0
	25	2	5	5	0	0	5.5038928135E+01	6.4027637402E+01	1.3298967985E+02	2.0119434130E+02	1.2515624659E+02	0.000E+00	0.0
	-5	1	9	9	0	501	2.0764940207E+01	8.8655257010E+01	4.1097095651E+01	9.9986904183E+01	4.1800000000E+00	0.000E+00	0.0
	5	1	9	9	501	0	3.4273987928E+01	-2.4627619608E+01	9.1892584203E+01	1.0120743712E+02	4.1800000000E+00	0.000E+00	0.0
</event>
<event>
    11  -1  1.0000000E+00  1.0000000E+00  -1.0000000E+00  -1.0000000E+00
	2212	-1	0	0	0	0	0.0000000000E+00	0.0000000000E+00	6.5000000000E+03	6.5000000000E+03	9.3827000000E-01	0.000E+00	0.0
	2212	-1	0	0	0	0	0.0000000000E+00	0.0000000000E+00	-6.5000000000E+03	6.5000000000E+03	9.3827000000E-01	0.000E+00	0.0
	2212	1	0	0	0	0	0.0000000000E+00	0.0000000000E+00	6.2826909600E+03	6.2826909600E+03	9.3827000000E-01	0.000E+00	0.0
	2212	1	0	0	0	0	0.0000000000E+00	0.0000000000E+00	-5.2221485274E+03	5.2221485274E+03	9.3827000000E-01	0.000E+00	0.0
	51	2	1	2	0	0	2.9327367856E+01	5.2163590811E+01	-1.2351441627E+03	1.6247821221E+03	1.0539234825E+03	0.000E+00	0.0
	1000022	2	5	5	0	0	-2.9327367856E+01	-5.2163590811E+01	-7.1136727109E+02	1.1194239969E+03	8.6225608479E+02	0.000E+00	0.0
	14	1	6	6	0	0	-1.3564081912E+02	1.1543091542E+02	-6.2861245570E+02	7.2972689927E+02	3.2500000000E+02	0.000E+00	0.0
	-14	1	6	6	0	0	1.0631345127E+02	-1.6759450623E+02	-8.2754815389E+01	3.8969709764E+02	3.2500000000E+02	0.000E+00	0.0
	25	2	5	5	0	0	2.9327367856E+01	5.2163590811E+01	-3.4917516150E+02	3.7573651562E+02	1.2519385389E+02	0.000E+00	0.0
	-5	1	9	9	0	501	1.7850382030E+01	4.0132230111E+01	-2.4225115119E+01	5.0334487529E+01	4.1800000000E+00	0.000E+00	0.0
	5	1	9	9	501	0	1.1476985826E+01	1.2031360700E+01	-3.2495004638E+02	3.2540202809E+02	4.1800000000E+00	0.000E+00	0.0
</event>
<event>
    11  -1  1.0000000E+00  1.0000000E+00  -1.0000000E+00  -1.0000000E+00
	2212	-1	0	0	0	0	0.0000000000E+00	0.0000000000E+00	6.5000000000E+03	6.5000000000E+03	9.3827000000E-01	0.000E+00	0.0
	2212	-1	0	0	0	0	0.0000000000E+00	0.0000000000E+00	-6.5000000000E+03	6.5000000000E+03	9.3827000000E-01	0.000E+00	0.0
	2212	1	0	0	0	0	0.0000000000E+00	0.0000000000E+00	5.2447865332E+03	5.2447865332E+03	9.3827000000E-01	0.000E+00	0.0
	2212	1	0	0	0	0	0.0000000000E+00	0.0000000000E+00	-6.2650872014E+03	6.2650872014E+03	9.3827000000E-01	0.000E+00	0.0
	51	2	1	2	0	0	1.4054707155E+02	7.1683865850E+01	9.2842042025E+02	1.4374697792E+03	1.0860307700E+03	0.000E+00	0.0
	1000022	2	5	5	0	0	-1.4054707155E+02	-7.1683865850E+01	9.2297119126E+02	1.2664461878E+03	8.5271218522E+02	0.000E+00	0.0
	14	1	6	6	0	0	-1.7479012863E+02	2.1091053284E+02	3.6141837950E+02	5.5792749258E+02	3.2500000000E+02	0.000E+00	0.0
	-14	1	6	6	0	0	3.4243057082E+01	-2.8259439869E+02	5.6155281175E+02	7.0851869525E+02	3.2500000000E+02	0.000E+00	0.0
	25	2	5	5	0	0	1.4054707155E+02	7.1683865850E+01	9.7329476941E+01	2.2368007760E+02	1.2517065986E+02	0.000E+00	0.0
	-5	1	9	9	0	501	4.7864623716E+00	3.5633636040E+01	-1.9335250904E+01	4.1036454122E+01	4.1800000000E+00	0.000E+00	0.0
	5	1	9	9	501	0	1.3576060918E+02	3.6050229810E+01	1.1666472784E+02	1.8264362348E+02	4.1800000000E+00	0.000E+00	0.0
</event>
<event>
    11  -1  1.0000000E+00  1.0000000E+00  -1.0000000E+00  -1.0000000E+00
	2212	-1	0	0	0	0	0.0000000000E+00	0.0000000000E+00	6.5000000000E+03	6.5000000000E+03	9.3827000000E-01	0.000E+00	0.0
	2212	-1	0	0	0	0	0.0000000000E+00	0.0000000000E+00	-6.5000000000E+03	6.5000000000E+03	9.3827000000E-01	0.000E+00	0.0
	2212	1	0	0	0	0	0.0000000000E+00	0.0000000000E+00	6.1630678882E+03	6.1630678882E+03	9.3827000000E-01	0.000E+00	0.0
	2212	1	0	0	0	0	0.0000000000E+00	0.0000000000E+00	-5.7096867020E+03	5.7096867020E+03	9.3827000000E-01	0.000E+00	0.0
	51	2	1	2	0	0	-1.0282717374E+01	-1.2139360087E+02	-4.2976523246E+02	1.1245745905E+03	1.0320502478E+03	0.000E+00	0.0
	1000022	2	5	5	0	0	1.0282717374E+01	1.2139360087E+02	-4.0276481962E+02	9.4535179475E+02	8.4653905717E+02	0.000E+00	0.0
	14	1	6	6	0	0	-9.3494602106E+01	-1.4745401110E+02	-2.5135773584E+01	3.6978471186E+02	3.2500000000E+02	0.000E+00	0.0
	-14	1	6	6	0	0	1.0377731948E+02	2.6884761197E+02	-3.7762904604E+02	5.7556708289E+02	3.2500000000E+02	0.000E+00	0.0
	25	2	5	5	0	0	-1.0282717374E+01	-1.2139360087E+02	-5.0616366494E+01	1.8189361503E+02	1.2522431882E+02	0.000E+00	0.0
	-5	1	9	9	0	501	-2.3348358797E+01	2.0689174680E+01	-3.9827795264E+00	3.1725742547E+01	4.1800000000E+00	0.000E+00	0.0
	5	1	9	9	501	0	1.3065641423E+01	-1.4208277555E+02	-4.6633586967E+01	1.5016787249E+02	4.1800000000E+00	0.000E+00	0.0
</event>
<event>
    11  -1  1.0000000E+00  1.0000000E+00  -1.0000000E+00  -1.0000000E+00
	2212	-1	0	0	0	0	0.0000000000E+00	0.0000000000E+00	6.5000000000E+03	6.5000000000E+03	9.3827000000E-01	0.000E+00	0.0
	2212	-1	0	0	0	0	0.0000000000E+00	0.0000000000E+00	-6.5000000000E+03	6.5000000000E+03	9.3827000000E-01	0.000E+00	0.0
	2212	1	0	0	0	0	0.0000000000E+00	0.0000000000E+00	6.2321225360E+03	6.2321225360E+03	9.3827000000E-01	0.000E+00	0.0
	2212	1	0	0	0	0	0.0000000000E+00	0.0000000000E+00	-5.4658992904E+03	5.4658992904E+03	9.3827000000E-01	0.000E+00	0.0
	51	2	1	2	0	0	-7.9006824898E+01	7.7984210153E+01	-6.7450702947E+02	1.2551224844E+03	1.0526391132E+03	0.000E+00	0.0
	1000022	2	5	5	0	0	7.9006824898E+01	-7.7984210153E+01	-7.2956716946E+02	1.1307017148E+03	8.5667642525E+02	0.000E+00	0.0
	14	1	6	6	0	0	1.0675234392E+02	-2.0481439260E+02	-6.6419316334E+02	7.7467577513E+02	3.2500000000E+02	0.000E+00	0.0
	-14	1	6	6	0	0	-2.7745519022E+01	1.2683018245E+02	-6.5374006113E+01	3.5602593962E+02	3.2500000000E+02	0.000E+00	0.0
	25	2	5	5	0	0	-7.9006824898E+01	7.7984210153E+01	-3.6656076077E+01	1.7127645885E+02	1.2517324806E+02	0.000E+00	0.0
	-5	1	9	9	0	501	-2.1615902740E+01	1.0131984399E+02	-3.4031439702E+01	1.0912639152E+02	4.1800000000E+00	0.000E+00	0.0
	5	1	9	9	501	0	-5.7390922158E+01	-2.3335633842E+01	-2.6246363748E+00	6.2150067329E+01	4.1800000000E+00	0.000E+00	0.0
</event>
<event>
    11  -1  1.0000000E+00  1.0000000E+00  -1.0000000E+00  -1.0000000E+00
	2212	-1	0	0	0	0	0.0000000000E+00	0.0000000000E+00	6.5000000000E+03	6.5000000000E+03	9.3827000000E-01	0.000E+00	0.0
	2212	-1	0	0	0	0	0.0000000000E+00	0.0000000000E+00	-6.5000000000E+03	6.5000000000E+03	9.3827000000E-01	0.000E+00	0.0
	2212	1	0	0	0	0	0.0000000000E+00	0.0000000000E+00	4.9795978247E+03	4.9795978247E+03	9.3827000000E-01	0.000E+00	0.0
	2212	1	0	0	0	0	0.0000000000E+00	0.0000000000E+00	-6.3174449032E+03	6.3174449032E+03	9.3827000000E-01	0.000E+00	0.0
	51	2	1	2	0	0	8.0419654068E+01	7.8757071031E+01	1.4644271900E+03	1.8076077165E+03	1.0536738894E+03	0.000E+00	0.0
	1000022	2	5	5	0	0	-8.0419654068E+01	-7.8757071031E+01	9.8929359975E+02	1.3157549830E+03	8.6013914670E+02	0.000E+00	0.0
	14	1	6	6	0	0	1.3125313054E+02	-7.3664172769E+01	1.4458128138E+02	3.8624155855E+02	3.2500000000E+02	0.000E+00	0.0
	-14	1	6	6	0	0	-2.1167278461E+02	-5.0928982623E+00	8.4471231836E+02	9.2951342441E+02	3.2500000000E+02	0.000E+00	0.0
	25	2	5	5	0	0	8.0419654068E+01	7.8757071031E+01	3.4855347871E+02	3.8720228912E+02	1.2556308447E+02	0.000E+00	0.0
	-5	1	9	9	0	501	1.0937780028E+02	5.7193034007E+01	2.0685912446E+02	2.4092055974E+02	4.1800000000E+00	0.000E+00	0.0
	5	1	9	9	501	0	-2.8958146208E+01	2.1564037024E+01	1.4169435425E+02	1.4628172938E+02	4.1800000000E+00	0.000E+00	0.0
</event>
<event>
    11  -1  1.0000000E+00  1.0000000E+00  -1.0000000E+00  -1.0000000E+00
	2212	-1	0	0	0	0	0.0000000000E+00	0.0000000000E+00	6.5000000000E+03	6.5000000000E+03	9.3827000000E-01	0.000E+00	0.0
	2212	-1	0	0	0	0	0.0000000000E+00	0.0000000000E+00	-6.5000000000E+03	6.5000000000E+03	9.3827000000E-01	0.000E+00	0.0
	2212	1	0	0	0	0	0.0000000000E+00	0.0000000000E+00	6.1307913562E+03	6.1307913562E+03	9.3827000000E-01	0.000E+00	0.0
	2212	1	0	0	0	0	0.0000000000E+00	0.0000000000E+00	-5.7589473963E+03	5.7589473963E+03	9.3827000000E-01	0.000E+00	0.0
	51	2	1	2	0	0	4.6804306694E+01	1.0270566440E+02	-3.3413444038E+02	1.1039914075E+03	1.0461415330E+03	0.000E+00	0.0
	1000022	2	5	5	0	0	-4.6804306694E+01	-1.0270566440E+02	-3.5055562817E+02	9.4037378750E+02	8.6525979634E+02	0.000E+00	0.0
	14	1	6	6	0	0	1.8896412127E+02	8.4793650213E+01	-1.7051037391E+01	3.8576306215E+02	3.2500000000E+02	0.000E+00	0.0
	-14	1	6	6	0	0	-2.3576842797E+02	-1.8749931461E+02	-3.3350459078E+02	5.5461072535E+02	3.2500000000E+02	0.000E+00	0.0
	25	2	5	5	0	0	4.6804306694E+01	1.0270566440E+02	-2.1288331734E+01	1.6988745993E+02	1.2517771107E+02	0.000E+00	0.0
	-5	1	9	9	0	501	-4.3752686619E+00	9.2061785324E+01	2.9521607710E+01	9.6868534699E+01	4.1800000000E+00	0.000E+00	0.0
	5	1	9	9	501	0	5.1179575356E+01	1.0643879071E+01	-5.0809939445E+01	7.3018925229E+01	4.1800000000E+00	0.000E+00	0.0
</event>
<event>
    11  -1  1.0000000E+00  1.0000000E+00  -1.0000000E+00  -1.0000000E+00
	2212	-1	0	0	0	0	0.0000000000E+00	0.0000000000E+00	6.5000000000E+03	6.5000000000E+03	9.3827000000E-01	0.000E+00	0.0
	2212	-1	0	0	0	0	0.0000000000E+00	0.0000000000E+00	-6.5000000000E+03	6.5000000000E+03	9.3827000000E-01	0.000E+00	0.0
	2212	1	0	0	0	0	0.0000000000E+00	0.0000000000E+00	6.1614254389E+03	6.1614254389E+03	9.3827000000E-01	0.000E+00	0.0
	2212	1	0	0	0	0	0.0000000000E+00	0.0000000000E+00	-5.7063002909E+03	5.7063002909E+03	9.3827000000E-01	0.000E+00	0.0
	51	2	1	2	0	0	1.0263982379E+02	-5.4001347570E+01	-4.8774738006E+02	1.1516313249E+03	1.0367767950E+03	0.000E+00	0.0
	1000022	2	5	5	0	0	-1.0263982379E+02	5.4001347570E+01	-3.4965639310E+02	9.3168740720E+02	8.5576325729E+02	0.000E+00	0.0
	14	1	6	6	0	0	-1.2570687395E+02	-5.5170816747E-02	-4.6568574630E+02	5.8162740265E+02	3.2500000000E+02	0.000E+00	0.0
	-14	1	6	6	0	0	2.3067050167E+01	5.4056518387E+01	1.1602935320E+02	3.5006000455E+02	3.2500000000E+02	0.000E+00	0.0
	25	2	5	5	0	0	1.0263982379E+02	-5.4001347570E+01	-1.0546875484E+02	2.0058686303E+02	1.2514132974E+02	0.000E+00	0.0
	-5	1	9	9	0	501	8.6886810051E+01	-5.6372663827E+01	-1.3292864448E+02	1.6856658006E+02	4.1800000000E+00	0.000E+00	0.0
	5	1	9	9	501	0	1.5753013736E+01	2.3713162570E+00	2.7459889646E+01	3.2020282977E+01	4.1800000000E+00	0.000E+00	0.0
</event>
<event>
    11  -1  1.0000000E+00  1.0000000E+00  -1.0000000E+00  -1.0000000E+00
	2212	-1	0	0	0	0	0.0000000000E+00	0.0000000000E+00	6.5000000000E+03	6.5000000000E+03	9.3827000000E-01	0.000E+00	0.0
	2212	-1	0	0	0	0	0.0000000000E+00	0.0000000000E+00	-6.5000000000E+03	6.5000000000E+03	9.3827000000E-01	0.000E+00	0.0
	2212	1	0	0	0	0	0.0000000000E+00	0.0000000000E+00	5.6671999335E+03	5.6671999335E+03	9.3827000000E-01	0.000E+00	0.0
	2212	1	0	0	0	0	0.0000000000E+00	0.0000000000E+00	-6.1844726369E+03	6.1844726369E+03	9.3827000000E-01	0.000E+00	0.0
	51	2	1	2	0	0	3.8494593317E+01	3.6138729023E+01	4.2981671267E+02	1.1129308531E+03	1.0252242856E+03	0.000E+00	0.0
	1000022	2	5	5	0	0	-3.8494593317E+01	-3.6138729023E+01	5.2741506519E+02	1.0120904362E+03	8.6219055813E+02	0.000E+00	0.0
	14	1	6	6	0	0	-1.7278770227E+02	-2.4541096055E+02	3.5839928472E+02	5.6934802793E+02	3.2500000000E+02	0.000E+00	0.0
	-14	1	6	6	0	0	1.3429310895E+02	2.0927223153E+02	1.6901578047E+02	4.4274240823E+02	3.2500000000E+02	0.000E+00	0.0
	25	2	5	5	0	0	3.8494593317E+01	3.6138729023E+01	-1.0142361841E+01	1.3623699341E+02	1.2517910936E+02	0.000E+00	0.0
	-5	1	9	9	0	501	5.0641066448E+01	5.5402840282E+01	3.6945615339E+01	8.3764212019E+01	4.1800000000E+00	0.000E+00	0.0
	5	1	9	9	501	0	-1.2146473131E+01	-1.9264111259E+01	-4.7087977181E+01	5.2472781393E+01	4.1800000000E+00	0.000E+00	0.0
</event>
<event>
    11  -1  1.0000000E+00  1.0000000E+00  -1.0000000E+00  -1.0000000E+00
	2212	-1	0	0	0	0	0.0000000000E+00	0.0000000000E+00	6.5000000000E+03	6.5000000000E+03	9.3827000000E-01	0.000E+00	0.0
	2212	-1	0	0	0	0	0.0000000000E+00	0.0000000000E+00	-6.5000000000E+03	6.5000000000E+03	9.3827000000E-01	0.000E+00	0.0
	2212	1	0	0	0	0	0.0000000000E+00	0.0000000000E+00	6.1092594611E+03	6.1092594611E+03	9.3827000000E-01	0.000E+00	0.0
	2212	1	0	0	0	0	0.0000000000E+00	0.0000000000E+00	-5.7889590124E+03	5.7889590124E+03	9.3827000000E-01	0.000E+00	0.0
	51	2	1	2	0	0	4.6162710794E+01	-1.2066803619E+02	-2.5004142144E+02	1.0911199008E+03	1.0541964497E+03	0.000E+00	0.0
	1000022	2	5	5	0	0	-4.6162710794E+01	1.2066803619E+02	-3.3498656767E+02	9.2128137277E+02	8.4844068530E+02	0.000E+00	0.0
	14	1	6	6	0	0	1.8222576939E+02	1.9592727151E+02	-4.4219371628E+01	4.2328959304E+02	3.2500000000E+02	0.000E+00	0.0
	-14	1	6	6	0	0	-2.2838848019E+02	-7.5259235313E+01	-2.9076719604E+02	4.9799177973E+02	3.2500000000E+02	0.000E+00	0.0
	25	2	5	5	0	0	4.6162710794E+01	-1.2066803619E+02	1.4686118984E+01	1.8050015367E+02	1.2519126390E+02	0.000E+00	0.0
	-5	1	9	9	0	501	2.8041381863E+00	-1.3378299519E+02	4.8938985964E+00	1.3396706922E+02	4.1800000000E+00	0.000E+00	0.0
	5	1	9	9	501	0	4.3358572608E+01	1.3114958997E+01	9.7922203873E+00	4.6533084447E+01	4.1800000000E+00	0.000E+00	0.0
</event>
<event>
    11  -1  1.0000000E+00  1.0000000E+00  -1.0000000E+00  -1.0000000E+00
	2212	-1	0	0	0	0	0.0000000000E+00	0.0000000000E+00	6.5000000000E+03	6.5000000000E+03	9.3827000000E-01	0.000E+00	0.0
	2212	-1	0	0	0	0	0.0000000000E+00	0.0000000000E+00	-6.5000000000E+03	6.5000000000E+03	9.3827000000E-01	0.000E+00	0.0
	2212	1	0	0	0	0	0.0000000000E+00	0.0000000000E+00	5.6953590809E+03	5.6953590809E+03	9.3827000000E-01	0.000E+00	0.0
	2212	1	0	0	0	0	0.0000000000E+00	0.0000000000E+00	-6.1665600667E+03	6.1665600667E+03	9.3827000000E-01	0.000E+00	0.0
	51	2	1	2	0	0	5.5719453547E+01	1.0855349833E+02	4.6475750249E+02	1.1419657232E+03	1.0359525363E+03	0.000E+00	0.0
	1000022	2	5	5	0	0	-5.5719453547E+01	-1.0855349833E+02	4.0130392164E+02	9.4981242110E+02	8.5217972180E+02	0.000E+00	0.0
	14	1	6	6	0	0	1.9424943034E+02	-2.1646108789E+02	2.2347310648E+02	4.9005456133E+02	3.2500000000E+02	0.000E+00	0.0
	-14	1	6	6	0	0	-2.4996888389E+02	1.0790758957E+02	1.7783081516E+02	4.5975785977E+02	3.2500000000E+02	0.000E+00	0.0
	25	2	5	5	0	0	5.5719453547E+01	1.0855349833E+02	6.9897064198E+01	1.8826843125E+02	1.2518339793E+02	0.000E+00	0.0
	-5	1	9	9	0	501	-3.6455427221E+01	3.2684514704E+01	-1.3873299726E+00	4.9159665985E+01	4.1800000000E+00	0.000E+00	0.0
	5	1	9	9	501	0	9.2174880768E+01	7.5868983624E+01	7.1284394170E+01	1.3910876526E+02	4.1800000000E+00	0.000E+00	0.0
</event>
<event>
    11  -1  1.0000000E+00  1.0000000E+00  -1.0000000E+00  -1.0000000E+00
	2212	-1	0	0	0	0	0.0000000000E+00	0.0000000000E+00	6.5000000000E+03	6.5000000000E+03	9.3827000000E-01	0.000E+00	0.0
	2212	-1	0	0	0	0	0.0000000000E+00	0.0000000000E+00	-6.5000000000E+03	6.5000000000E+03	9.3827000000E-01	0.000E+00	0.0
	2212	1	0	0	0	0	0.0000000000E+00	0.0000000000E+00	6.1617990737E+03	6.1617990737E+03	9.3827000000E-01	0.000E+00	0.0
	2212	1	0	0	0	0	0.0000000000E+00	0.0000000000E+00	-5.5494877226E+03	5.5494877226E+03	9.3827000000E-01	0.000E+00	0.0
	51	2	1	2	0	0	1.0433150759E+02	1.8942227210E+02	-5.8971011851E+02	1.2962948797E+03	1.1339561414E+03	0.000E+00	0.0
	1000022	2	5	5	0	0	-1.0433150759E+02	-1.8942227210E+02	-5.1028157177E+02	1.0188244017E+03	8.5489766547E+02	0.000E+00	0.0
	14	1	6	6	0	0	-3.1788735063E+02	-5.6202231465E+01	-1.8260381323E+02	4.9313305620E+02	3.2500000000E+02	0.000E+00	0.0
	-14	1	6	6	0	0	2.1355584304E+02	-1.3322004063E+02	-3.2767775853E+02	5.2569134552E+02	3.2500000000E+02	0.000E+00	0.0
	25	2	5	5	0	0	1.0433150759E+02	1.8942227210E+02	-1.0202977935E+02	2.6988880196E+02	1.2515601827E+02	0.000E+00	0.0
	-5	1	9	9	0	501	-2.2553399633E+01	7.6039015573E+01	-2.7197667392E+01	8.3951016884E+01	4.1800000000E+00	0.000E+00	0.0
	5	1	9	9	501	0	1.2688490722E+02	1.1338325652E+02	-7.4832111956E+01	1.8593778508E+02	4.1800000000E+00	0.000E+00	0.0
</event>
<event>
    11  -1  1.0000000E+00  1.0000000E+00  -1.0000000E+00  -1.0000000E+00
	2212	-1	0	0	0	0	0.0000000000E+00	0.0000000000E+00	6.5000000000E+03	6.5000000000E+03	9.3827000000E-01	0.000E+00	0.0
	2212	-1	0	0	0	0	0.0000000000E+00	0.0000000000E+00	-6.5000000000E+03	6.5000000000E+03	9.3827000000E-01	0.000E+00	0.0
	2212	1	0	0	0	0	0.0000000000E+00	0.0000000000E+00	5.9197513108E+03	5.9197513108E+03	9.3827000000E-01	0.000E+00	0.0
	2212	1	0	0	0	0	0.0000000000E+00	0.0000000000E+00	-6.0271399427E+03	6.0271399427E+03	9.3827000000E-01	0.000E+00	0.0
	51	2	1	2	0	0	5.9312079769E+00	3.5441025774E+01	2.4429682509E+02	1.0763261114E+03	1.0476190690E+03	0.000E+00	0.0
	1000022	2	5	5	0	0	-5.9312079769E+00	-3.5441025774E+01	-4.7811220634E+01	8.5051386173E+02	8.4840831599E+02	0.000E+00	0.0
	14	1	6	6	0	0	1.9902686659E+01	-2.7170448124E+02	7.2625880704E+01	4.3025453003E+02	3.2500000000E+02	0.000E+00	0.0
	-14	1	6	6	0	0	-2.5833894636E+01	2.3626345547E+02	-1.2043710134E+02	4.2025933170E+02	3.2500000000E+02	0.000E+00	0.0
	25	2	5	5	0	0	5.9312079769E+00	3.5441025774E+01	1.5519985254E+02	2.0259488477E+02	1.2516568049E+02	0.000E+00	0.0
	-5	1	9	9	0	501	5.9389886685E+01	1.7173371184E+00	4.2012983523E+01	7.2888072218E+01	4.1800000000E+00	0.000E+00	0.0
	5	1	9	9	501	0	-5.3458678708E+01	3.3723688655E+01	1.1318686902E+02	1.2970681256E+02	4.1800000000E+00	0.000E+00	0.0
</event>
<event>
    11  -1  1.0000000E+00  1.0000000E+00  -1.0000000E+00  -1.0000000E+00
	2212	-1	0	0	0	0	0.0000000000E+00	0.0000000000E+00	6.5000000000E+03	6.5000000000E+03	9.3827000000E-01	0.000E+00	0.0
	2212	-1	0	0	0	0	0.0000000000E+00	0.0000000000E+00	-6.5000000000E+03	6.5000000000E+03	9.3827000000E-01	0.000E+00	0.0
	2212	1	0	0	0	0	0.0000000000E+00	0.0000000000E+00	4.8608210121E+03	4.8608210121E+03	9.3827000000E-01	0.000E+00	0.0
	2212	1	0	0	0	0	0.0000000000E+00	0.0000000000E+00	-6.3319519256E+03	6.3319519256E+03	9.3827000000E-01	0.000E+00	0.0
	51	2	1	2	0	0	-6.4593317750E+01	-1.1507643096E+02	1.5725612398E+03	1.8953119069E+03	1.0496873296E+03	0.000E+00	0.0
	1000022	2	5	5	0	0	6.4593317750E+01	1.1507643096E+02	1.1181963438E+03	1.4101790446E+03	8.4901530769E+02	0.000E+00	0.0
	14	1	6	6	0	0	2.3829553953E+02	-2.1411030127E+01	3.0116681214E+02	5.0355699291E+02	3.2500000000E+02	0.000E+00	0.0
	-14	1	6	6	0	0	-1.7370222178E+02	1.3648746108E+02	8.1702953168E+02	9.0662205164E+02	3.2500000000E+02	0.000E+00	0.0
	25	2	5	5	0	0	-6.4593317750E+01	-1.1507643096E+02	3.5293456976E+02	3.9704801776E+02	1.2517761865E+02	0.000E+00	0.0
	-5	1	9	9	0	501	-4.7055905460E+01	-7.4285033250E+01	7.5272827087E+01	1.1582743760E+02	4.1800000000E+00	0.000E+00	0.0
	5	1	9	9	501	0	-1.7537412290E+01	-4.0791397707E+01	2.7766174268E+02	2.8122058016E+02	4.1800000000E+00	0.000E+00	0.0
</event>
<event>
    11  -1  1.0000000E+00  1.0000000E+00  -1.0000000E+00  -1.0000000E+00
	2212	-1	0	0	0	0	0.0000000000E+00	0.0000000000E+00	6.5000000000E+03	6.5000000000E+03	9.3827000000E-01	0.000E+00	0.0
	2212	-1	0	0	0	0	0.0000000000E+00	0.0000000000E+00	-6.5000000000E+03	6.5000000000E+03	9.3827000000E-01	0.000E+00	0.0
	2212	1	0	0	0	0	0.0000000000E+00	0.0000000000E+00	5.3190912349E+03	5.3190912349E+03	9.3827000000E-01	0.000E+00	0.0
	2212	1	0	0	0	0	0.0000000000E+00	0.0000000000E+00	-6.2711673457E+03	6.2711673457E+03	9.3827000000E-01	0.000E+00	0.0
	51	2	1	2	0	0	3.7215655597E+00	5.8930590197E+01	1.1220316621E+03	1.5308049073E+03	1.0396739628E+03	0.000E+00	0.0
	1000022	2	5	5	0	0	-3.7215655597E+00	-5.8930590197E+01	6.2242321502E+02	1.0522136842E+03	8.4631927437E+02	0.000E+00	0.0
	14	1	6	6	0	0	2.2654803813E+02	-1.1201054429E+02	4.6391347735E+02	6.2025082836E+02	3.2500000000E+02	0.000E+00	0.0
	-14	1	6	6	0	0	-2.3026960369E+02	5.3079954091E+01	1.5850973767E+02	4.3196285587E+02	3.2500000000E+02	0.000E+00	0.0
	25	2	5	5	0	0	3.7215655597E+00	5.8930590197E+01	3.2965289573E+02	3.5752773521E+02	1.2517342077E+02	0.000E+00	0.0
	-5	1	9	9	0	501	-5.2105953209E+01	6.1015370562E+01	1.6330906199E+02	1.8200337341E+02	4.1800000000E+00	0.000E+00	0.0
	5	1	9	9	501	0	5.5827518769E+01	-2.0847803654E+00	1.6634383374E+02	1.7552436180E+02	4.1800000000E+00	0.000E+00	0.0
</event>
<event>
    11  -1  1.0000000E+00  1.0000000E+00  -1.0000000E+00  -1.0000000E+00
	2212	-1	0	0	0	0	0.0000000000E+00	0.0000000000E+00	6.5000000000E+03	6.5000000000E+03	9.3827000000E-01	0.000E+00	0.0
	2212	-1	0	0	0	0	0.0000000000E+00	0.0000000000E+00	-6.5000000000E+03	6.5000000000E+03	9.3827000000E-01	0.000E+00	0.0
	2212	1	0	0	0	0	0.0000000000E+00	0.0000000000E+00	5.5550784072E+03	5.5550784072E+03	9.3827000000E-01	0.000E+00	0.0
	2212	1	0	0	0	0	0.0000000000E+00	0.0000000000E+00	-6.2099962112E+03	6.2099962112E+03	9.3827000000E-01	0.000E+00	0.0
	51	2	1	2	0	0	-8.1849875665E+01	-8.8437720458E+01	6.0387652095E+02	1.2146237497E+03	1.0469591053E+03	0.000E+00	0.0
	1000022	2	5	5	0	0	8.1849875665E+01	8.8437720458E+01	5.9826545860E+02	1.0521578734E+03	8.5708459275E+02	0.000E+00	0.0
	14	1	6	6	0	0	1.1895684229E+02	-2.2453887654E+02	2.9783171733E+02	5.0881938765E+02	3.2500000000E+02	0.000E+00	0.0
	-14	1	6	6	0	0	-3.7106966629E+01	3.1297659699E+02	3.0043374127E+02	5.4333848578E+02	3.2500000000E+02	0.000E+00	0.0
	25	2	5	5	0	0	-8.1849875665E+01	-8.8437720458E+01	5.6652345455E+01	1.8276750820E+02	1.2519521261E+02	0.000E+00	0.0
	-5	1	9	9	0	501	-1.5930032360E+01	-1.0194755398E+02	5.0818531333E+01	1.1509589576E+02	4.1800000000E+00	0.000E+00	0.0
	5	1	9	9	501	0	-6.5919843305E+01	1.3509833521E+01	5.8338141220E+00	6.7671612441E+01	4.1800000000E+00	0.000E+00	0.0
</event>
<event>
    11  -1  1.0000000E+00  1.0000000E+00  -1.0000000E+00  -1.0000000E+00
	2212	-1	0	0	0	0	0.0000000000E+00	0.0000000000E+00	6.5000000000E+03	6.5000000000E+03	9.3827000000E-01	0.000E+00	0.0
	2212	-1	0	0	0	0	0.0000000000E+00	0.0000000000E+00	-6.5000000000E+03	6.5000000000E+03	9.3827000000E-01	0.000E+00	0.0
	2212	1	0	0	0	0	0.0000000000E+00	0.0000000000E+00	5.6608343123E+03	5.6608343123E+03	9.3827000000E-01	0.000E+00	0.0
	2212	1	0	0	0	0	0.0000000000E+00	0.0000000000E+00	-6.1783222482E+03	6.1783222482E+03	9.3827000000E-01	0.000E+00	0.0
	51	2	1	2	0	0	-1.2950469413E+01	1.0971030871E+02	6.0006705285E+02	1.2050096521E+03	1.0391168015E+03	0.000E+00	0.0
	1000022	2	5	5	0	0	1.2950469413E+01	-1.0971030871E+02	3.4879301596E+02	9.2349984421E+02	8.4793356331E+02	0.000E+00	0.0
	14	1	6	6	0	0	-1.9738177976E+02	-2.1326036331E+02	8.6228334458E+01	4.4440958046E+02	3.2500000000E+02	0.000E+00	0.0
	-14	1	6	6	0	0	2.1033224917E+02	1.0355005460E+02	2.6256468151E+02	4.7909026375E+02	3.2500000000E+02	0.000E+00	0.0
	25	2	5	5	0	0	-1.2950469413E+01	1.0971030871E+02	1.6869491999E+02	2.3734359530E+02	1.2517962976E+02	0.000E+00	0.0
	-5	1	9	9	0	501	1.6278475903E+01	-2.0738732989E+01	5.7557683297E+01	6.3446379961E+01	4.1800000000E+00	0.000E+00	0.0
	5	1	9	9	501	0	-2.9228945316E+01	1.3044904170E+02	1.1113723669E+02	1.7389721534E+02	4.1800000000E+00	0.000E+00	0.0
</event>
<event>
    11  -1  1.0000000E+00  1.0000000E+00  -1.0000000E+00  -1.0000000E+00
	2212	-1	0	0	0	0	0.0000000000E+00	0.0000000000E+00	6.5000000000E+03	6.5000000000E+03	9.3827000000E-01	0.000E+00	0.0
	2212	-1	0	0	0	0	0.0000000000E+00	0.0000000000E+00	-6.5000000000E+03	6.5000000000E+03	9.3827000000E-01	0.000E+00	0.0
	2212	1	0	0	0	0	0.0000000000E+00	0.0000000000E+00	5.2553336418E+03	5.2553336418E+03	9.3827000000E-01	0.000E+00	0.0
	2212	1	0	0	0	0	0.0000000000E+00	0.0000000000E+00	-6.2800855490E+03	6.2800855490E+03	9.3827000000E-01	0.000E+00	0.0
	51	2	1	2	0	0	-1.0251601388E+02	-8.2847116229E+01	9.8800105363E+02	1.4451296603E+03	1.0463653641E+03	0.000E+00	0.0
	1000022	2	5	5	0	0	1.0251601388E+02	8.2847116229E+01	8.8924461681E+02	1.2378397137E+03	8.5095122693E+02	0.000E+00	0.0
	14	1	6	6	0	0	3.0829555388E+02	3.5593722797E+01	3.3042985051E+02	5.5778306513E+02	3.2500000000E+02	0.000E+00	0.0
	-14	1	6	6	0	0	-2.0577954000E+02	4.7253393432E+01	5.5881476630E+02	6.8005664860E+02	3.2500000000E+02	0.000E+00	0.0
	25	2	5	5	0	0	-1.0251601388E+02	-8.2847116229E+01	1.3550729041E+02	2.2674109542E+02	1.2520431634E+02	0.000E+00	0.0
	-5	1	9	9	0	501	2.3550563186E+01	6.4991826066E+00	3.2980255062E+01	4.1255763536E+01	4.1800000000E+00	0.000E+00	0.0
	5	1	9	9	501	0	-1.2606657706E+02	-8.9346298836E+01	1.0252703534E+02	1.8548533189E+02	4.1800000000E+00	0.000E+00	0.0
</event>
<event>
    11  -1  1.0000000E+00  1.0000000E+00  -1.0000000E+00  -1.0000000E+00
	2212	-1	0	0	0	0	0.0000000000E+00	0.0000000000E+00	6.5000000000E+03	6.5000000000E+03	9.3827000000E-01	0.000E+00	0.0
	2212	-1	0	0	0	0	0.0000000000E+00	0.0000000000E+00	-6.5000000000E+03	6.5000000000E+03	9.3827000000E-01	0.000E+00	0.0
	2212	1	0	0	0	0	0.0000000000E+00	0.0000000000E+00	6.0100711452E+03	6.0100711452E+03	9.3827000000E-01	0.000E+00	0.0
	2212	1	0	0	0	0	0.0000000000E+00	0.0000000000E+00	-5.9218598251E+03	5.9218598251E+03	9.3827000000E-01	0.000E+00	0.0
	51	2	1	2	0	0	-9.7246280176E+01	-5.1389962000E+01	-1.4156888848E+02	1.0794117530E+03	1.0644201310E+03	0.000E+00	0.0
	1000022	2	5	5	0	0	9.7246280176E+01	5.1389962000E+01	-2.0941331260E+01	8.8827371521E+02	8.8118890516E+02	0.000E+00	0.0
	14	1	6	6	0	0	1.6698293752E+02	7.4142639291E-02	2.6129889102E+02	4.4920531761E+02	3.2500000000E+02	0.000E+00	0.0
	-14	1	6	6	0	0	-6.9736657341E+01	5.1315819360E+01	-2.8224022228E+02	4.3906839760E+02	3.2500000000E+02	0.000E+00	0.0
	25	2	5	5	0	0	-9.7246280176E+01	-5.1389962000E+01	-6.7269988848E+01	1.7979531450E+02	1.2531295429E+02	0.000E+00	0.0
	-5	1	9	9	0	501	-7.2308297014E+01	-2.1184415277E+01	2.4976936947E+01	7.9489553068E+01	4.1800000000E+00	0.000E+00	0.0
	5	1	9	9	501	0	-2.4937983162E+01	-3.0205546723E+01	-9.2246925795E+01	1.0030576143E+02	4.1800000000E+00	0.000E+00	0.0
</event>
<event>
    11  -1  1.0000000E+00  1.0000000E+00  -1.0000000E+00  -1.0000000E+00
	2212	-1	0	0	0	0	0.0000000000E+00	0.0000000000E+00	6.5000000000E+03	6.5000000000E+03	9.3827000000E-01	0.000E+00	0.0
	2212	-1	0	0	0	0	0.0000000000E+00	0.0000000000E+00	-6.5000000000E+03	6.5000000000E+03	9.3827000000E-01	0.000E+00	0.0
	2212	1	0	0	0	0	0.0000000000E+00	0.0000000000E+00	5.4107867235E+03	5.4107867235E+03	9.3827000000E-01	0.000E+00	0.0
	2212	1	0	0	0	0	0.0000000000E+00	0.0000000000E+00	-6.2492694985E+03	6.2492694985E+03	9.3827000000E-01	0.000E+00	0.0
	51	2	1	2	0	0	-7.2573217584E+01	8.1326857610E+01	7.4927340068E+02	1.2906151723E+03	1.0451774798E+03	0.000E+00	0.0
	1000022	2	5	5	0	0	7.2573217584E+01	-8.1326857610E+01	7.8832864119E+02	1.1665614692E+03	8.5294940370E+02	0.000E+00	0.0
	14	1	6	6	0	0	-5.8783701842E+01	1.4515566123E+02	1.2296843473E+02	3.8114554376E+02	3.2500000000E+02	0.000E+00	0.0
	-14	1	6	6	0	0	1.3135691943E+02	-2.2648251884E+02	6.6536020647E+02	7.8541592546E+02	3.2500000000E+02	0.000E+00	0.0
	25	2	5	5	0	0	-7.2573217584E+01	8.1326857610E+01	5.0154133833E+01	1.7338230881E+02	1.2516013019E+02	0.000E+00	0.0
	-5	1	9	9	0	501	-9.5851564185E+01	9.6920940855E+01	3.3172317560E+01	1.4035336186E+02	4.1800000000E+00	0.000E+00	0.0
	5	1	9	9	501	0	2.3278346601E+01	-1.5594083245E+01	1.6981816273E+01	3.3028946950E+01	4.1800000000E+00	0.000E+00	0.0
</event>
<event>
    11  -1  1.0000000E+00  1.0000000E+00  -1.0000000E+00  -1.0000000E+00
	2212	-1	0	0	0	0	0.0000000000E+00	0.0000000000E+00	6.5000000000E+03	6.5000000000E+03	9.3827000000E-01	0.000E+00	0.0
	2212	-1	0	0	0	0	0.0000000000E+00	0.0000000000E+00	-6.5000000000E+03	6.5000000000E+03	9.3827000000E-01	0.000E+00	0.0
	2212	1	0	0	0	0	0.0000000000E+00	0.0000000000E+00	5.8934620856E+03	5.8934620856E+03	9.3827000000E-01	0.000E+00	0.0
	2212	1	0	0	0	0	0.0000000000E+00	0.0000000000E+00	-6.0445639344E+03	6.0445639344E+03	9.3827000000E-01	0.000E+00	0.0
	51	2	1	2	0	0	6.7285052032E+01	-1.1141267577E+02	2.1793124397E+02	1.0813838611E+03	1.0511693324E+03	0.000E+00	0.0
	1000022	2	5	5	0	0	-6.7285052032E+01	1.1141267577E+02	5.8135440101E+01	8.5886794607E+02	8.4695593560E+02	0.000E+00	0.0
	14	1	6	6	0	0	-1.1761758782E+01	6.4323347525E+01	3.0012244316E+02	4.4718487552E+02	3.2500000000E+02	0.000E+00	0.0
	-14	1	6	6	0	0	-5.5523293250E+01	4.7089328242E+01	-2.4198700306E+02	4.1168307055E+02	3.2500000000E+02	0.000E+00	0.0
	25	2	5	5	0	0	6.7285052032E+01	-1.1141267577E+02	9.2966408708E+01	2.0310603392E+02	1.2517685616E+02	0.000E+00	0.0
	-5	1	9	9	0	501	6.0543572423E+01	-1.3228215544E+02	4.8600324837E+01	1.5343909796E+02	4.1800000000E+00	0.000E+00	0.0
	5	1	9	9	501	0	6.7414796089E+00	2.0869479672E+01	4.4366083871E+01	4.9666935955E+01	4.1800000000E+00	0.000E+00	0.0
</event>
<event>
    11  -1  1.0000000E+00  1.0000000E+00  -1.0000000E+00  -1.0000000E+00
	2212	-1	0	0	0	0	0.0000000000E+00	0.0000000000E+00	6.5000000000E+03	6.5000000000E+03	9.3827000000E-01	0.000E+00	0.0
	2212	-1	0	0	0	0	0.0000000000E+00	0.0000000000E+00	-6.5000000000E+03	6.5000000000E+03	9.3827000000E-01	0.000E+00	0.0
	2212	1	0	0	0	0	0.0000000000E+00	0.0000000000E+00	4.8683404736E+03	4.8683404736E+03	9.3827000000E-01	0.000E+00	0.0
	2212	1	0	0	0	0	0.0000000000E+00	0.0000000000E+00	-6.3295889753E+03	6.3295889753E+03	9.3827000000E-01	0.000E+00	0.0
	51	2	1	2	0	0	1.5353900604E+02	7.9213964364E+00	1.2772814571E+03	1.6635191563E+03	1.0546141890E+03	0.000E+00	0.0
	1000022	2	5	5	0	0	-1.5353900604E+02	-7.9213964364E+00	1.3475406462E+03	1.5735172609E+03	7.9778054761E+02	0.000E+00	0.0
	14	1	6	6	0	0	-2.5334795265E+01	-6.0123371303E+01	1.0818682607E+03	1.1315125298E+03	3.2500000000E+02	0.000E+00	0.0
	-14	1	6	6	0	0	-1.2820421078E+02	5.2201974867E+01	2.6567238550E+02	4.4200473104E+02	3.2500000000E+02	0.000E+00	0.0
	25	2	5	5	0	0	1.5353900604E+02	7.9213964364E+00	1.1370785547E+02	2.2855329027E+02	1.2518049049E+02	0.000E+00	0.0
	-5	1	9	9	0	501	1.4560745170E+02	1.1722619072E+01	3.6358539937E+01	1.5059337839E+02	4.1800000000E+00	0.000E+00	0.0
	5	1	9	9	501	0	7.9315543450E+00	-3.8012226353E+00	7.7349315528E+01	7.7959911881E+01	4.1800000000E+00	0.000E+00	0.0
</event>
<event>
    11  -1  1.0000000E+00  1.0000000E+00  -1.0000000E+00  -1.0000000E+00
	2212	-1	0	0	0	0	0.0000000000E+00	0.0000000000E+00	6.5000000000E+03	6.5000000000E+03	9.3827000000E-01	0.000E+00	0.0
	2212	-1	0	0	0	0	0.0000000000E+00	0.0000000000E+00	-6.5000000000E+03	6.5000000000E+03	9.3827000000E-01	0.000E+00	0.0
	2212	1	0	0	0	0	0.0000000000E+00	0.0000000000E+00	5.8247122085E+03	5.8247122085E+03	9.3827000000E-01	0.000E+00	0.0
	2212	1	0	0	0	0	0.0000000000E+00	0.0000000000E+00	-6.0976431004E+03	6.0976431004E+03	9.3827000000E-01	0.000E+00	0.0
	51	2	1	2	0	0	9.5625746287E+01	7.4233876937E+01	2.5655366739E+02	1.0804173011E+03	1.0425098601E+03	0.000E+00	0.0
	1000022	2	5	5	0	0	-9.5625746287E+01	-7.4233876937E+01	2.4535660831E+02	9.0133324438E+02	8.5880544965E+02	0.000E+00	0.0
	14	1	6	6	0	0	2.5615750688E+01	2.3162586837E+02	1.6166728048E+02	4.3135602367E+02	3.2500000000E+02	0.000E+00	0.0
	-14	1	6	6	0	0	-1.2124149697E+02	-3.0585974531E+02	8.3689327830E+01	4.6997722071E+02	3.2500000000E+02	0.000E+00	0.0
	25	2	5	5	0	0	9.5625746287E+01	7.4233876937E+01	2.7574283642E+01	1.7631144669E+02	1.2518160119E+02	0.000E+00	0.0
	-5	1	9	9	0	501	2.0058431701E+01	-2.4095085664E+01	-2.6206537320E+01	4.1075160788E+01	4.1800000000E+00	0.000E+00	0.0
	5	1	9	9	501	0	7.5567314586E+01	9.8328962602E+01	5.3780820962E+01	1.3523628590E+02	4.1800000000E+00	0.000E+00	0.0
</event>
<event>
    11  -1  1.0000000E+00  1.0000000E+00  -1.0000000E+00  -1.0000000E+00
	2212	-1	0	0	0	0	0.0000000000E+00	0.0000000000E+00	6.5000000000E+03	6.5000000000E+03	9.3827000000E-01	0.000E+00	0.0
	2212	-1	0	0	0	0	0.0000000000E+00	0.0000000000E+00	-6.5000000000E+03	6.5000000000E+03	9.3827000000E-01	0.000E+00	0.0
	2212	1	0	0	0	0	0.0000000000E+00	0.0000000000E+00	5.2105494814E+03	5.2105494814E+03	9.3827000000E-01	0.000E+00	0.0
	2212	1	0	0	0	0	0.0000000000E+00	0.0000000000E+00	-6.2839114698E+03	6.2839114698E+03	9.3827000000E-01	0.000E+00	0.0
	51	2	1	2	0	0	1.2594740605E+02	2.6109968834E+01	1.1978335774E+03	1.6018400758E+03	1.0557186508E+03	0.000E+00	0.0
	1000022	2	5	5	0	0	-1.2594740605E+02	-2.6109968834E+01	7.6022757360E+02	1.1446122440E+03	8.4595906864E+02	0.000E+00	0.0
	14	1	6	6	0	0	-2.3152537727E+02	1.7202414656E+01	6.8361653260E+02	7.9174268991E+02	3.2500000000E+02	0.000E+00	0.0
	-14	1	6	6	0	0	1.0557797122E+02	-4.3312383490E+01	7.6611041000E+01	3.5286955405E+02	3.2500000000E+02	0.000E+00	0.0
	25	2	5	5	0	0	1.2594740605E+02	2.6109968834E+01	3.1313441481E+02	3.6092680492E+02	1.2518193643E+02	0.000E+00	0.0
	-5	1	9	9	0	501	1.2989297969E+02	2.7737089720E+01	3.2307056755E+02	3.4933307364E+02	4.1800000000E+00	0.000E+00	0.0
	5	1	9	9	501	0	-3.9455736477E+00	-1.6271208861E+00	-9.9361527398E+00	1.1593731283E+01	4.1800000000E+00	0.000E+00	0.0
</event>
<event>
    11  -1  1.0000000E+00  1.0000000E+00  -1.0000000E+00  -1.0000000E+00
	2212	-1	0	0	0	0	0.0000000000E+00	0.0000000000E+00	6.5000000000E+03	6.5000000000E+03	9.3827000000E-01	0.000E+00	0.0
	2212	-1	0	0	0	0	0.0000000000E+00	0.0000000000E+00	-6.5000000000E+03	6.5000000000E+03	9.3827000000E-01	0.000E+00	0.0
	2212	1	0	0	0	0	0.0000000000E+00	0.0000000000E+00	5.2883119204E+03	5.2883119204E+03	9.3827000000E-01	0.000E+00	0.0
	2212	1	0	0	0	0	0.0000000000E+00	0.0000000000E+00	-6.2747769004E+03	6.2747769004E+03	9.3827000000E-01	0.000E+00	0.0
	51	2	1	2	0	0	-1.3563725728E+02	3.2327841159E+01	9.8009007390E+02	1.4393122274E+03	1.0447969085E+03	0.000E+00	0.0
	1000022	2	5	5	0	0	1.3563725728E+02	-3.2327841159E+01	8.2441559468E+02	1.1891788195E+03	8.4560193769E+02	0.000E+00	0.0
	14	1	6	6	0	0	-6.5668964856E+01	1.8882245995E+02	5.4938796493E+02	6.6889346711E+02	3.2500000000E+02	0.000E+00	0.0
	-14	1	6	6	0	0	2.0130622214E+02	-2.2115030110E+02	2.7502762974E+02	5.2028535235E+02	3.2500000000E+02	0.000E+00	0.0
	25	2	5	5	0	0	-1.3563725728E+02	3.2327841159E+01	1.6204938538E+02	2.4773235973E+02	1.2517493310E+02	0.000E+00	0.0
	-5	1	9	9	0	501	-2.8208216448E+01	4.4319251131E+01	-2.3079213889E-01	5.2701282347E+01	4.1800000000E+00	0.000E+00	0.0
	5	1	9	9	501	0	-1.0742904084E+02	-1.1991409973E+01	1.6228017752E+02	1.9503107738E+02	4.1800000000E+00	0.000E+00	0.0
</event>
<event>
    11  -1  1.0000000E+00  1.0000000E+00  -1.0000000E+00  -1.0000000E+00
	2212	-1	0	0	0	0	0.0000000000E+00	0.0000000000E+00	6.5000000000E+03	6.5000000000E+03	9.3827000000E-01	0.000E+00	0.0
	2212	-1	0	0	0	0	0.0000000000E+00	0.0000000000E+00	-6.5000000000E+03	6.5000000000E+03	9.3827000000E-01	0.000E+00	0.0
	2212	1	0	0	0	0	0.0000000000E+00	0.0000000000E+00	5.7069786370E+03	5.7069786370E+03	9.3827000000E-01	0.000E+00	0.0
	2212	1	0	0	0	0	0.0000000000E+00	0.0000000000E+00	-6.1676745927E+03	6.1676745927E+03	9.3827000000E-01	0.000E+00	0.0
	51	2	1	2	0	0	1.0218299367E+02	-5.6174890015E+01	4.3557677463E+02	1.1213780357E+03	1.0267251774E+03	0.000E+00	0.0
	1000022	2	5	5	0	0	-1.0218299367E+02	5.6174890015E+01	4.1129718661E+02	9.4728973839E+02	8.4533750082E+02	0.000E+00	0.0
	14	1	6	6	0	0	-7.5031550597E+01	8.8578792504E+01	-8.2306665689E+01	3.5478912509E+02	3.2500000000E+02	0.000E+00	0.0
	-14	1	6	6	0	0	-2.7151443070E+01	-3.2403902488E+01	4.9360385230E+02	5.9250061330E+02	3.2500000000E+02	0.000E+00	0.0
	25	2	5	5	0	0	1.0218299367E+02	-5.6174890015E+01	4.9398769062E+01	1.7805703193E+02	1.2516822988E+02	0.000E+00	0.0
	-5	1	9	9	0	501	7.1074265397E+01	9.8717532816E+00	7.1781119591E+01	1.0158249970E+02	4.1800000000E+00	0.000E+00	0.0
	5	1	9	9	501	0	3.1108728270E+01	-6.6046643297E+01	-2.2382350529E+01	7.6474532235E+01	4.1800000000E+00	0.000E+00	0.0
</event>
<event>
    11  -1  1.0000000E+00  1.0000000E+00  -1.0000000E+00  -1.0000000E+00
	2212	-1	0	0	0	0	0.0000000000E+00	0.0000000000E+00	6.5000000000E+03	6.5000000000E+03	9.3827000000E-01	0.000E+00	0.0
	2212	-1	0	0	0	0	0.0000000000E+00	0.0000000000E+00	-6.5000000000E+03	6.5000000000E+03	9.3827000000E-01	0.000E+00	0.0
	2212	1	0	0	0	0	0.0000000000E+00	0.0000000000E+00	6.2694805030E+03	6.2694805030E+03	9.3827000000E-01	0.000E+00	0.0
	2212	1	0	0	0	0	0.0000000000E+00	0.0000000000E+00	-5.3126790524E+03	5.3126790524E+03	9.3827000000E-01	0.000E+00	0.0
	51	2	1	2	0	0	4.4678609595E+01	1.1323581847E+02	-1.0501650327E+03	1.4874365987E+03	1.0463281085E+03	0.000E+00	0.0
	1000022	2	5	5	0	0	-4.4678609595E+01	-1.1323581847E+02	-7.0190767320E+02	1.1088800591E+03	8.4977766210E+02	0.000E+00	0.0
	14	1	6	6	0	0	-6.5161906899E+01	-2.8869770557E+02	-5.6179976294E+02	7.1332770376E+02	3.2500000000E+02	0.000E+00	0.0
	-14	1	6	6	0	0	2.0483297304E+01	1.7546188709E+02	-1.4010791026E+02	3.9555235533E+02	3.2500000000E+02	0.000E+00	0.0
	25	2	5	5	0	0	4.4678609595E+01	1.1323581847E+02	-2.5489377738E+02	3.0896038557E+02	1.2516849989E+02	0.000E+00	0.0
	-5	1	9	9	0	501	-1.8413731091E+01	-7.5663561331E-01	3.8037749982E+00	1.9276386964E+01	4.1800000000E+00	0.000E+00	0.0
	5	1	9	9	501	0	6.3092340686E+01	1.1399245409E+02	-2.5869755237E+02	2.8968399860E+02	4.1800000000E+00	0.000E+00	0.0
</event>
<event>
    11  -1  1.0000000E+00  1.0000000E+00  -1.0000000E+00  -1.0000000E+00
	2212	-1	0	0	0	0	0.0000000000E+00	0.0000000000E+00	6.5000000000E+03	6.5000000000E+03	9.3827000000E-01	0.000E+00	0.0
	2212	-1	0	0	0	0	0.0000000000E+00	0.0000000000E+00	-6.5000000000E+03	6.5000000000E+03	9.3827000000E-01	0.000E+00	0.0
	2212	1	0	0	0	0	0.0000000000E+00	0.0000000000E+00	5.6057873059E+03	5.6057873059E+03	9.3827000000E-01	0.000E+00	0.0
	2212	1	0	0	0	0	0.0000000000E+00	0.0000000000E+00	-6.1906590092E+03	6.1906590092E+03	9.3827000000E-01	0.000E+00	0.0
	51	2	1	2	0	0	-1.2825765056E+02	-3.7597108476E+01	5.3597955653E+02	1.1881095133E+03	1.0518871437E+03	0.000E+00	0.0
	1000022	2	5	5	0	0	1.2825765056E+02	3.7597108476E+01	5.3388628458E+02	1.0134690007E+03	8.5101191708E+02	0.000E+00	0.0
	14	1	6	6	0	0	-2.5465200517E+00	-2.4628703339E+02	2.1326793762E+02	4.6018691941E+02	3.2500000000E+02	0.000E+00	0.0
	-14	1	6	6	0	0	1.3080417061E+02	2.8388414187E+02	3.2061834696E+02	5.5328208128E+02	3.2500000000E+02	0.000E+00	0.0
	25	2	5	5	0	0	-1.2825765056E+02	-3.7597108476E+01	5.0985418715E+01	1.9008468423E+02	1.2517630272E+02	0.000E+00	0.0
	-5	1	9	9	0	501	-3.1845949958E+01	-1.6774570303E+01	7.9464111268E+01	8.7335949742E+01	4.1800000000E+00	0.000E+00	0.0
	5	1	9	9	501	0	-9.6411700600E+01	-2.0822538173E+01	-2.8478692553E+01	1.0274873448E+02	4.1800000000E+00	0.000E+00	0.0
</event>
<event>
    11  -1  1.0000000E+00  1.0000000E+00  -1.0000000E+00  -1.0000000E+00
	2212	-1	0	0	0	0	0.0000000000E+00	0.0000000000E+00	6.5000000000E+03	6.5000000000E+03	9.3827000000E-01	0.000E+00	0.0
	2212	-1	0	0	0	0	0.0000000000E+00	0.0000000000E+00	-6.5000000000E+03	6.5000000000E+03	9.3827000000E-01	0.000E+00	0.0
	2212	1	0	0	0	0	0.0000000000E+00	0.0000000000E+00	6.3065169065E+03	6.3065169065E+03	9.3827000000E-01	0.000E+00	0.0
	2212	1	0	0	0	0	0.0000000000E+00	0.0000000000E+00	-5.0742581068E+03	5.0742581068E+03	9.3827000000E-01	0.000E+00	0.0
	51	2	1	2	0	0	-1.3783169025E+02	-3.0596431820E+01	-1.2212266399E+03	1.6170207266E+03	1.0504417204E+03	0.000E+00	0.0
	1000022	2	5	5	0	0	1.3783169025E+02	3.0596431820E+01	-1.0324947433E+03	1.3444367022E+03	8.4942977031E+02	0.000E+00	0.0
	14	1	6	6	0	0	-1.3835590657E+02	1.5551871836E+02	-3.0490490657E+02	4.9185407459E+02	3.2500000000E+02	0.000E+00	0.0
	-14	1	6	6	0	0	2.7618759681E+02	-1.2492228654E+02	-7.2758983674E+02	8.5258262757E+02	3.2500000000E+02	0.000E+00	0.0
	25	2	5	5	0	0	-1.3783169025E+02	-3.0596431820E+01	-1.9976405641E+02	2.7478828451E+02	1.2517670147E+02	0.000E+00	0.0
	-5	1	9	9	0	501	-2.0892750931E+01	3.6408942342E+01	-9.5291280373E+01	1.0421141319E+02	4.1800000000E+00	0.000E+00	0.0
	5	1	9	9	501	0	-1.1693893932E+02	-6.7005374161E+01	-1.0447277604E+02	1.7057687132E+02	4.1800000000E+00	0.000E+00	0.0
</event>
<event>
    11  -1  1.0000000E+00  1.0000000E+00  -1.0000000E+00  -1.0000000E+00
	2212	-1	0	0	0	0	0.0000000000E+00	0.0000000000E+00	6.5000000000E+03	6.5000000000E+03	9.3827000000E-01	0.000E+00	0.0
	2212	-1	0	0	0	0	0.0000000000E+00	0.0000000000E+00	-6.5000000000E+03	6.5000000000E+03	9.3827000000E-01	0.000E+00	0.0
	2212	1	0	0	0	0	0.0000000000E+00	0.0000000000E+00	5.1105083415E+03	5.1105083415E+03	9.3827000000E-01	0.000E+00	0.0
	2212	1	0	0	0	0	0.0000000000E+00	0.0000000000E+00	-6.3005759662E+03	6.3005759662E+03	9.3827000000E-01	0.000E+00	0.0
	51	2	1	2	0	0	-7.2021853357E+01	4.6818436213E+01	1.3829837333E+03	1.7402342502E+03	1.0528020355E+03	0.000E+00	0.0
	1000022	2	5	5	0	0	7.2021853357E+01	-4.6818436213E+01	7.8996690359E+02	1.1609751381E+03	8.4642569031E+02	0.000E+00	0.0
	14	1	6	6	0	0	6.9210045868E+01	1.9071264737E+02	1.6403094304E+02	4.1676431540E+02	3.2500000000E+02	0.000E+00	0.0
	-14	1	6	6	0	0	2.8118074883E+00	-2.3753108358E+02	6.2593596055E+02	7.4421082271E+02	3.2500000000E+02	0.000E+00	0.0
	25	2	5	5	0	0	-7.2021853357E+01	4.6818436213E+01	4.0010072108E+02	4.2794055418E+02	1.2519352049E+02	0.000E+00	0.0
	-5	1	9	9	0	501	-7.5690982308E+01	1.7541009348E+01	3.8808495482E+02	3.9580830761E+02	4.1800000000E+00	0.000E+00	0.0
	5	1	9	9	501	0	3.6691289519E+00	2.9277426865E+01	1.2015766262E+01	3.2132246575E+01	4.1800000000E+00	0.000E+00	0.0
</event>
<event>
    11  -1  1.0000000E+00  1.0000000E+00  -1.0000000E+00  -1.0000000E+00
	2212	-1	0	0	0	0	0.0000000000E+00	0.0000000000E+00	6.5000000000E+03	6.5000000000E+03	9.3827000000E-01	0.000E+00	0.0
	2212	-1	0	0	0	0	0.0000000000E+00	0.0000000000E+00	-6.5000000000E+03	6.5000000000E+03	9.3827000000E-01	0.000E+00	0.0
	2212	1	0	0	0	0	0.0000000000E+00	0.0000000000E+00	4.9072434785E+03	4.9072434785E+03	9.3827000000E-01	0.000E+00	0.0
	2212	1	0	0	0	0	0.0000000000E+00	0.0000000000E+00	-6.3274385053E+03	6.3274385053E+03	9.3827000000E-01	0.000E+00	0.0
	51	2	1	2	0	0	-1.1189651482E+02	8.9742958162E+01	1.3958563207E+03	1.7516801309E+03	1.0485198064E+03	0.000E+00	0.0
	1000022	2	5	5	0	0	1.1189651482E+02	-8.9742958162E+01	1.1984304365E+03	1.4730468012E+03	8.4442687009E+02	0.000E+00	0.0
	14	1	6	6	0	0	2.2276486805E+02	1.6526840093E+02	5.5496407791E+02	7.0039128961E+02	3.2500000000E+02	0.000E+00	0.0
	-14	1	6	6	0	0	-1.1086835323E+02	-2.5501135909E+02	6.4346635858E+02	7.7265551162E+02	3.2500000000E+02	0.000E+00	0.0
	25	2	5	5	0	0	-1.1189651482E+02	8.9742958162E+01	2.2176459030E+02	2.9227121501E+02	1.2517308436E+02	0.000E+00	0.0
	-5	1	9	9	0	501	-4.7023840925E+01	-1.2241326089E+01	1.2137269401E+01	5.0258107687E+01	4.1800000000E+00	0.000E+00	0.0
	5	1	9	9	501	0	-6.4872673893E+01	1.0198428425E+02	2.0962732090E+02	2.4201310733E+02	4.1800000000E+00	0.000E+00	0.0
</event>
<event>
    11  -1  1.0000000E+00  1.0000000E+00  -1.0000000E+00  -1.0000000E+00
	2212	-1	0	0	0	0	0.0000000000E+00	0.0000000000E+00	6.5000000000E+03	6.5000000000E+03	9.3827000000E-01	0.000E+00	0.0
	2212	-1	0	0	0	0	0.0000000000E+00	0.0000000000E+00	-6.5000000000E+03	6.5000000000E+03	9.3827000000E-01	0.000E+00	0.0
	2212	1	0	0	0	0	0.0000000000E+00	0.0000000000E+00	6.0835688431E+03	6.0835688431E+03	9.3827000000E-01	0.000E+00	0.0
	2212	1	0	0	0	0	0.0000000000E+00	0.0000000000E+00	-5.8341202860E+03	5.8341202860E+03	9.3827000000E-01	0.000E+00	0.0
	51	2	1	2	0	0	2.3311267076E+01	-1.1868271561E+02	-1.6145253508E+02	1.0723190579E+03	1.0531724639E+03	0.000E+00	0.0
	1000022	2	5	5	0	0	-2.3311267076E+01	1.1868271561E+02	-2.9374384476E+02	9.0269332919E+02	8.4495017491E+02	0.000E+00	0.0
	14	1	6	6	0	0	-2.2969378394E+02	-2.6557857858E+01	-2.8660567896E+02	4.9115411981E+02	3.2500000000E+02	0.000E+00	0.0
	-14	1	6	6	0	0	2.0638251686E+02	1.4524057347E+02	-7.1381658007E+00	4.1153920938E+02	3.2500000000E+02	0.000E+00	0.0
	25	2	5	5	0	0	2.3311267076E+01	-1.1868271561E+02	4.4295287608E+01	1.7961754174E+02	1.2518540905E+02	0.000E+00	0.0
	-5	1	9	9	0	501	2.0409014290E+01	2.3712967813E+01	7.0085280189E+00	3.2333026022E+01	4.1800000000E+00	0.000E+00	0.0
	5	1	9	9	501	0	2.9022527861E+00	-1.4239568342E+02	3.7286759589E+01	1.4728451572E+02	4.1800000000E+00	0.000E+00	0.0
</event>
<event>
    11  -1  1.0000000E+00  1.0000000E+00  -1.0000000E+00  -1.0000000E+00
	2212	-1	0	0	0	0	0.0000000000E+00	0.0000000000E+00	6.5000000000E+03	6.5000000000E+03	9.3827000000E-01	0.000E+00	0.0
	2212	-1	0	0	0	0	0.0000000000E+00	0.0000000000E+00	-6.5000000000E+03	6.5000000000E+03	9.3827000000E-01	0.000E+00	0.0
	2212	1	0	0	0	0	0.0000000000E+00	0.0000000000E+00	5.1904759662E+03	5.1904759662E+03	9.3827000000E-01	0.000E+00	0.0
	2212	1	0	0	0	0	0.0000000000E+00	0.0000000000E+00	-6.2893568369E+03	6.2893568369E+03	9.3827000000E-01	0.000E+00	0.0
	51	2	1	2	0	0	-1.1009998376E+02	2.2721108825E+01	8.6656073371E+02	1.3663582615E+03	1.0504137939E+03	0.000E+00	0.0
	1000022	2	5	5	0	0	1.1009998376E+02	-2.2721108825E+01	1.0983958080E+03	1.3519186305E+03	7.8011049042E+02	0.000E+00	0.0
	14	1	6	6	0	0	1.3322992973E+02	1.8736018914E+02	6.0910736898E+02	7.2766121348E+02	3.2500000000E+02	0.000E+00	0.0
	-14	1	6	6	0	0	-2.3129945971E+01	-2.1008129797E+02	4.8928843901E+02	6.2425741702E+02	3.2500000000E+02	0.000E+00	0.0
	25	2	5	5	0	0	-1.1009998376E+02	2.2721108825E+01	4.8506274798E-01	1.6824856640E+02	1.2517623417E+02	0.000E+00	0.0
	-5	1	9	9	0	501	-1.2433343801E+02	-1.4789844921E+01	1.3153219631E+01	1.2596834089E+02	4.1800000000E+00	0.000E+00	0.0
	5	1	9	9	501	0	1.4233454248E+01	3.7510953747E+01	-1.2668156883E+01	4.2280225515E+01	4.1800000000E+00	0.000E+00	0.0
</event>
<event>
    11  -1  1.0000000E+00  1.0000000E+00  -1.0000000E+00  -1.0000000E+00
	2212	-1	0	0	0	0	0.0000000000E+00	0.0000000000E+00	6.5000000000E+03	6.5000000000E+03	9.3827000000E-01	0.000E+00	0.0
	2212	-1	0	0	0	0	0.0000000000E+00	0.0000000000E+00	-6.5000000000E+03	6.5000000000E+03	9.3827000000E-01	0.000E+00	0.0
	2212	1	0	0	0	0	0.0000000000E+00	0.0000000000E+00	5.6851487556E+03	5.6851487556E+03	9.3827000000E-01	0.000E+00	0.0
	2212	1	0	0	0	0	0.0000000000E+00	0.0000000000E+00	-6.1664187247E+03	6.1664187247E+03	9.3827000000E-01	0.000E+00	0.0
	51	2	1	2	0	0	4.4937100008E+01	3.3490695491E+01	5.7375356691E+02	1.1914741265E+03	1.0427255003E+03	0.000E+00	0.0
	1000022	2	5	5	0	0	-4.4937100008E+01	-3.3490695491E+01	3.1721290193E+02	9.3459841560E+02	8.7733072649E+02	0.000E+00	0.0
	14	1	6	6	0	0	3.7036074469E+01	2.6943331922E+02	1.1161663321E+02	4.3823424915E+02	3.2500000000E+02	0.000E+00	0.0
	-14	1	6	6	0	0	-8.1973174477E+01	-3.0292401471E+02	2.0559626871E+02	4.9636416645E+02	3.2500000000E+02	0.000E+00	0.0
	25	2	5	5	0	0	4.4937100008E+01	3.3490695491E+01	1.6405706721E+02	2.1383410407E+02	1.2517720686E+02	0.000E+00	0.0
	-5	1	9	9	0	501	-2.4624751170E+01	-3.2513910353E+01	5.4009135418E+01	6.7808493902E+01	4.1800000000E+00	0.000E+00	0.0
	5	1	9	9	501	0	6.9561851178E+01	6.6004605844E+01	1.1004793180E+02	1.4602561017E+02	4.1800000000E+00	0.000E+00	0.0
</event>
<event>
    11  -1  1.0000000E+00  1.0000000E+00  -1.0000000E+00  -1.0000000E+00
	2212	-1	0	0	0	0	0.0000000000E+00	0.0000000000E+00	6.5000000000E+03	6.5000000000E+03	9.3827000000E-01	0.000E+00	0.0
	2212	-1	0	0	0	0	0.0000000000E+00	0.0000000000E+00	-6.5000000000E+03	6.5000000000E+03	9.3827000000E-01	0.000E+00	0.0
	2212	1	0	0	0	0	0.0000000000E+00	0.0000000000E+00	5.5484248779E+03	5.5484248779E+03	9.3827000000E-01	0.000E+00	0.0
	2212	1	0	0	0	0	0.0000000000E+00	0.0000000000E+00	-6.2019732466E+03	6.2019732466E+03	9.3827000000E-01	0.000E+00	0.0
	51	2	1	2	0	0	-9.1302400214E+01	-2.9374590690E+01	5.1307798137E+02	1.1860975452E+03	1.0650724750E+03	0.000E+00	0.0
	1000022	2	5	5	0	0	9.1302400214E+01	2.9374590690E+01	6.7739041809E+02	1.0901097194E+03	8.4869454281E+02	0.000E+00	0.0
	14	1	6	6	0	0	-1.4526356600E+02	-5.7946707474E+01	8.7807573982E+01	3.7120680835E+02	3.2500000000E+02	0.000E+00	0.0
	-14	1	6	6	0	0	2.3656596622E+02	8.7321298163E+01	5.8958284411E+02	7.1890291108E+02	3.2500000000E+02	0.000E+00	0.0
	25	2	5	5	0	0	-9.1302400214E+01	-2.9374590690E+01	-2.3842049376E+01	1.5949215606E+02	1.2518110745E+02	0.000E+00	0.0
	-5	1	9	9	0	501	-2.6658022186E+01	3.1439202847E+01	3.3894250820E+01	5.3529116013E+01	4.1800000000E+00	0.000E+00	0.0
	5	1	9	9	501	0	-6.4644378028E+01	-6.0813793537E+01	-5.7736300195E+01	1.0596304004E+02	4.1800000000E+00	0.000E+00	0.0
</event>
<event>
    11  -1  1.0000000E+00  1.0000000E+00  -1.0000000E+00  -1.0000000E+00
	2212	-1	0	0	0	0	0.0000000000E+00	0.0000000000E+00	6.5000000000E+03	6.5000000000E+03	9.3827000000E-01	0.000E+00	0.0
	2212	-1	0	0	0	0	0.0000000000E+00	0.0000000000E+00	-6.5000000000E+03	6.5000000000E+03	9.3827000000E-01	0.000E+00	0.0
	2212	1	0	0	0	0	0.0000000000E+00	0.0000000000E+00	5.2432202354E+03	5.2432202354E+03	9.3827000000E-01	0.000E+00	0.0
	2212	1	0	0	0	0	0.0000000000E+00	0.0000000000E+00	-6.2815753289E+03	6.2815753289E+03	9.3827000000E-01	0.000E+00	0.0
	51	2	1	2	0	0	1.2583834267E+02	4.3554485270E+01	1.0178805511E+03	1.4669219219E+03	1.0478772958E+03	0.000E+00	0.0
	1000022	2	5	5	0	0	-1.2583834267E+02	-4.3554485270E+01	8.8513910889E+02	1.2367225841E+03	8.5339277370E+02	0.000E+00	0.0
	14	1	6	6	0	0	7.4205859398E+01	5.7728448492E+01	7.4417341015E+02	8.1747057911E+02	3.2500000000E+02	0.000E+00	0.0
	-14	1	6	6	0	0	-2.0004420207E+02	-1.0128293376E+02	1.4096569875E+02	4.1925200497E+02	3.2500000000E+02	0.000E+00	0.0
	25	2	5	5	0	0	1.2583834267E+02	4.3554485270E+01	1.5321598456E+02	2.3848185162E+02	1.2516458746E+02	0.000E+00	0.0
	-5	1	9	9	0	501	-1.8657279281E+01	3.1865930637E+01	3.9078701169E+01	5.3927255545E+01	4.1800000000E+00	0.000E+00	0.0
	5	1	9	9	501	0	1.4449562195E+02	1.1688554633E+01	1.1413728339E+02	1.8455459607E+02	4.1800000000E+00	0.000E+00	0.0
</event>
<event>
    11  -1  1.0000000E+00  1.0000000E+00  -1.0000000E+00  -1.0000000E+00
	2212	-1	0	0	0	0	0.0000000000E+00	0.0000000000E+00	6.5000000000E+03	6.5000000000E+03	9.3827000000E-01	0.000E+00	0.0
	2212	-1	0	0	0	0	0.0000000000E+00	0.0000000000E+00	-6.5000000000E+03	6.5000000000E+03	9.3827000000E-01	0.000E+00	0.0
	2212	1	0	0	0	0	0.0000000000E+00	0.0000000000E+00	6.3002943705E+03	6.3002943705E+03	9.3827000000E-01	0.000E+00	0.0
	2212	1	0	0	0	0	0.0000000000E+00	0.0000000000E+00	-5.1123561984E+03	5.1123561984E+03	9.3827000000E-01	0.000E+00	0.0
	51	2	1	2	0	0	8.0892553402E+01	-1.1793988809E+02	-1.1697064292E+03	1.5802365863E+03	1.0528442979E+03	0.000E+00	0.0
	1000022	2	5	5	0	0	-8.0892553402E+01	1.1793988809E+02	-1.0017020884E+03	1.3212478141E+03	8.4960890421E+02	0.000E+00	0.0
	14	1	6	6	0	0	4.2523602265E+00	2.6060764089E+02	-2.5063990287E+02	4.8618904345E+02	3.2500000000E+02	0.000E+00	0.0
	-14	1	6	6	0	0	-8.5144913628E+01	-1.4266775280E+02	-7.5106218552E+02	8.3505877070E+02	3.2500000000E+02	0.000E+00	0.0
	25	2	5	5	0	0	8.0892553402E+01	-1.1793988809E+02	-1.8623608375E+02	2.6610161698E+02	1.2519093127E+02	0.000E+00	0.0
	-5	1	9	9	0	501	7.4194564094E+01	-1.1218492007E+02	-7.4251030623E+01	1.5369117600E+02	4.1800000000E+00	0.000E+00	0.0
	5	1	9	9	501	0	6.6979893076E+00	-5.7549680237E+00	-1.1198505313E+02	1.1241044098E+02	4.1800000000E+00	0.000E+00	0.0
</event>
<event>
    11  -1  1.0000000E+00  1.0000000E+00  -1.0000000E+00  -1.0000000E+00
	2212	-1	0	0	0	0	0.0000000000E+00	0.0000000000E+00	6.5000000000E+03	6.5000000000E+03	9.3827000000E-01	0.000E+00	0.0
	2212	-1	0	0	0	0	0.0000000000E+00	0.0000000000E+00	-6.5000000000E+03	6.5000000000E+03	9.3827000000E-01	0.000E+00	0.0
	2212	1	0	0	0	0	0.0000000000E+00	0.0000000000E+00	5.3867748370E+03	5.3867748370E+03	9.3827000000E-01	0.000E+00	0.0
	2212	1	0	0	0	0	0.0000000000E+00	0.0000000000E+00	-6.2701623130E+03	6.2701623130E+03	9.3827000000E-01	0.000E+00	0.0
	51	2	1	2	0	0	6.6905132905E+01	6.1413656284E+00	8.2925873355E+02	1.3098200054E+03	1.0116542820E+03	0.000E+00	0.0
	1000022	2	5	5	0	0	-6.6905132905E+01	-6.1413656284E+00	8.1067733028E+02	1.1834655160E+03	8.5958064225E+02	0.000E+00	0.0
	14	1	6	6	0	0	1.7344635516E+02	-1.3220041186E+02	1.9775953667E+02	4.3851387818E+02	3.2500000000E+02	0.000E+00	0.0
	-14	1	6	6	0	0	-2.4035148807E+02	1.2605904623E+02	6.1291779361E+02	7.4495163781E+02	3.2500000000E+02	0.000E+00	0.0
	25	2	5	5	0	0	6.6905132905E+01	6.1413656284E+00	7.2710145697E+01	1.5959733397E+02	1.2518198969E+02	0.000E+00	0.0
	-5	1	9	9	0	501	7.4349391479E+01	-5.8633747136E+00	-1.0198408419E+01	7.5390258725E+01	4.1800000000E+00	0.000E+00	0.0
	5	1	9	9	501	0	-7.4442585737E+00	1.2004740342E+01	8.2908554116E+01	8.4207075249E+01	4.1800000000E+00	0.000E+00	0.0
</event>
<event>
    11  -1  1.0000000E+00  1.0000000E+00  -1.0000000E+00  -1.0000000E+00
	2212	-1	0	0	0	0	0.0000000000E+00	0.0000000000E+00	6.5000000000E+03	6.5000000000E+03	9.3827000000E-01	0.000E+00	0.0
	2212	-1	0	0	0	0	0.0000000000E+00	0.0000000000E+00	-6.5000000000E+03	6.5000000000E+03	9.3827000000E-01	0.000E+00	0.0
	2212	1	0	0	0	0	0.0000000000E+00	0.0000000000E+00	5.0366208630E+03	5.0366208630E+03	9.3827000000E-01	0.000E+00	0.0
	2212	1	0	0	0	0	0.0000000000E+00	0.0000000000E+00	-6.3106379914E+03	6.3106379914E+03	9.3827000000E-01	0.000E+00	0.0
	51	2	1	2	0	0	1.9970758641E+02	7.9496590685E+01	1.2946874929E+03	1.6825136502E+03	1.0528217565E+03	0.000E+00	0.0
	1000022	2	5	5	0	0	-1.9970758641E+02	-7.9496590685E+01	9.7860518927E+02	1.2665552972E+03	7.7478472906E+02	0.000E+00	0.0
	14	1	6	6	0	0	-1.5075891439E+02	9.9290213537E+01	7.2437994723E+02	8.1421011092E+02	3.2500000000E+02	0.000E+00	0.0
	-14	1	6	6	0	0	-4.8948672023E+01	-1.7878680422E+02	2.5422524204E+02	4.5234518628E+02	3.2500000000E+02	0.000E+00	0.0
	25	2	5	5	0	0	1.9970758641E+02	7.9496590685E+01	2.9541193912E+02	3.8618584841E+02	1.2517375019E+02	0.000E+00	0.0
	-5	1	9	9	0	501	1.1946272681E+02	4.3414491981E+01	2.6334866772E+02	2.9244855000E+02	4.1800000000E+00	0.000E+00	0.0
	5	1	9	9	501	0	8.0244859607E+01	3.6082098705E+01	3.2063271406E+01	9.3737298412E+01	4.1800000000E+00	0.000E+00	0.0
</event>
<event>
    11  -1  1.0000000E+00  1.0000000E+00  -1.0000000E+00  -1.0000000E+00
	2212	-1	0	0	0	0	0.0000000000E+00	0.0000000000E+00	6.5000000000E+03	6.5000000000E+03	9.3827000000E-01	0.000E+00	0.0
	2212	-1	0	0	0	0	0.0000000000E+00	0.0000000000E+00	-6.5000000000E+03	6.5000000000E+03	9.3827000000E-01	0.000E+00	0.0
	2212	1	0	0	0	0	0.0000000000E+00	0.0000000000E+00	5.4644711809E+03	5.4644711809E+03	9.3827000000E-01	0.000E+00	0.0
	2212	1	0	0	0	0	0.0000000000E+00	0.0000000000E+00	-6.2367341925E+03	6.2367341925E+03	9.3827000000E-01	0.000E+00	0.0
	51	2	1	2	0	0	5.3036605053E+01	-8.5028349161E+01	8.8632818350E+02	1.3733527127E+03	1.0442592221E+03	0.000E+00	0.0
	1000022	2	5	5	0	0	-5.3036605053E+01	8.5028349161E+01	5.2957294307E+02	1.0079147406E+03	8.5170530148E+02	0.000E+00	0.0
	14	1	6	6	0	0	2.3992652585E+02	-1.8160874140E+01	2.9727423074E+02	5.0188795903E+02	3.2500000000E+02	0.000E+00	0.0
	-14	1	6	6	0	0	-2.9296313090E+02	1.0318922330E+02	2.3229871233E+02	5.0602678153E+02	3.2500000000E+02	0.000E+00	0.0
	25	2	5	5	0	0	5.3036605053E+01	-8.5028349161E+01	2.4269006859E+02	2.9087988606E+02	1.2517961930E+02	0.000E+00	0.0
	-5	1	9	9	0	501	-1.2785340805E+01	-3.7151621205E+00	1.5119036084E+02	1.5183301676E+02	4.1800000000E+00	0.000E+00	0.0
	5	1	9	9	501	0	6.5821945858E+01	-8.1313187040E+01	9.1499707751E+01	1.3904686930E+02	4.1800000000E+00	0.000E+00	0.0
</event>
<event>
    11  -1  1.0000000E+00  1.0000000E+00  -1.0000000E+00  -1.0000000E+00
	2212	-1	0	0	0	0	0.0000000000E+00	0.0000000000E+00	6.5000000000E+03	6.5000000000E+03	9.3827000000E-01	0.000E+00	0.0
	2212	-1	0	0	0	0	0.0000000000E+00	0.0000000000E+00	-6.5000000000E+03	6.5000000000E+03	9.3827000000E-01	0.000E+00	0.0
	2212	1	0	0	0	0	0.0000000000E+00	0.0000000000E+00	6.2749034632E+03	6.2749034632E+03	9.3827000000E-01	0.000E+00	0.0
	2212	1	0	0	0	0	0.0000000000E+00	0.0000000000E+00	-5.2693805024E+03	5.2693805024E+03	9.3827000000E-01	0.000E+00	0.0
	51	2	1	2	0	0	3.3407435236E+01	-6.1430760208E+01	-8.4028884428E+02	1.3487060040E+03	1.0526313449E+03	0.000E+00	0.0
	1000022	2	5	5	0	0	-3.3407435236E+01	6.1430760208E+01	-9.9764242467E+02	1.3121044626E+03	8.4937501626E+02	0.000E+00	0.0
	14	1	6	6	0	0	1.2709594672E+01	1.5778124105E+01	-9.1403381345E+02	9.7030577404E+02	3.2500000000E+02	0.000E+00	0.0
	-14	1	6	6	0	0	-4.6117029909E+01	4.5652636103E+01	-8.3608611216E+01	3.4179868856E+02	3.2500000000E+02	0.000E+00	0.0
	25	2	5	5	0	0	3.3407435236E+01	-6.1430760208E+01	-7.8805361293E+00	1.4361157189E+02	1.2518939932E+02	0.000E+00	0.0
	-5	1	9	9	0	501	-2.3274503269E+01	-5.1186176740E+01	-4.7376411057E+01	7.3645936184E+01	4.1800000000E+00	0.000E+00	0.0
	5	1	9	9	501	0	5.6681938505E+01	-1.0244583467E+01	3.9495874928E+01	6.9965635704E+01	4.1800000000E+00	0.000E+00	0.0
</event>
<event>
    11  -1  1.0000000E+00  1.0000000E+00  -1.0000000E+00  -1.0000000E+00
	2212	-1	0	0	0	0	0.0000000000E+00	0.0000000000E+00	6.5000000000E+03	6.5000000000E+03	9.3827000000E-01	0.000E+00	0.0
	2212	-1	0	0	0	0	0.0000000000E+00	0.0000000000E+00	-6.5000000000E+03	6.5000000000E+03	9.3827000000E-01	0.000E+00	0.0
	2212	1	0	0	0	0	0.0000000000E+00	0.0000000000E+00	6.1187246886E+03	6.1187246886E+03	9.3827000000E-01	0.000E+00	0.0
	2212	1	0	0	0	0	0.0000000000E+00	0.0000000000E+00	-5.7747731013E+03	5.7747731013E+03	9.3827000000E-01	0.000E+00	0.0
	51	2	1	2	0	0	5.3968126582E+01	-4.8591194032E+00	-2.0925345767E+02	1.0736701662E+03	1.0516864773E+03	0.000E+00	0.0
	1000022	2	5	5	0	0	-5.3968126582E+01	4.8591194032E+00	-4.1991271126E+02	9.5037560672E+02	8.5085306548E+02	0.000E+00	0.0
	14	1	6	6	0	0	-3.2599264032E+00	1.1870145191E+02	-4.8549050455E+02	5.9617672868E+02	3.2500000000E+02	0.000E+00	0.0
	-14	1	6	6	0	0	-5.0708200179E+01	-1.1384233250E+02	6.5577793291E+01	3.5419887804E+02	3.2500000000E+02	0.000E+00	0.0
	25	2	5	5	0	0	5.3968126582E+01	-4.8591194032E+00	7.5961123928E+01	1.5612660335E+02	1.2517689163E+02	0.000E+00	0.0
	-5	1	9	9	0	501	9.6768975485E+00	5.7574622698E+01	2.2704817375E+01	6.2781053328E+01	4.1800000000E+00	0.000E+00	0.0
	5	1	9	9	501	0	4.4291229034E+01	-6.2433742101E+01	5.3256306553E+01	9.3345550026E+01	4.1800000000E+00	0.000E+00	0.0
</event>
<event>
    11  -1  1.0000000E+00  1.0000000E+00  -1.0000000E+00  -1.0000000E+00
	2212	-1	0	0	0	0	0.0000000000E+00	0.0000000000E+00	6.5000000000E+03	6.5000000000E+03	9.3827000000E-01	0.000E+00	0.0
	2212	-1	0	0	0	0	0.0000000000E+00	0.0000000000E+00	-6.5000000000E+03	6.5000000000E+03	9.3827000000E-01	0.000E+00	0.0
	2212	1	0	0	0	0	0.0000000000E+00	0.0000000000E+00	6.2857747571E+03	6.2857747571E+03	9.3827000000E-01	0.000E+00	0.0
	2212	1	0	0	0	0	0.0000000000E+00	0.0000000000E+00	-5.2055353619E+03	5.2055353619E+03	9.3827000000E-01	0.000E+00	0.0
	51	2	1	2	0	0	1.5629234923E+01	5.1031776289E+01	-1.3081193621E+03	1.6802537865E+03	1.0531989395E+03	0.000E+00	0.0
	1000022	2	5	5	0	0	-1.5629234923E+01	-5.1031776289E+01	-6.5668669522E+02	1.0638444478E+03	8.3527185892E+02	0.000E+00	0.0
	14	1	6	6	0	0	9.2043633435E+01	-1.3081867351E+02	-5.4153933160E+01	3.6625565425E+02	3.2500000000E+02	0.000E+00	0.0
	-14	1	6	6	0	0	-1.0767286836E+02	7.9786897225E+01	-6.0253276206E+02	6.9758879356E+02	3.2500000000E+02	0.000E+00	0.0
	25	2	5	5	0	0	1.5629234923E+01	5.1031776289E+01	-4.2355269992E+02	4.4484543315E+02	1.2506819983E+02	0.000E+00	0.0
	-5	1	9	9	0	501	2.9435846336E+00	-2.0505026142E+01	-7.4201987326E+00	2.2397601140E+01	4.1800000000E+00	0.000E+00	0.0
	5	1	9	9	501	0	1.2685650289E+01	7.1536802431E+01	-4.1613250119E+02	4.2244783201E+02	4.1800000000E+00	0.000E+00	0.0
</event>
<event>
    11  -1  1.0000000E+00  1.0000000E+00  -1.0000000E+00  -1.0000000E+00
	2212	-1	0	0	0	0	0.0000000000E+00	0.0000000000E+00	6.5000000000E+03	6.5000000000E+03	9.3827000000E-01	0.000E+00	0.0
	2212	-1	0	0	0	0	0.0000000000E+00	0.0000000000E+00	-6.5000000000E+03	6.5000000000E+03	9.3827000000E-01	0.000E+00	0.0
	2212	1	0	0	0	0	0.0000000000E+00	0.0000000000E+00	6.2867699913E+03	6.2867699913E+03	9.3827000000E-01	0.000E+00	0.0
	2212	1	0	0	0	0	0.0000000000E+00	0.0000000000E+00	-5.2065247896E+03	5.2065247896E+03	9.3827000000E-01	0.000E+00	0.0
	51	2	1	2	0	0	3.5641267245E+01	8.0190821286E+00	-9.4746977025E+02	1.4150139549E+03	1.0503480002E+03	0.000E+00	0.0
	1000022	2	5	5	0	0	-3.5641267245E+01	-8.0190821286E+00	-1.0515567421E+03	1.3731897553E+03	8.8235135660E+02	0.000E+00	0.0
	14	1	6	6	0	0	-1.4039870009E+02	7.8856179956E+00	-1.0892656578E+02	3.7049153120E+02	3.2500000000E+02	0.000E+00	0.0
	-14	1	6	6	0	0	1.0475743284E+02	-1.5904700124E+01	-9.4263017633E+02	1.0026982241E+03	3.2500000000E+02	0.000E+00	0.0
	25	2	5	5	0	0	3.5641267245E+01	8.0190821286E+00	-2.8688459598E+01	1.3351546385E+02	1.2517486075E+02	0.000E+00	0.0
	-5	1	9	9	0	501	-1.5554456225E+01	-4.9125068569E+01	-2.2648293958E+01	5.6441395177E+01	4.1800000000E+00	0.000E+00	0.0
	5	1	9	9	501	0	5.1195723470E+01	5.7144150697E+01	-6.0401656400E+00	7.7074068671E+01	4.1800000000E+00	0.000E+00	0.0
</event>
<event>
    11  -1  1.0000000E+00  1.0000000E+00  -1.0000000E+00  -1.0000000E+00
	2212	-1	0	0	0	0	0.0000000000E+00	0.0000000000E+00	6.5000000000E+03	6.5000000000E+03	9.3827000000E-01	0.000E+00	0.0
	2212	-1	0	0	0	0	0.0000000000E+00	0.0000000000E+00	-6.5000000000E+03	6.5000000000E+03	9.3827000000E-01	0.000E+00	0.0
	2212	1	0	0	0	0	0.0000000000E+00	0.0000000000E+00	5.7377024597E+03	5.7377024597E+03	9.3827000000E-01	0.000E+00	0.0
	2212	1	0	0	0	0	0.0000000000E+00	0.0000000000E+00	-6.1350661310E+03	6.1350661310E+03	9.3827000000E-01	0.000E+00	0.0
	51	2	1	2	0	0	-1.2769762132E+02	-2.6244157130E+01	3.6557632641E+02	1.1240081189E+03	1.0548709697E+03	0.000E+00	0.0
	1000022	2	5	5	0	0	1.2769762132E+02	2.6244157130E+01	3.6317496751E+02	9.4329548054E+02	8.6076411885E+02	0.000E+00	0.0
	14	1	6	6	0	0	1.0209770538E+01	-1.8543685936E+01	4.7622427750E+02	5.7694251896E+02	3.2500000000E+02	0.000E+00	0.0
	-14	1	6	6	0	0	1.1748785078E+02	4.4787843066E+01	-1.1304930999E+02	3.6635296158E+02	3.2500000000E+02	0.000E+00	0.0
	25	2	5	5	0	0	-1.2769762132E+02	-2.6244157130E+01	3.4188703827E+01	1.8393592873E+02	1.2517236171E+02	0.000E+00	0.0
	-5	1	9	9	0	501	-5.1866897238E+01	2.9947925300E+01	-3.2524355235E+01	6.8281471442E+01	4.1800000000E+00	0.000E+00	0.0
	5	1	9	9	501	0	-7.5830724077E+01	-5.6192082430E+01	6.6713059062E+01	1.1565445729E+02	4.1800000000E+00	0.000E+00	0.0
</event>
<event>
    11  -1  1.0000000E+00  1.0000000E+00  -1.0000000E+00  -1.0000000E+00
	2212	-1	0	0	0	0	0.0000000000E+00	0.0000000000E+00	6.5000000000E+03	6.5000000000E+03	9.3827000000E-01	0.000E+00	0.0
	2212	-1	0	0	0	0	0.0000000000E+00	0.0000000000E+00	-6.5000000000E+03	6.5000000000E+03	9.3827000000E-01	0.000E+00	0.0
	2212	1	0	0	0	0	0.0000000000E+00	0.0000000000E+00	6.3184530633E+03	6.3184530633E+03	9.3827000000E-01	0.000E+00	0.0
	2212	1	0	0	0	0	0.0000000000E+00	0.0000000000E+00	-4.9769242422E+03	4.9769242422E+03	9.3827000000E-01	0.000E+00	0.0
	51	2	1	2	0	0	-4.9503866579E+00	-8.2362381303E+01	-1.5212656520E+03	1.8512418008E+03	1.0516838654E+03	0.000E+00	0.0
	1000022	2	5	5	0	0	4.9503866579E+00	8.2362381303E+01	-9.3950750302E+02	1.2755562972E+03	8.5881397921E+02	0.000E+00	0.0
	14	1	6	6	0	0	1.0303125114E+02	-7.7924091313E+01	-1.1258726949E+02	3.6740780608E+02	3.2500000000E+02	0.000E+00	0.0
	-14	1	6	6	0	0	-9.8080864485E+01	1.6028647262E+02	-8.2692023353E+02	9.0814849111E+02	3.2500000000E+02	0.000E+00	0.0
	25	2	5	5	0	0	-4.9503866579E+00	-8.2362381303E+01	-4.0202131802E+02	4.2906639728E+02	1.2517493740E+02	0.000E+00	0.0
	-5	1	9	9	0	501	-4.6080636401E+01	1.1144235552E+01	-1.3476933649E+02	1.4292608402E+02	4.1800000000E+00	0.000E+00	0.0
	5	1	9	9	501	0	4.1130249744E+01	-9.3506616855E+01	-2.6725198153E+02	2.8614031326E+02	4.1800000000E+00	0.000E+00	0.0
</event>
<event>
    11  -1  1.0000000E+00  1.0000000E+00  -1.0000000E+00  -1.0000000E+00
	2212	-1	0	0	0	0	0.0000000000E+00	0.0000000000E+00	6.5000000000E+03	6.5000000000E+03	9.3827000000E-01	0.000E+00	0.0
	2212	-1	0	0	0	0	0.0000000000E+00	0.0000000000E+00	-6.5000000000E+03	6.5000000000E+03	9.3827000000E-01	0.000E+00	0.0
	2212	1	0	0	0	0	0.0000000000E+00	0.0000000000E+00	5.2662781116E+03	5.2662781116E+03	9.3827000000E-01	0.000E+00	0.0
	2212	1	0	0	0	0	0.0000000000E+00	0.0000000000E+00	-6.2781235929E+03	6.2781235929E+03	9.3827000000E-01	0.000E+00	0.0
	51	2	1	2	0	0	1.5868116755E+01	-5.3356011243E+01	1.2003726471E+03	1.5934014788E+03	1.0463914754E+03	0.000E+00	0.0
	1000022	2	5	5	0	0	-1.5868116755E+01	5.3356011243E+01	6.5044221617E+02	1.0691028362E+03	8.4664463432E+02	0.000E+00	0.0
	14	1	6	6	0	0	6.2129324979E+01	-2.3391608750E+01	6.4595413688E+02	7.2614665691E+02	3.2500000000E+02	0.000E+00	0.0
	-14	1	6	6	0	0	-7.7997441734E+01	7.6747619994E+01	4.4880792867E+00	3.4295617934E+02	3.2500000000E+02	0.000E+00	0.0
	25	2	5	5	0	0	1.5868116755E+01	-5.3356011243E+01	3.6140326518E+02	3.8649545928E+02	1.2517091873E+02	0.000E+00	0.0
	-5	1	9	9	0	501	-4.4362771499E+01	-5.6547660220E+01	1.4626886113E+02	1.6302682450E+02	4.1800000000E+00	0.000E+00	0.0
	5	1	9	9	501	0	6.0230888254E+01	3.1916489765E+00	2.1513440406E+02	2.2346863478E+02	4.1800000000E+00	0.000E+00	0.0
</event>
<event>
    11  -1  1.0000000E+00  1.0000000E+00  -1.0000000E+00  -1.0000000E+00
	2212	-1	0	0	0	0	0.0000000000E+00	0.0000000000E+00	6.5000000000E+03	6.5000000000E+03	9.3827000000E-01	0.000E+00	0.0
	2212	-1	0	0	0	0	0.0000000000E+00	0.0000000000E+00	-6.5000000000E+03	6.5000000000E+03	9.3827000000E-01	0.000E+00	0.0
	2212	1	0	0	0	0	0.0000000000E+00	0.0000000000E+00	5.9484363568E+03	5.9484363568E+03	9.3827000000E-01	0.000E+00	0.0
	2212	1	0	0	0	0	0.0000000000E+00	0.0000000000E+00	-6.0338794982E+03	6.0338794982E+03	9.3827000000E-01	0.000E+00	0.0
	51	2	1	2	0	0	-2.4450399979E+01	-4.0220079453E+01	1.8368677124E+02	1.0316669982E+03	1.0140909666E+03	0.000E+00	0.0
	1000022	2	5	5	0	0	2.4450399979E+01	4.0220079453E+01	-2.6254145322E+01	8.4345936836E+02	8.4173567649E+02	0.000E+00	0.0
	14	1	6	6	0	0	-1.2702209342E+02	-7.0964917612E+01	-2.2246830745E+02	4.1986638300E+02	3.2500000000E+02	0.000E+00	0.0
	-14	1	6	6	0	0	1.5147249340E+02	1.1118499706E+02	1.9621416213E+02	4.2359298536E+02	3.2500000000E+02	0.000E+00	0.0
	25	2	5	5	0	0	-2.4450399979E+01	-4.0220079453E+01	1.1169728673E+02	1.7422477659E+02	1.2514995831E+02	0.000E+00	0.0
	-5	1	9	9	0	501	4.7297223040E+01	-3.6681132013E+01	6.4920298881E+01	8.8400511084E+01	4.1800000000E+00	0.000E+00	0.0
	5	1	9	9	501	0	-7.1747623020E+01	-3.5389474396E+00	4.6776987846E+01	8.5824265507E+01	4.1800000000E+00	0.000E+00	0.0
</event>
<event>
    11  -1  1.0000000E+00  1.0000000E+00  -1.0000000E+00  -1.0000000E+00
	2212	-1	0	0	0	0	0.0000000000E+00	0.0000000000E+00	6.5000000000E+03	6.5000000000E+03	9.3827000000E-01	0.000E+00	0.0
	2212	-1	0	0	0	0	0.0000000000E+00	0.0000000000E+00	-6.5000000000E+03	6.5000000000E+03	9.3827000000E-01	0.000E+00	0.0
	2212	1	0	0	0	0	0.0000000000E+00	0.0000000000E+00	4.9608713252E+03	4.9608713252E+03	9.3827000000E-01	0.000E+00	0.0
	2212	1	0	0	0	0	0.0000000000E+00	0.0000000000E+00	-6.3192489598E+03	6.3192489598E+03	9.3827000000E-01	0.000E+00	0.0
	51	2	1	2	0	0	3.8808639985E+01	3.5538886460E+01	1.1442689631E+03	1.5572145065E+03	1.0548916704E+03	0.000E+00	0.0
	1000022	2	5	5	0	0	-3.8808639985E+01	-3.5538886460E+01	1.3352102131E+03	1.5821230611E+03	8.4708792004E+02	0.000E+00	0.0
	14	1	6	6	0	0	-1.8031316043E+02	-2.0923124945E+02	4.9230878874E+02	6.5137047449E+02	3.2500000000E+02	0.000E+00	0.0
	-14	1	6	6	0	0	1.4150452044E+02	1.7369236299E+02	8.4290142435E+02	9.3075258659E+02	3.2500000000E+02	0.000E+00	0.0
	25	2	5	5	0	0	3.8808639985E+01	3.5538886460E+01	2.3167421460E+01	1.3775665397E+02	1.2518403775E+02	0.000E+00	0.0
	-5	1	9	9	0	501	5.3192785446E-01	-2.6928640882E+01	5.2162951600E+01	5.8854741242E+01	4.1800000000E+00	0.000E+00	0.0
	5	1	9	9	501	0	3.8276712131E+01	6.2467527342E+01	-2.8995530140E+01	7.8901912726E+01	4.1800000000E+00	0.000E+00	0.0
</event>
<event>
    11  -1  1.0000000E+00  1.0000000E+00  -1.0000000E+00  -1.0000000E+00
	2212	-1	0	0	0	0	0.0000000000E+00	0.0000000000E+00	6.5000000000E+03	6.5000000000E+03	9.3827000000E-01	0.000E+00	0.0
	2212	-1	0	0	0	0	0.0000000000E+00	0.0000000000E+00	-6.5000000000E+03	6.5000000000E+03	9.3827000000E-01	0.000E+00	0.0
	2212	1	0	0	0	0	0.0000000000E+00	0.0000000000E+00	5.1673704218E+03	5.1673704218E+03	9.3827000000E-01	0.000E+00	0.0
	2212	1	0	0	0	0	0.0000000000E+00	0.0000000000E+00	-6.2945634630E+03	6.2945634630E+03	9.3827000000E-01	0.000E+00	0.0
	51	2	1	2	0	0	5.7196091817E+01	9.5648235551E+01	1.2781959112E+03	1.6556835410E+03	1.0464622414E+03	0.000E+00	0.0
	1000022	2	5	5	0	0	-5.7196091817E+01	-9.5648235551E+01	7.7955300591E+02	1.1521353218E+03	8.4100709446E+02	0.000E+00	0.0
	14	1	6	6	0	0	1.1560091254E+02	-6.5357405960E+01	7.8506941104E+01	3.5975477939E+02	3.2500000000E+02	0.000E+00	0.0
	-14	1	6	6	0	0	-1.7279700436E+02	-3.0290829592E+01	7.0104606480E+02	7.9238054245E+02	3.2500000000E+02	0.000E+00	0.0
	25	2	5	5	0	0	5.7196091817E+01	9.5648235551E+01	3.4764003524E+02	3.8593079337E+02	1.2517589738E+02	0.000E+00	0.0
	-5	1	9	9	0	501	-2.8801855984E+01	3.7985614979E+01	4.3674331902E+01	6.4787140086E+01	4.1800000000E+00	0.000E+00	0.0
	5	1	9	9	501	0	8.5997947800E+01	5.7662620573E+01	3.0396570334E+02	3.2114365328E+02	4.1800000000E+00	0.000E+00	0.0
</event>
<event>
    11  -1  1.0000000E+00  1.0000000E+00  -1.0000000E+00  -1.0000000E+00
	2212	-1	0	0	0	0	0.0000000000E+00	0.0000000000E+00	6.5000000000E+03	6.5000000000E+03	9.3827000000E-01	0.000E+00	0.0
	2212	-1	0	0	0	0	0.0000000000E+00	0.0000000000E+00	-6.5000000000E+03	6.5000000000E+03	9.3827000000E-01	0.000E+00	0.0
	2212	1	0	0	0	0	0.0000000000E+00	0.0000000000E+00	5.5602306868E+03	5.5602306868E+03	9.3827000000E-01	0.000E+00	0.0
	2212	1	0	0	0	0	0.0000000000E+00	0.0000000000E+00	-6.2051244059E+03	6.2051244059E+03	9.3827000000E-01	0.000E+00	0.0
	51	2	1	2	0	0	4.9277942881E+01	6.1901247213E+01	6.0472192654E+02	1.2167205212E+03	1.0528343355E+03	0.000E+00	0.0
	1000022	2	5	5	0	0	-4.9277942881E+01	-6.1901247213E+01	5.9388585422E+02	1.0780064214E+03	8.9617931055E+02	0.000E+00	0.0
	14	1	6	6	0	0	1.3865606752E+01	2.7599273859E+02	2.7989046712E+02	5.1022340243E+02	3.2500000000E+02	0.000E+00	0.0
	-14	1	6	6	0	0	-6.3143549634E+01	-3.3789398580E+02	3.1399538710E+02	5.6778301896E+02	3.2500000000E+02	0.000E+00	0.0
	25	2	5	5	0	0	4.9277942881E+01	6.1901247213E+01	5.1007864892E+01	1.5663848587E+02	1.2519477990E+02	0.000E+00	0.0
	-5	1	9	9	0	501	9.9378511492E-01	4.8548601403E+01	-3.2914618677E+01	5.8811553539E+01	4.1800000000E+00	0.000E+00	0.0
	5	1	9	9	501	0	4.8284157767E+01	1.3352645809E+01	8.3922483569E+01	9.7826932333E+01	4.1800000000E+00	0.000E+00	0.0
</event>
<event>
    11  -1  1.0000000E+00  1.0000000E+00  -1.0000000E+00  -1.0000000E+00
	2212	-1	0	0	0	0	0.0000000000E+00	0.0000000000E+00	6.5000000000E+03	6.5000000000E+03	9.3827000000E-01	0.000E+00	0.0
	2212	-1	0	0	0	0	0.0000000000E+00	0.0000000000E+00	-6.5000000000E+03	6.5000000000E+03	9.3827000000E-01	0.000E+00	0.0
	2212	1	0	0	0	0	0.0000000000E+00	0.0000000000E+00	5.2335399054E+03	5.2335399054E+03	9.3827000000E-01	0.000E+00	0.0
	2212	1	0	0	0	0	0.0000000000E+00	0.0000000000E+00	-6.2666796858E+03	6.2666796858E+03	9.3827000000E-01	0.000E+00	0.0
	51	2	1	2	0	0	6.6286178232E+01	1.4818484851E+02	9.4065115352E+02	1.4467690446E+03	1.0871814333E+03	0.000E+00	0.0
	1000022	2	5	5	0	0	-6.6286178232E+01	-1.4818484851E+02	9.3149149915E+02	1.2709685998E+03	8.4931275859E+02	0.000E+00	0.0
	14	1	6	6	0	0	1.1886946226E+02	-1.9563397842E+02	1.9323375812E+02	4.4200326678E+02	3.2500000000E+02	0.000E+00	0.0
	-14	1	6	6	0	0	-1.8515564049E+02	4.7449129912E+01	7.3825774103E+02	8.2896533300E+02	3.2500000000E+02	0.000E+00	0.0
	25	2	5	5	0	0	6.6286178232E+01	1.4818484851E+02	1.0164828125E+02	2.2881180908E+02	1.2517932793E+02	0.000E+00	0.0
	-5	1	9	9	0	501	4.4557311764E+01	1.0642874721E+02	-1.3792094956E+00	1.1546344393E+02	4.1800000000E+00	0.000E+00	0.0
	5	1	9	9	501	0	2.1728866468E+01	4.1756101296E+01	1.0302749074E+02	1.1334836515E+02	4.1800000000E+00	0.000E+00	0.0
</event>
<event>
    11  -1  1.0000000E+00  1.0000000E+00  -1.0000000E+00  -1.0000000E+00
	2212	-1	0	0	0	0	0.0000000000E+00	0.0000000000E+00	6.5000000000E+03	6.5000000000E+03	9.3827000000E-01	0.000E+00	0.0
	2212	-1	0	0	0	0	0.0000000000E+00	0.0000000000E+00	-6.5000000000E+03	6.5000000000E+03	9.3827000000E-01	0.000E+00	0.0
	2212	1	0	0	0	0	0.0000000000E+00	0.0000000000E+00	6.2294664426E+03	6.2294664426E+03	9.3827000000E-01	0.000E+00	0.0
	2212	1	0	0	0	0	0.0000000000E+00	0.0000000000E+00	-5.4879207452E+03	5.4879207452E+03	9.3827000000E-01	0.000E+00	0.0
	51	2	1	2	0	0	-1.4450529940E+02	-2.1715647974E+00	-7.3903542065E+02	1.2892887400E+03	1.0465207140E+03	0.000E+00	0.0
	1000022	2	5	5	0	0	1.4450529940E+02	2.1715647974E+00	-6.1552130450E+02	1.0536171883E+03	8.4282632014E+02	0.000E+00	0.0
	14	1	6	6	0	0	-9.0085766571E+01	1.9637534266E+02	-1.7681268857E+02	4.2844655137E+02	3.2500000000E+02	0.000E+00	0.0
	-14	1	6	6	0	0	2.3459106597E+02	-1.9420377786E+02	-4.3870861593E+02	6.2517063691E+02	3.2500000000E+02	0.000E+00	0.0
	25	2	5	5	0	0	-1.4450529940E+02	-2.1715647974E+00	-1.2602439294E+02	2.2899562397E+02	1.2518127229E+02	0.000E+00	0.0
	-5	1	9	9	0	501	-1.0183679354E+02	-5.9531482390E+00	-6.8936679502E+00	1.0232872299E+02	4.1800000000E+00	0.000E+00	0.0
	5	1	9	9	501	0	-4.2668505862E+01	3.7815834416E+00	-1.1913072499E+02	1.2666690098E+02	4.1800000000E+00	0.000E+00	0.0
</event>
<event>
    11  -1  1.0000000E+00  1.0000000E+00  -1.0000000E+00  -1.0000000E+00
	2212	-1	0	0	0	0	0.0000000000E+00	0.0000000000E+00	6.5000000000E+03	6.5000000000E+03	9.3827000000E-01	0.000E+00	0.0
	2212	-1	0	0	0	0	0.0000000000E+00	0.0000000000E+00	-6.5000000000E+03	6.5000000000E+03	9.3827000000E-01	0.000E+00	0.0
	2212	1	0	0	0	0	0.0000000000E+00	0.0000000000E+00	6.1072536797E+03	6.1072536797E+03	9.3827000000E-01	0.000E+00	0.0
	2212	1	0	0	0	0	0.0000000000E+00	0.0000000000E+00	-5.7945227504E+03	5.7945227504E+03	9.3827000000E-01	0.000E+00	0.0
	51	2	1	2	0	0	-1.2360806272E+02	2.0626987660E+01	-3.8666536564E+02	1.1284985184E+03	1.0527556104E+03	0.000E+00	0.0
	1000022	2	5	5	0	0	1.2360806272E+02	-2.0626987660E+01	-1.8527494606E+02	8.7999591540E+02	8.5109434241E+02	0.000E+00	0.0
	14	1	6	6	0	0	-1.5608651842E+02	1.6065916461E+02	-8.1601622688E+01	4.0306102916E+02	3.2500000000E+02	0.000E+00	0.0
	-14	1	6	6	0	0	2.7969458115E+02	-1.8128615226E+02	-1.0367332337E+02	4.7693488623E+02	3.2500000000E+02	0.000E+00	0.0
	25	2	5	5	0	0	-1.2360806272E+02	2.0626987660E+01	-1.2745598329E+02	2.1822765448E+02	1.2519527034E+02	0.000E+00	0.0
	-5	1	9	9	0	501	-6.7970471780E+00	-3.7557504329E+01	-6.0081530363E+01	7.1302374943E+01	4.1800000000E+00	0.000E+00	0.0
	5	1	9	9	501	0	-1.1681101555E+02	5.8184491988E+01	-6.7374452926E+01	1.4692527954E+02	4.1800000000E+00	0.000E+00	0.0
</event>
<event>
    11  -1  1.0000000E+00  1.0000000E+00  -1.0000000E+00  -1.0000000E+00
	2212	-1	0	0	0	0	0.0000000000E+00	0.0000000000E+00	6.5000000000E+03	6.5000000000E+03	9.3827000000E-01	0.000E+00	0.0
	2212	-1	0	0	0	0	0.0000000000E+00	0.0000000000E+00	-6.5000000000E+03	6.5000000000E+03	9.3827000000E-01	0.000E+00	0.0
	2212	1	0	0	0	0	0.0000000000E+00	0.0000000000E+00	6.2349188453E+03	6.2349188453E+03	9.3827000000E-01	0.000E+00	0.0
	2212	1	0	0	0	0	0.0000000000E+00	0.0000000000E+00	-5.4668802102E+03	5.4668802102E+03	9.3827000000E-01	0.000E+00	0.0
	51	2	1	2	0	0	-7.4126515494E+01	1.0586811094E+01	-8.9951580845E+02	1.3820918412E+03	1.0466338171E+03	0.000E+00	0.0
	1000022	2	5	5	0	0	7.4126515494E+01	-1.0586811094E+01	-5.1171090565E+02	1.0032775520E+03	8.5971563582E+02	0.000E+00	0.0
	14	1	6	6	0	0	-8.2657046477E+01	-1.1314692927E+02	-5.1886477574E+02	6.2807648455E+02	3.2500000000E+02	0.000E+00	0.0
	-14	1	6	6	0	0	1.5678356197E+02	1.0256011817E+02	7.1538700901E+00	3.7520106743E+02	3.2500000000E+02	0.000E+00	0.0
	25	2	5	5	0	0	-7.4126515494E+01	1.0586811094E+01	-2.5632772949E+02	2.9492339247E+02	1.2517620242E+02	0.000E+00	0.0
	-5	1	9	9	0	501	-6.6692784114E+01	-2.8928252304E+01	-2.4088341525E+02	2.5164869040E+02	4.1800000000E+00	0.000E+00	0.0
	5	1	9	9	501	0	-7.4337313806E+00	3.9515063397E+01	-1.5444314239E+01	4.3274702077E+01	4.1800000000E+00	0.000E+00	0.0
</event>
<event>
    11  -1  1.0000000E+00  1.0000000E+00  -1.0000000E+00  -1.0000000E+00
	2212	-1	0	0	0	0	0.0000000000E+00	0.0000000000E+00	6.5000000000E+03	6.5000000000E+03	9.3827000000E-01	0.000E+00	0.0
	2212	-1	0	0	0	0	0.0000000000E+00	0.0000000000E+00	-6.5000000000E+03	6.5000000000E+03	9.3827000000E-01	0.000E+00	0.0
	2212	1	0	0	0	0	0.0000000000E+00	0.0000000000E+00	5.7356534909E+03	5.7356534909E+03	9.3827000000E-01	0.000E+00	0.0
	2212	1	0	0	0	0	0.0000000000E+00	0.0000000000E+00	-6.1371933310E+03	6.1371933310E+03	9.3827000000E-01	0.000E+00	0.0
	51	2	1	2	0	0	1.2112006696E+02	-2.9953726823E+01	3.4487032914E+02	1.1152322108E+03	1.0532046543E+03	0.000E+00	0.0
	1000022	2	5	5	0	0	-1.2112006696E+02	2.9953726823E+01	3.9088801026E+02	9.5009797033E+02	8.5692789678E+02	0.000E+00	0.0
	14	1	6	6	0	0	-4.0493103867E+01	2.2736231639E+02	-1.9826844547E-01	3.9869581599E+02	3.2500000000E+02	0.000E+00	0.0
	-14	1	6	6	0	0	-8.0626963098E+01	-1.9740858957E+02	3.9108627871E+02	5.5140215434E+02	3.2500000000E+02	0.000E+00	0.0
	25	2	5	5	0	0	1.2112006696E+02	-2.9953726823E+01	1.0651829777E+01	1.7705520776E+02	1.2517103797E+02	0.000E+00	0.0
	-5	1	9	9	0	501	4.3409842326E+01	1.3980089062E+01	5.9598262863E+01	7.5161709915E+01	4.1800000000E+00	0.000E+00	0.0
	5	1	9	9	501	0	7.7710224639E+01	-4.3933815885E+01	-4.8946433086E+01	1.0189349785E+02	4.1800000000E+00	0.000E+00	0.0
</event>
<event>
    11  -1  1.0000000E+00  1.0000000E+00  -1.0000000E+00  -1.0000000E+00
	2212	-1	0	0	0	0	0.0000000000E+00	0.0000000000E+00	6.5000000000E+03	6.5000000000E+03	9.3827000000E-01	0.000E+00	0.0
	2212	-1	0	0	0	0	0.0000000000E+00	0.0000000000E+00	-6.5000000000E+03	6.5000000000E+03	9.3827000000E-01	0.000E+00	0.0
	2212	1	0	0	0	0	0.0000000000E+00	0.0000000000E+00	6.1997644160E+03	6.1997644160E+03	9.3827000000E-01	0.000E+00	0.0
	2212	1	0	0	0	0	0.0000000000E+00	0.0000000000E+00	-5.6589440590E+03	5.6589440590E+03	9.3827000000E-01	0.000E+00	0.0
	51	2	1	2	0	0	6.7790188473E+00	4.2100101125E+01	-4.2087936800E+02	1.0904207915E+03	1.0050172569E+03	0.000E+00	0.0
	1000022	2	5	5	0	0	-6.7790188473E+00	-4.2100101125E+01	-5.7224452703E+02	1.0053654898E+03	8.2551656293E+02	0.000E+00	0.0
	14	1	6	6	0	0	-1.9369272010E+02	1.2359442031E+02	-3.8841627528E+02	5.5613366510E+02	3.2500000000E+02	0.000E+00	0.0
	-14	1	6	6	0	0	1.8691370125E+02	-1.6569452143E+02	-1.8382825175E+02	4.4923182466E+02	3.2500000000E+02	0.000E+00	0.0
	25	2	5	5	0	0	6.7790188473E+00	4.2100101125E+01	3.1424170110E+01	1.3592603525E+02	1.2518001031E+02	0.000E+00	0.0
	-5	1	9	9	0	501	-4.2966266956E+01	-2.2429967629E+01	4.2663669677E-01	4.8650364468E+01	4.1800000000E+00	0.000E+00	0.0
	5	1	9	9	501	0	4.9745285804E+01	6.4530068754E+01	3.0997533413E+01	8.7275670784E+01	4.1800000000E+00	0.000E+00	0.0
</event>
<event>
    11  -1  1.0000000E+00  1.0000000E+00  -1.0000000E+00  -1.0000000E+00
	2212	-1	0	0	0	0	0.0000000000E+00	0.0000000000E+00	6.5000000000E+03	6.5000000000E+03	9.3827000000E-01	0.000E+00	0.0
	2212	-1	0	0	0	0	0.0000000000E+00	0.0000000000E+00	-6.5000000000E+03	6.5000000000E+03	9.3827000000E-01	0.000E+00	0.0
	2212	1	0	0	0	0	0.0000000000E+00	0.0000000000E+00	5.9042393149E+03	5.9042393149E+03	9.3827000000E-01	0.000E+00	0.0
	2212	1	0	0	0	0	0.0000000000E+00	0.0000000000E+00	-6.0304612911E+03	6.0304612911E+03	9.3827000000E-01	0.000E+00	0.0
	51	2	1	2	0	0	-5.2836527411E+01	1.3782531955E+02	1.5929678751E+02	1.0798582293E+03	1.0577952598E+03	0.000E+00	0.0
	1000022	2	5	5	0	0	5.2836527411E+01	-1.3782531955E+02	7.1026352475E+01	8.6404336975E+02	8.4837414195E+02	0.000E+00	0.0
	14	1	6	6	0	0	1.7278896232E+02	-2.6979882892E+02	-8.0755103213E+01	4.6345854214E+02	3.2500000000E+02	0.000E+00	0.0
	-14	1	6	6	0	0	-1.1995243491E+02	1.3197350938E+02	1.5178145569E+02	4.0058482761E+02	3.2500000000E+02	0.000E+00	0.0
	25	2	5	5	0	0	-5.2836527411E+01	1.3782531955E+02	5.5195623768E+01	2.0125602426E+02	1.2517952342E+02	0.000E+00	0.0
	-5	1	9	9	0	501	-3.0209441983E+01	2.4498064981E+01	-3.6631274433E+01	5.3591867288E+01	4.1800000000E+00	0.000E+00	0.0
	5	1	9	9	501	0	-2.2627085428E+01	1.1332725457E+02	9.1826898202E+01	1.4766415698E+02	4.1800000000E+00	0.000E+00	0.0
</event>
<event>
    11  -1  1.0000000E+00  1.0000000E+00  -1.0000000E+00  -1.0000000E+00
	2212	-1	0	0	0	0	0.0000000000E+00	0.0000000000E+00	6.5000000000E+03	6.5000000000E+03	9.3827000000E-01	0.000E+00	0.0
	2212	-1	0	0	0	0	0.0000000000E+00	0.0000000000E+00	-6.5000000000E+03	6.5000000000E+03	9.3827000000E-01	0.000E+00	0.0
	2212	1	0	0	0	0	0.0000000000E+00	0.0000000000E+00	6.2636033474E+03	6.2636033474E+03	9.3827000000E-01	0.000E+00	0.0
	2212	1	0	0	0	0	0.0000000000E+00	0.0000000000E+00	-5.3317583625E+03	5.3317583625E+03	9.3827000000E-01	0.000E+00	0.0
	51	2	1	2	0	0	7.0766517814E+01	3.7262392700E+01	-7.6992405792E+02	1.3053172377E+03	1.0510345618E+03	0.000E+00	0.0
	1000022	2	5	5	0	0	-7.0766517814E+01	-3.7262392700E+01	-9.2930984101E+02	1.2560626452E+03	8.4123730428E+02	0.000E+00	0.0
	14	1	6	6	0	0	-2.7339141958E+02	4.2803105325E+01	-6.4068892540E+02	7.6985860601E+02	3.2500000000E+02	0.000E+00	0.0
	-14	1	6	6	0	0	2.0262490177E+02	-8.0065498025E+01	-2.8862091561E+02	4.8620403919E+02	3.2500000000E+02	0.000E+00	0.0
	25	2	5	5	0	0	7.0766517814E+01	3.7262392700E+01	-2.5351438680E+00	1.4857564489E+02	1.2518749677E+02	0.000E+00	0.0
	-5	1	9	9	0	501	9.3970060380E+01	-4.9667241386E+00	1.8229123292E+01	9.5941721542E+01	4.1800000000E+00	0.000E+00	0.0
	5	1	9	9	501	0	-2.3203542566E+01	4.2229116839E+01	-2.0764267160E+01	5.2633923351E+01	4.1800000000E+00	0.000E+00	0.0
</event>
<event>
    11  -1  1.0000000E+00  1.0000000E+00  -1.0000000E+00  -1.0000000E+00
	2212	-1	0	0	0	0	0.0000000000E+00	0.0000000000E+00	6.5000000000E+03	6.5000000000E+03	9.3827000000E-01	0.000E+00	0.0
	2212	-1	0	0	0	0	0.0000000000E+00	0.0000000000E+00	-6.5000000000E+03	6.5000000000E+03	9.3827000000E-01	0.000E+00	0.0
	2212	1	0	0	0	0	0.0000000000E+00	0.0000000000E+00	6.0707577257E+03	6.0707577257E+03	9.3827000000E-01	0.000E+00	0.0
	2212	1	0	0	0	0	0.0000000000E+00	0.0000000000E+00	-5.8593351859E+03	5.8593351859E+03	9.3827000000E-01	0.000E+00	0.0
	51	2	1	2	0	0	1.2443989820E+02	-7.2615060303E+01	-2.0102118243E+02	1.0775757228E+03	1.0488096526E+03	0.000E+00	0.0
	1000022	2	5	5	0	0	-1.2443989820E+02	7.2615060303E+01	-1.8527463414E+02	8.7728033355E+02	8.4530222898E+02	0.000E+00	0.0
	14	1	6	6	0	0	6.2467418969E+01	9.1997713949E+01	-3.2867291058E+02	4.7541207384E+02	3.2500000000E+02	0.000E+00	0.0
	-14	1	6	6	0	0	-1.8690731717E+02	-1.9382653646E+01	1.4339827644E+02	4.0186825971E+02	3.2500000000E+02	0.000E+00	0.0
	25	2	5	5	0	0	1.2443989820E+02	-7.2615060303E+01	-2.6147905643E+01	1.9262675478E+02	1.2515238089E+02	0.000E+00	0.0
	-5	1	9	9	0	501	-1.6876318483E+01	1.2578256029E+01	-1.6882962159E+01	2.7304385390E+01	4.1800000000E+00	0.000E+00	0.0
	5	1	9	9	501	0	1.4131621668E+02	-8.5193316332E+01	-9.2649434840E+00	1.6532236939E+02	4.1800000000E+00	0.000E+00	0.0
</event>
<event>
    11  -1  1.0000000E+00  1.0000000E+00  -1.0000000E+00  -1.0000000E+00
	2212	-1	0	0	0	0	0.0000000000E+00	0.0000000000E+00	6.5000000000E+03	6.5000000000E+03	9.3827000000E-01	0.000E+00	0.0
	2212	-1	0	0	0	0	0.0000000000E+00	0.0000000000E+00	-6.5000000000E+03	6.5000000000E+03	9.3827000000E-01	0.000E+00	0.0
	2212	1	0	0	0	0	0.0000000000E+00	0.0000000000E+00	6.2994080006E+03	6.2994080006E+03	9.3827000000E-01	0.000E+00	0.0
	2212	1	0	0	0	0	0.0000000000E+00	0.0000000000E+00	-5.1681208133E+03	5.1681208133E+03	9.3827000000E-01	0.000E+00	0.0
	51	2	1	2	0	0	9.6779811987E+01	-7.0058485322E+01	-1.0648871580E+03	1.4889313008E+03	1.0337587900E+03	0.000E+00	0.0
	1000022	2	5	5	0	0	-9.6779811987E+01	7.0058485322E+01	-1.0092167060E+03	1.3207039925E+03	8.4348453031E+02	0.000E+00	0.0
	14	1	6	6	0	0	1.6852967608E+02	-1.2243441294E+02	-5.2595387427E+02	6.5241468028E+02	3.2500000000E+02	0.000E+00	0.0
	-14	1	6	6	0	0	-2.6530948807E+02	1.9249289826E+02	-4.8326283169E+02	6.6828931223E+02	3.2500000000E+02	0.000E+00	0.0
	25	2	5	5	0	0	9.6779811987E+01	-7.0058485322E+01	-1.2207048138E+02	2.1176719354E+02	1.2517834663E+02	0.000E+00	0.0
	-5	1	9	9	0	501	3.1312583320E+01	1.3931871722E+01	1.5416677401E+01	3.7811655160E+01	4.1800000000E+00	0.000E+00	0.0
	5	1	9	9	501	0	6.5467228667E+01	-8.3990357044E+01	-1.3748715878E+02	1.7395553838E+02	4.1800000000E+00	0.000E+00	0.0
</event>
<event>
    11  -1  1.0000000E+00  1.0000000E+00  -1.0000000E+00  -1.0000000E+00
	2212	-1	0	0	0	0	0.0000000000E+00	0.0000000000E+00	6.5000000000E+03	6.5000000000E+03	9.3827000000E-01	0.000E+00	0.0
	2212	-1	0	0	0	0	0.0000000000E+00	0.0000000000E+00	-6.5000000000E+03	6.5000000000E+03	9.3827000000E-01	0.000E+00	0.0
	2212	1	0	0	0	0	0.0000000000E+00	0.0000000000E+00	5.3153954152E+03	5.3153954152E+03	9.3827000000E-01	0.000E+00	0.0
	2212	1	0	0	0	0	0.0000000000E+00	0.0000000000E+00	-6.2687148409E+03	6.2687148409E+03	9.3827000000E-01	0.000E+00	0.0
	51	2	1	2	0	0	-3.8356999261E+01	-1.1689729833E+02	1.1123130928E+03	1.5324172062E+03	1.0468647666E+03	0.000E+00	0.0
	1000022	2	5	5	0	0	3.8356999261E+01	1.1689729833E+02	6.1788929720E+02	1.0373151972E+03	8.2407487340E+02	0.000E+00	0.0
	14	1	6	6	0	0	-1.2698506598E+02	6.5296096045E+01	4.7189697332E+01	3.5810704360E+02	3.2500000000E+02	0.000E+00	0.0
	-14	1	6	6	0	0	1.6534206524E+02	5.1601202285E+01	5.7069959987E+02	6.7920815359E+02	3.2500000000E+02	0.000E+00	0.0
	25	2	5	5	0	0	-3.8356999261E+01	-1.1689729833E+02	3.3543012850E+02	3.7857454675E+02	1.2517619022E+02	0.000E+00	0.0
	-5	1	9	9	0	501	-7.7732302943E+01	-1.0844547726E+02	2.3463516426E+02	2.6995159782E+02	4.1800000000E+00	0.000E+00	0.0
	5	1	9	9	501	0	3.9375303682E+01	-8.4518210707E+00	1.0079496424E+02	1.0862294893E+02	4.1800000000E+00	0.000E+00	0.0
</event>
<event>
    11  -1  1.0000000E+00  1.0000000E+00  -1.0000000E+00  -1.0000000E+00
	2212	-1	0	0	0	0	0.0000000000E+00	0.0000000000E+00	6.5000000000E+03	6.5000000000E+03	9.3827000000E-01	0.000E+00	0.0
	2212	-1	0	0	0	0	0.0000000000E+00	0.0000000000E+00	-6.5000000000E+03	6.5000000000E+03	9.3827000000E-01	0.000E+00	0.0
	2212	1	0	0	0	0	0.0000000000E+00	0.0000000000E+00	5.8116290409E+03	5.8116290409E+03	9.3827000000E-01	0.000E+00	0.0
	2212	1	0	0	0	0	0.0000000000E+00	0.0000000000E+00	-6.0915564136E+03	6.0915564136E+03	9.3827000000E-01	0.000E+00	0.0
	51	2	1	2	0	0	-4.9316720229E+01	1.4842760705E+02	2.5667226563E+02	1.1022641964E+03	1.0604917789E+03	0.000E+00	0.0
	1000022	2	5	5	0	0	4.9316720229E+01	-1.4842760705E+02	2.5298415549E+02	8.9467726207E+02	8.4379116309E+02	0.000E+00	0.0
	14	1	6	6	0	0	9.1504689318E+01	1.7998469410E+02	1.8760867658E+02	4.2613332867E+02	3.2500000000E+02	0.000E+00	0.0
	-14	1	6	6	0	0	-4.2187969088E+01	-3.2841230115E+02	6.5375478915E+01	4.6854393340E+02	3.2500000000E+02	0.000E+00	0.0
	25	2	5	5	0	0	-4.9316720229E+01	1.4842760705E+02	2.6943217206E+01	2.0213728341E+02	1.2518247067E+02	0.000E+00	0.0
	-5	1	9	9	0	501	-5.3339696788E+01	1.4550871363E+02	-1.8589269302E+01	1.5614397948E+02	4.1800000000E+00	0.000E+00	0.0
	5	1	9	9	501	0	4.0229765585E+00	2.9188934253E+00	4.5532486508E+01	4.5993303935E+01	4.1800000000E+00	0.000E+00	0.0
</event>
<event>
    11  -1  1.0000000E+00  1.0000000E+00  -1.0000000E+00  -1.0000000E+00
	2212	-1	0	0	0	0	0.0000000000E+00	0.0000000000E+00	6.5000000000E+03	6.5000000000E+03	9.3827000000E-01	0.000E+00	0.0
	2212	-1	0	0	0	0	0.0000000000E+00	0.0000000000E+00	-6.5000000000E+03	6.5000000000E+03	9.3827000000E-01	0.000E+00	0.0
	2212	1	0	0	0	0	0.0000000000E+00	0.0000000000E+00	4.9372571936E+03	4.9372571936E+03	9.3827000000E-01	0.000E+00	0.0
	2212	1	0	0	0	0	0.0000000000E+00	0.0000000000E+00	-6.3210908155E+03	6.3210908155E+03	9.3827000000E-01	0.000E+00	0.0
	51	2	1	2	0	0	1.4760375231E+02	1.8394511713E+01	1.2928853943E+03	1.6769120529E+03	1.0575236000E+03	0.000E+00	0.0
	1000022	2	5	5	0	0	-1.4760375231E+02	-1.8394511713E+01	1.2227404149E+03	1.4891800480E+03	8.3692166134E+02	0.000E+00	0.0
	14	1	6	6	0	0	-2.0145344900E+02	-5.4425034090E+01	2.4640045282E+02	4.5813072326E+02	3.2500000000E+02	0.000E+00	0.0
	-14	1	6	6	0	0	5.3849696682E+01	3.6030522377E+01	9.7633996210E+02	1.0310493247E+03	3.2500000000E+02	0.000E+00	0.0
	25	2	5	5	0	0	1.4760375231E+02	1.8394511713E+01	1.6109320695E+02	2.5247194295E+02	1.2516323301E+02	0.000E+00	0.0
	-5	1	9	9	0	501	5.6008403313E+01	-4.6486648949E+01	1.0249851815E+02	1.2578302109E+02	4.1800000000E+00	0.000E+00	0.0
	5	1	9	9	501	0	9.1595349001E+01	6.4881160662E+01	5.8594688798E+01	1.2668892186E+02	4.1800000000E+00	0.000E+00	0.0
</event>
<event>
    11  -1  1.0000000E+00  1.0000000E+00  -1.0000000E+00  -1.0000000E+00
	2212	-1	0	0	0	0	0.0000000000E+00	0.0000000000E+00	6.5000000000E+03	6.5000000000E+03	9.3827000000E-01	0.000E+00	0.0
	2212	-1	0	0	0	0	0.0000000000E+00	0.0000000000E+00	-6.5000000000E+03	6.5000000000E+03	9.3827000000E-01	0.000E+00	0.0
	2212	1	0	0	0	0	0.0000000000E+00	0.0000000000E+00	5.9300766534E+03	5.9300766534E+03	9.3827000000E-01	0.000E+00	0.0
	2212	1	0	0	0	0	0.0000000000E+00	0.0000000000E+00	-6.0251484733E+03	6.0251484733E+03	9.3827000000E-01	0.000E+00	0.0
	51	2	1	2	0	0	1.9957399981E+01	7.6504147020E+01	1.9924753421E+02	1.0622931079E+03	1.0404402361E+03	0.000E+00	0.0
	1000022	2	5	5	0	0	-1.9957399981E+01	-7.6504147020E+01	-2.4846506003E+01	8.5425600667E+02	8.5022631913E+02	0.000E+00	0.0
	14	1	6	6	0	0	2.3067765897E+02	-7.3678218141E+01	-1.3862624238E+02	4.2834903671E+02	3.2500000000E+02	0.000E+00	0.0
	-14	1	6	6	0	0	-2.5063505895E+02	-2.8259288786E+00	1.1377973638E+02	4.2590696996E+02	3.2500000000E+02	0.000E+00	0.0
	25	2	5	5	0	0	1.9957399981E+01	7.6504147020E+01	1.1991832585E+02	1.9051886663E+02	1.2516329870E+02	0.000E+00	0.0
	-5	1	9	9	0	501	3.5912038561E+00	-8.9077830257E+00	1.0084557756E+02	1.0138810708E+02	4.1800000000E+00	0.000E+00	0.0
	5	1	9	9	501	0	1.6366196125E+01	8.5411930046E+01	1.9072748282E+01	8.9130759543E+01	4.1800000000E+00	0.000E+00	0.0
</event>
<event>
    11  -1  1.0000000E+00  1.0000000E+00  -1.0000000E+00  -1.0000000E+00
	2212	-1	0	0	0	0	0.0000000000E+00	0.0000000000E+00	6.5000000000E+03	6.5000000000E+03	9.3827000000E-01	0.000E+00	0.0
	2212	-1	0	0	0	0	0.0000000000E+00	0.0000000000E+00	-6.5000000000E+03	6.5000000000E+03	9.3827000000E-01	0.000E+00	0.0
	2212	1	0	0	0	0	0.0000000000E+00	0.0000000000E+00	5.5994074403E+03	5.5994074403E+03	9.3827000000E-01	0.000E+00	0.0
	2212	1	0	0	0	0	0.0000000000E+00	0.0000000000E+00	-6.1966584078E+03	6.1966584078E+03	9.3827000000E-01	0.000E+00	0.0
	51	2	1	2	0	0	1.2359352763E+02	-6.4326396654E+01	5.7974901245E+02	1.2034412685E+03	1.0453462221E+03	0.000E+00	0.0
	1000022	2	5	5	0	0	-1.2359352763E+02	6.4326396654E+01	5.1253036015E+02	9.9836753823E+02	8.4536212710E+02	0.000E+00	0.0
	14	1	6	6	0	0	-6.4657295953E+01	2.9112097094E+02	3.6108171498E+02	5.7003244691E+02	3.2500000000E+02	0.000E+00	0.0
	-14	1	6	6	0	0	-5.8936231680E+01	-2.2679457428E+02	1.5144864517E+02	4.2833509132E+02	3.2500000000E+02	0.000E+00	0.0
	25	2	5	5	0	0	1.2359352763E+02	-6.4326396654E+01	8.4720607369E+01	2.0556661371E+02	1.2516711222E+02	0.000E+00	0.0
	-5	1	9	9	0	501	1.0357267374E+02	-1.6536710813E+01	-1.3961574139E+00	1.0497706038E+02	4.1800000000E+00	0.000E+00	0.0
	5	1	9	9	501	0	2.0020853895E+01	-4.7789685841E+01	8.6116764783E+01	1.0058955333E+02	4.1800000000E+00	0.000E+00	0.0
</event>
<event>
    11  -1  1.0000000E+00  1.0000000E+00  -1.0000000E+00  -1.0000000E+00
	2212	-1	0	0	0	0	0.0000000000E+00	0.0000000000E+00	6.5000000000E+03	6.5000000000E+03	9.3827000000E-01	0.000E+00	0.0
	2212	-1	0	0	0	0	0.0000000000E+00	0.0000000000E+00	-6.5000000000E+03	6.5000000000E+03	9.3827000000E-01	0.000E+00	0.0
	2212	1	0	0	0	0	0.0000000000E+00	0.0000000000E+00	5.8168948370E+03	5.8168948370E+03	9.3827000000E-01	0.000E+00	0.0
	2212	1	0	0	0	0	0.0000000000E+00	0.0000000000E+00	-6.0960068663E+03	6.0960068663E+03	9.3827000000E-01	0.000E+00	0.0
	51	2	1	2	0	0	1.8850642680E+01	7.3528360168E+01	2.8767027062E+02	1.0919684670E+03	1.0506565480E+03	0.000E+00	0.0
	1000022	2	5	5	0	0	-1.8850642680E+01	-7.3528360168E+01	2.3234358154E+02	9.3340526650E+02	9.0083299516E+02	0.000E+00	0.0
	14	1	6	6	0	0	-1.8656831649E+02	1.5589846828E+02	2.8860314400E+02	4.9802494301E+02	3.2500000000E+02	0.000E+00	0.0
	-14	1	6	6	0	0	1.6771767381E+02	-2.2942682845E+02	-5.6259562459E+01	4.3538032350E+02	3.2500000000E+02	0.000E+00	0.0
	25	2	5	5	0	0	1.8850642680E+01	7.3528360168E+01	4.6768447813E+01	1.5369303023E+02	1.2518982926E+02	0.000E+00	0.0
	-5	1	9	9	0	501	1.7847729316E+01	2.6521330496E+01	-4.2123753776E+01	5.3045315017E+01	4.1800000000E+00	0.000E+00	0.0
	5	1	9	9	501	0	1.0029133640E+00	4.7007029672E+01	8.8892201589E+01	1.0064771521E+02	4.1800000000E+00	0.000E+00	0.0
</event>
<event>
    11  -1  1.0000000E+00  1.0000000E+00  -1.0000000E+00  -1.0000000E+00
	2212	-1	0	0	0	0	0.0000000000E+00	0.0000000000E+00	6.5000000000E+03	6.5000000000E+03	9.3827000000E-01	0.000E+00	0.0
	2212	-1	0	0	0	0	0.0000000000E+00	0.0000000000E+00	-6.5000000000E+03	6.5000000000E+03	9.3827000000E-01	0.000E+00	0.0
	2212	1	0	0	0	0	0.0000000000E+00	0.0000000000E+00	6.3054976695E+03	6.3054976695E+03	9.3827000000E-01	0.000E+00	0.0
	2212	1	0	0	0	0	0.0000000000E+00	0.0000000000E+00	-5.1151520080E+03	5.1151520080E+03	9.3827000000E-01	0.000E+00	0.0
	51	2	1	2	0	0	-1.8064617191E+01	-1.0904251284E+02	-1.1363160794E+03	1.5430020997E+03	1.0379906779E+03	0.000E+00	0.0
	1000022	2	5	5	0	0	1.8064617191E+01	1.0904251284E+02	-1.0549391379E+03	1.3643547682E+03	8.5810882112E+02	0.000E+00	0.0
	14	1	6	6	0	0	9.7805789062E+00	3.1295141562E+02	-7.4517713629E+02	8.7117633847E+02	3.2500000000E+02	0.000E+00	0.0
	-14	1	6	6	0	0	8.2840382847E+00	-2.0390890277E+02	-3.0976200158E+02	4.9317842972E+02	3.2500000000E+02	0.000E+00	0.0
	25	2	5	5	0	0	-1.8064617191E+01	-1.0904251284E+02	-1.3540652361E+02	2.1499555434E+02	1.2518610845E+02	0.000E+00	0.0
	-5	1	9	9	0	501	-1.2337163474E+01	2.1411703374E+01	-5.7891709958E+01	6.3083984701E+01	4.1800000000E+00	0.000E+00	0.0
	5	1	9	9	501	0	-5.7274537167E+00	-1.3045421622E+02	-7.7514813656E+01	1.5191156964E+02	4.1800000000E+00	0.000E+00	0.0
</event>
<event>
    11  -1  1.0000000E+00  1.0000000E+00  -1.0000000E+00  -1.0000000E+00
	2212	-1	0	0	0	0	0.0000000000E+00	0.0000000000E+00	6.5000000000E+03	6.5000000000E+03	9.3827000000E-01	0.000E+00	0.0
	2212	-1	0	0	0	0	0.0000000000E+00	0.0000000000E+00	-6.5000000000E+03	6.5000000000E+03	9.3827000000E-01	0.000E+00	0.0
	2212	1	0	0	0	0	0.0000000000E+00	0.0000000000E+00	5.8816347016E+03	5.8816347016E+03	9.3827000000E-01	0.000E+00	0.0
	2212	1	0	0	0	0	0.0000000000E+00	0.0000000000E+00	-6.0550329457E+03	6.0550329457E+03	9.3827000000E-01	0.000E+00	0.0
	51	2	1	2	0	0	-3.8366508799E+01	1.2362148821E+02	1.6902754218E+02	1.0704827474E+03	1.0490990140E+03	0.000E+00	0.0
	1000022	2	5	5	0	0	3.8366508799E+01	-1.2362148821E+02	1.4930951631E+02	8.8165981854E+02	8.5923014532E+02	0.000E+00	0.0
	14	1	6	6	0	0	-1.4458313609E+02	1.6876019381E+02	4.3669134706E+01	3.9612659540E+02	3.2500000000E+02	0.000E+00	0.0
	-14	1	6	6	0	0	1.8294964489E+02	-2.9238168202E+02	1.0564038161E+02	4.8553322314E+02	3.2500000000E+02	0.000E+00	0.0
	25	2	5	5	0	0	-3.8366508799E+01	1.2362148821E+02	2.4088727880E+01	1.8167253416E+02	1.2518139443E+02	0.000E+00	0.0
	-5	1	9	9	0	501	1.5304618288E+01	9.3571287648E+01	-3.0125692529E+01	9.9573324558E+01	4.1800000000E+00	0.000E+00	0.0
	5	1	9	9	501	0	-5.3671127087E+01	3.0050200557E+01	5.4214420409E+01	8.2099209598E+01	4.1800000000E+00	0.000E+00	0.0
</event>
<event>
    11  -1  1.0000000E+00  1.0000000E+00  -1.0000000E+00  -1.0000000E+00
	2212	-1	0	0	0	0	0.0000000000E+00	0.0000000000E+00	6.5000000000E+03	6.5000000000E+03	9.3827000000E-01	0.000E+00	0.0
	2212	-1	0	0	0	0	0.0000000000E+00	0.0000000000E+00	-6.5000000000E+03	6.5000000000E+03	9.3827000000E-01	0.000E+00	0.0
	2212	1	0	0	0	0	0.0000000000E+00	0.0000000000E+00	6.2799577691E+03	6.2799577691E+03	9.3827000000E-01	0.000E+00	0.0
	2212	1	0	0	0	0	0.0000000000E+00	0.0000000000E+00	-5.2359460624E+03	5.2359460624E+03	9.3827000000E-01	0.000E+00	0.0
	51	2	1	2	0	0	-4.2998133246E+01	9.9966321054E+01	-1.1905950398E+03	1.5943461504E+03	1.0547895495E+03	0.000E+00	0.0
	1000022	2	5	5	0	0	4.2998133246E+01	-9.9966321054E+01	-7.1712019641E+02	1.1175323223E+03	8.5016175548E+02	0.000E+00	0.0
	14	1	6	6	0	0	1.6011736171E+02	-2.4090265267E+02	-1.9743368890E+02	4.7778312977E+02	3.2500000000E+02	0.000E+00	0.0
	-14	1	6	6	0	0	-1.1711922846E+02	1.4093633162E+02	-5.1968650751E+02	6.3974919253E+02	3.2500000000E+02	0.000E+00	0.0
	25	2	5	5	0	0	-4.2998133246E+01	9.9966321054E+01	-3.2689151031E+02	3.6656384624E+02	1.2517543309E+02	0.000E+00	0.0
	-5	1	9	9	0	501	-3.6823291828E+00	1.1354768177E+02	-1.7234385079E+02	2.0646188725E+02	4.1800000000E+00	0.000E+00	0.0
	5	1	9	9	501	0	-3.9315804063E+01	-1.3581360712E+01	-1.5454765952E+02	1.6010195898E+02	4.1800000000E+00	0.000E+00	0.0
</event>
<event>
    11  -1  1.0000000E+00  1.0000000E+00  -1.0000000E+00  -1.0000000E+00
	2212	-1	0	0	0	0	0.0000000000E+00	0.0000000000E+00	6.5000000000E+03	6.5000000000E+03	9.3827000000E-01	0.000E+00	0.0
	2212	-1	0	0	0	0	0.0000000000E+00	0.0000000000E+00	-6.5000000000E+03	6.5000000000E+03	9.3827000000E-01	0.000E+00	0.0
	2212	1	0	0	0	0	0.0000000000E+00	0.0000000000E+00	4.8750904778E+03	4.8750904778E+03	9.3827000000E-01	0.000E+00	0.0
	2212	1	0	0	0	0	0.0000000000E+00	0.0000000000E+00	-6.3102587849E+03	6.3102587849E+03	9.3827000000E-01	0.000E+00	0.0
	51	2	1	2	0	0	-6.1717561145E+01	1.2137238927E+02	1.6702858375E+03	2.0103841230E+03	1.1105175500E+03	0.000E+00	0.0
	1000022	2	5	5	0	0	6.1717561145E+01	-1.2137238927E+02	9.2762918750E+02	1.2744629520E+03	8.6326102209E+02	0.000E+00	0.0
	14	1	6	6	0	0	-2.0779422486E+02	2.4818334241E+01	6.2479231976E+02	7.3470050526E+02	3.2500000000E+02	0.000E+00	0.0
	-14	1	6	6	0	0	2.6951178600E+02	-1.4619072351E+02	3.0283686773E+02	5.3976244672E+02	3.2500000000E+02	0.000E+00	0.0
	25	2	5	5	0	0	-6.1717561145E+01	1.2137238927E+02	5.0753911954E+02	5.4018778530E+02	1.2516617468E+02	0.000E+00	0.0
	-5	1	9	9	0	501	-6.3633955439E+01	1.9359167585E+01	1.0090127827E+02	1.2092393482E+02	4.1800000000E+00	0.000E+00	0.0
	5	1	9	9	501	0	1.9163942940E+00	1.0201322169E+02	4.0663784127E+02	4.1926385048E+02	4.1800000000E+00	0.000E+00	0.0
</event>
<event>
    11  -1  1.0000000E+00  1.0000000E+00  -1.0000000E+00  -1.0000000E+00
	2212	-1	0	0	0	0	0.0000000000E+00	0.0000000000E+00	6.5000000000E+03	6.5000000000E+03	9.3827000000E-01	0.000E+00	0.0
	2212	-1	0	0	0	0	0.0000000000E+00	0.0000000000E+00	-6.5000000000E+03	6.5000000000E+03	9.3827000000E-01	0.000E+00	0.0
	2212	1	0	0	0	0	0.0000000000E+00	0.0000000000E+00	6.3062868169E+03	6.3062868169E+03	9.3827000000E-01	0.000E+00	0.0
	2212	1	0	0	0	0	0.0000000000E+00	0.0000000000E+00	-5.0938978174E+03	5.0938978174E+03	9.3827000000E-01	0.000E+00	0.0
	51	2	1	2	0	0	7.3560559144E+01	-5.3054403466E+01	-1.3570846874E+03	1.7144756902E+03	1.0438017618E+03	0.000E+00	0.0
	1000022	2	5	5	0	0	-7.3560559144E+01	5.3054403466E+01	-8.6966391342E+02	1.2238441299E+03	8.5630205327E+02	0.000E+00	0.0
	14	1	6	6	0	0	-3.1626253698E+02	2.7883495781E+01	-4.4161319062E+02	6.3359821004E+02	3.2500000000E+02	0.000E+00	0.0
	-14	1	6	6	0	0	2.4270197784E+02	2.5170907686E+01	-4.2805072279E+02	5.9024591987E+02	3.2500000000E+02	0.000E+00	0.0
	25	2	5	5	0	0	7.3560559144E+01	-5.3054403466E+01	-3.4272508611E+02	3.7597123575E+02	1.2517172153E+02	0.000E+00	0.0
	-5	1	9	9	0	501	-1.1552145103E+01	-4.6439876681E+01	-4.3596089540E+01	6.4870683870E+01	4.1800000000E+00	0.000E+00	0.0
	5	1	9	9	501	0	8.5112704247E+01	-6.6145267857E+00	-2.9912899657E+02	3.1110055188E+02	4.1800000000E+00	0.000E+00	0.0
</event>
<event>
    11  -1  1.0000000E+00  1.0000000E+00  -1.0000000E+00  -1.0000000E+00
	2212	-1	0	0	0	0	0.0000000000E+00	0.0000000000E+00	6.5000000000E+03	6.5000000000E+03	9.3827000000E-01	0.000E+00	0.0
	2212	-1	0	0	0	0	0.0000000000E+00	0.0000000000E+00	-6.5000000000E+03	6.5000000000E+03	9.3827000000E-01	0.000E+00	0.0
	2212	1	0	0	0	0	0.0000000000E+00	0.0000000000E+00	5.9784727560E+03	5.9784727560E+03	9.3827000000E-01	0.000E+00	0.0
	2212	1	0	0	0	0	0.0000000000E+00	0.0000000000E+00	-5.9628263530E+03	5.9628263530E+03	9.3827000000E-01	0.000E+00	0.0
	51	2	1	2	0	0	-1.0963693904E+02	-8.2471514976E+01	-6.0774914076E+00	1.0674556252E+03	1.0585852666E+03	0.000E+00	0.0
	1000022	2	5	5	0	0	1.0963693904E+02	8.2471514976E+01	-2.2598081291E+01	8.7285324001E+02	8.6170777885E+02	0.000E+00	0.0
	14	1	6	6	0	0	2.0119306572E+02	2.8233151806E+02	-5.8782981236E+01	4.7882165225E+02	3.2500000000E+02	0.000E+00	0.0
	-14	1	6	6	0	0	-9.1556126678E+01	-1.9986000308E+02	3.6184899945E+01	3.9403158775E+02	3.2500000000E+02	0.000E+00	0.0
	25	2	5	5	0	0	-1.0963693904E+02	-8.2471514976E+01	6.9516783339E+00	1.8584765101E+02	1.2517673254E+02	0.000E+00	0.0
	-5	1	9	9	0	501	-5.2894400558E+01	-1.0402570231E+02	3.0359532509E+01	1.2065793785E+02	4.1800000000E+00	0.000E+00	0.0
	5	1	9	9	501	0	-5.6742538484E+01	2.1554187332E+01	-2.3407854175E+01	6.5189713163E+01	4.1800000000E+00	0.000E+00	0.0
</event>
<event>
    11  -1  1.0000000E+00  1.0000000E+00  -1.0000000E+00  -1.0000000E+00
	2212	-1	0	0	0	0	0.0000000000E+00	0.0000000000E+00	6.5000000000E+03	6.5000000000E+03	9.3827000000E-01	0.000E+00	0.0
	2212	-1	0	0	0	0	0.0000000000E+00	0.0000000000E+00	-6.5000000000E+03	6.5000000000E+03	9.3827000000E-01	0.000E+00	0.0
	2212	1	0	0	0	0	0.0000000000E+00	0.0000000000E+00	5.5552677183E+03	5.5552677183E+03	9.3827000000E-01	0.000E+00	0.0
	2212	1	0	0	0	0	0.0000000000E+00	0.0000000000E+00	-6.2103711354E+03	6.2103711354E+03	9.3827000000E-01	0.000E+00	0.0
	51	2	1	2	0	0	-1.1053389613E+02	4.4192550087E+01	5.8915254276E+02	1.2065481320E+03	1.0461773046E+03	0.000E+00	0.0
	1000022	2	5	5	0	0	1.1053389613E+02	-4.4192550087E+01	6.1179109835E+02	1.0562979024E+03	8.5282248269E+02	0.000E+00	0.0
	14	1	6	6	0	0	8.0942597074E+01	-1.7980599765E+02	5.9047057632E+02	7.0225522591E+02	3.2500000000E+02	0.000E+00	0.0
	-14	1	6	6	0	0	2.9591299052E+01	1.3561344756E+02	2.1320522029E+01	3.5404267652E+02	3.2500000000E+02	0.000E+00	0.0
	25	2	5	5	0	0	-1.1053389613E+02	4.4192550087E+01	4.3312318764E+01	1.7806324395E+02	1.2513927526E+02	0.000E+00	0.0
	-5	1	9	9	0	501	-1.0378013399E+00	5.1316506731E+01	-1.5128250791E+01	5.3673059040E+01	4.1800000000E+00	0.000E+00	0.0
	5	1	9	9	501	0	-1.0949609479E+02	-7.1239566445E+00	5.8440569555E+01	1.2439018491E+02	4.1800000000E+00	0.000E+00	0.0
</event>
<event>
    11  -1  1.0000000E+00  1.0000000E+00  -1.0000000E+00  -1.0000000E+00
	2212	-1	0	0	0	0	0.0000000000E+00	0.0000000000E+00	6.5000000000E+03	6.5000000000E+03	9.3827000000E-01	0.000E+00	0.0
	2212	-1	0	0	0	0	0.0000000000E+00	0.0000000000E+00	-6.5000000000E+03	6.5000000000E+03	9.3827000000E-01	0.000E+00	0.0
	2212	1	0	0	0	0	0.0000000000E+00	0.0000000000E+00	6.0734601274E+03	6.0734601274E+03	9.3827000000E-01	0.000E+00	0.0
	2212	1	0	0	0	0	0.0000000000E+00	0.0000000000E+00	-5.8580628053E+03	5.8580628053E+03	9.3827000000E-01	0.000E+00	0.0
	51	2	1	2	0	0	8.9148564485E+01	-1.6207504702E+01	-3.0518516617E+02	1.0938900184E+03	1.0465406046E+03	0.000E+00	0.0
	1000022	2	5	5	0	0	-8.9148564485E+01	1.6207504702E+01	-9.0703529111E+01	8.6991337532E+02	8.6041385426E+02	0.000E+00	0.0
	14	1	6	6	0	0	1.8199715319E+02	1.7004637204E+02	-9.1501751021E+01	4.1956680380E+02	3.2500000000E+02	0.000E+00	0.0
	-14	1	6	6	0	0	-2.7114571768E+02	-1.5383886734E+02	7.9822191029E-01	4.5034657152E+02	3.2500000000E+02	0.000E+00	0.0
	25	2	5	5	0	0	8.9148564485E+01	-1.6207504702E+01	-1.2469379297E+02	1.9856369199E+02	1.2517526918E+02	0.000E+00	0.0
	-5	1	9	9	0	501	3.3899611411E+01	2.1294796064E+01	1.5572253746E+01	4.3158075490E+01	4.1800000000E+00	0.000E+00	0.0
	5	1	9	9	501	0	5.5248953074E+01	-3.7502300766E+01	-1.4026604672E+02	1.5540561650E+02	4.1800000000E+00	0.000E+00	0.0
</event>
<event>
    11  -1  1.0000000E+00  1.0000000E+00  -1.0000000E+00  -1.0000000E+00
	2212	-1	0	0	0	0	0.0000000000E+00	0.0000000000E+00	6.5000000000E+03	6.5000000000E+03	9.3827000000E-01	0.000E+00	0.0
	2212	-1	0	0	0	0	0.0000000000E+00	0.0000000000E+00	-6.5000000000E+03	6.5000000000E+03	9.3827000000E-01	0.000E+00	0.0
	2212	1	0	0	0	0	0.0000000000E+00	0.0000000000E+00	5.2903030230E+03	5.2903030230E+03	9.3827000000E-01	0.000E+00	0.0
	2212	1	0	0	0	0	0.0000000000E+00	0.0000000000E+00	-6.2727347688E+03	6.2727347688E+03	9.3827000000E-01	0.000E+00	0.0
	51	2	1	2	0	0	1.3046124627E+02	-6.1286327058E+01	1.0391306748E+03	1.4833263169E+03	1.0486602178E+03	0.000E+00	0.0
	1000022	2	5	5	0	0	-1.3046124627E+02	6.1286327058E+01	7.5377791378E+02	1.1390867875E+03	8.4176090160E+02	0.000E+00	0.0
	14	1	6	6	0	0	-2.6643116872E+02	3.4971773235E+01	1.6577209694E+02	4.5311585794E+02	3.2500000000E+02	0.000E+00	0.0
	-14	1	6	6	0	0	1.3596992245E+02	2.6314553822E+01	5.8800581683E+02	6.8597092955E+02	3.2500000000E+02	0.000E+00	0.0
	25	2	5	5	0	0	1.3046124627E+02	-6.1286327058E+01	2.2865383208E+02	2.9787542069E+02	1.2518402719E+02	0.000E+00	0.0
	-5	1	9	9	0	501	1.0791209478E+02	5.5996927457E+00	1.8642065307E+02	2.1551452167E+02	4.1800000000E+00	0.000E+00	0.0
	5	1	9	9	501	0	2.2549151483E+01	-6.6886019803E+01	4.2233179006E+01	8.2360899016E+01	4.1800000000E+00	0.000E+00	0.0
</event>
<event>
    11  -1  1.0000000E+00  1.0000000E+00  -1.0000000E+00  -1.0000000E+00
	2212	-1	0	0	0	0	0.0000000000E+00	0.0000000000E+00	6.5000000000E+03	6.5000000000E+03	9.3827000000E-01	0.000E+00	0.0
	2212	-1	0	0	0	0	0.0000000000E+00	0.0000000000E+00	-6.5000000000E+03	6.5000000000E+03	9.3827000000E-01	0.000E+00	0.0
	2212	1	0	0	0	0	0.0000000000E+00	0.0000000000E+00	6.3349718206E+03	6.3349718206E+03	9.3827000000E-01	0.000E+00	0.0
	2212	1	0	0	0	0	0.0000000000E+00	0.0000000000E+00	-4.8696501806E+03	4.8696501806E+03	9.3827000000E-01	0.000E+00	0.0
	51	2	1	2	0	0	-2.7505596560E+00	2.0106807149E+01	-1.2597623820E+03	1.6320624248E+03	1.0374076585E+03	0.000E+00	0.0
	1000022	2	5	5	0	0	2.7505596560E+00	-2.0106807149E+01	-1.4301813925E+03	1.6637777095E+03	8.4989740672E+02	0.000E+00	0.0
	14	1	6	6	0	0	3.3056415997E+01	-2.5064344031E+02	-9.7318013602E+02	1.0567021520E+03	3.2500000000E+02	0.000E+00	0.0
	-14	1	6	6	0	0	-3.0305856341E+01	2.3053663316E+02	-4.5700125645E+02	6.0707555753E+02	3.2500000000E+02	0.000E+00	0.0
	25	2	5	5	0	0	-2.7505596560E+00	2.0106807149E+01	-3.5140247550E+01	1.3160028932E+02	1.2518765866E+02	0.000E+00	0.0
	-5	1	9	9	0	501	-5.4102541697E+01	1.0026696516E+01	1.6867071602E+01	5.7702601030E+01	4.1800000000E+00	0.000E+00	0.0
	5	1	9	9	501	0	5.1351982041E+01	1.0080110633E+01	-5.2007319153E+01	7.3897688295E+01	4.1800000000E+00	0.000E+00	0.0
</event>
<event>
    11  -1  1.0000000E+00  1.0000000E+00  -1.0000000E+00  -1.0000000E+00
	2212	-1	0	0	0	0	0.0000000000E+00	0.0000000000E+00	6.5000000000E+03	6.5000000000E+03	9.3827000000E-01	0.000E+00	0.0
	2212	-1	0	0	0	0	0.0000000000E+00	0.0000000000E+00	-6.5000000000E+03	6.5000000000E+03	9.3827000000E-01	0.000E+00	0.0
	2212	1	0	0	0	0	0.0000000000E+00	0.0000000000E+00	6.1318211028E+03	6.1318211028E+03	9.3827000000E-01	0.000E+00	0.0
	2212	1	0	0	0	0	0.0000000000E+00	0.0000000000E+00	-5.7626932560E+03	5.7626932560E+03	9.3827000000E-01	0.000E+00	0.0
	51	2	1	2	0	0	1.5275172152E+02	1.9643743523E+01	-4.1497253443E+02	1.1321503014E+03	1.0420379722E+03	0.000E+00	0.0
	1000022	2	5	5	0	0	-1.5275172152E+02	-1.9643743523E+01	-2.5589440626E+02	8.7700120671E+02	8.2457880419E+02	0.000E+00	0.0
	14	1	6	6	0	0	-8.6617669805E+01	-1.8878913318E+02	5.7987639759E+01	3.9004041316E+02	3.2500000000E+02	0.000E+00	0.0
	-14	1	6	6	0	0	-6.6134051715E+01	1.6914538966E+02	-3.1388204602E+02	4.8696079355E+02	3.2500000000E+02	0.000E+00	0.0
	25	2	5	5	0	0	1.5275172152E+02	1.9643743523E+01	-1.1323344053E+02	2.2848443443E+02	1.2515733952E+02	0.000E+00	0.0
	-5	1	9	9	0	501	1.2630914665E+02	-1.9438035385E+01	-1.2590491544E+02	1.7944736799E+02	4.1800000000E+00	0.000E+00	0.0
	5	1	9	9	501	0	2.6442574874E+01	3.9081778908E+01	1.2671474911E+01	4.9037066440E+01	4.1800000000E+00	0.000E+00	0.0
</event>
<event>
    11  -1  1.0000000E+00  1.0000000E+00  -1.0000000E+00  -1.0000000E+00
	2212	-1	0	0	0	0	0.0000000000E+00	0.0000000000E+00	6.5000000000E+03	6.5000000000E+03	9.3827000000E-01	0.000E+00	0.0
	2212	-1	0	0	0	0	0.0000000000E+00	0.0000000000E+00	-6.5000000000E+03	6.5000000000E+03	9.3827000000E-01	0.000E+00	0.0
	2212	1	0	0	0	0	0.0000000000E+00	0.0000000000E+00	6.1144864188E+03	6.1144864188E+03	9.3827000000E-01	0.000E+00	0.0
	2212	1	0	0	0	0	0.0000000000E+00	0.0000000000E+00	-5.7868329281E+03	5.7868329281E+03	9.3827000000E-01	0.000E+00	0.0
	51	2	1	2	0	0	-5.8947260958E+01	-8.0692775147E+01	-3.7238220044E+02	1.1173168639E+03	1.0486860195E+03	0.000E+00	0.0
	1000022	2	5	5	0	0	5.8947260958E+01	8.0692775147E+01	-2.3302420914E+02	9.1271891582E+02	8.7679497815E+02	0.000E+00	0.0
	14	1	6	6	0	0	-1.6144515290E+02	-1.0583723528E+00	-3.4033473690E+02	4.9751220155E+02	3.2500000000E+02	0.000E+00	0.0
	-14	1	6	6	0	0	2.2039241386E+02	8.1751147499E+01	1.0731052777E+02	4.1520671427E+02	3.2500000000E+02	0.000E+00	0.0
	25	2	5	5	0	0	-5.8947260958E+01	-8.0692775147E+01	-9.4629281569E+01	1.8596173728E+02	1.2506383677E+02	0.000E+00	0.0
	-5	1	9	9	0	501	8.8159537598E+00	-3.1514329861E+01	2.3931894441E+01	4.0756373720E+01	4.1800000000E+00	0.000E+00	0.0
	5	1	9	9	501	0	-6.7763214718E+01	-4.9178445285E+01	-1.1856117601E+02	1.4520536356E+02	4.1800000000E+00	0.000E+00	0.0
</event>
<event>
    11  -1  1.0000000E+00  1.0000000E+00  -1.0000000E+00  -1.0000000E+00
	2212	-1	0	0	0	0	0.0000000000E+00	0.0000000000E+00	6.5000000000E+03	6.5000000000E+03	9.3827000000E-01	0.000E+00	0.0
	2212	-1	0	0	0	0	0.0000000000E+00	0.0000000000E+00	-6.5000000000E+03	6.5000000000E+03	9.3827000000E-01	0.000E+00	0.0
	2212	1	0	0	0	0	0.0000000000E+00	0.0000000000E+00	6.2347796669E+03	6.2347796669E+03	9.3827000000E-01	0.000E+00	0.0
	2212	1	0	0	0	0	0.0000000000E+00	0.0000000000E+00	-5.4136486782E+03	5.4136486782E+03	9.3827000000E-01	0.000E+00	0.0
	51	2	1	2	0	0	8.8277038345E+01	1.1415364540E+02	-7.4130581058E+02	1.3125730581E+03	1.0735407946E+03	0.000E+00	0.0
	1000022	2	5	5	0	0	-8.8277038345E+01	-1.1415364540E+02	-7.5431443048E+02	1.1491997312E+03	8.5489524027E+02	0.000E+00	0.0
	14	1	6	6	0	0	-1.2189446582E+02	1.3626056812E+02	-6.0619664974E+02	7.1170540351E+02	3.2500000000E+02	0.000E+00	0.0
	-14	1	6	6	0	0	3.3617427479E+01	-2.5041421352E+02	-1.4811778073E+02	4.3749432766E+02	3.2500000000E+02	0.000E+00	0.0
	25	2	5	5	0	0	8.8277038345E+01	1.1415364540E+02	-6.6816558176E+01	2.0237192371E+02	1.2516410349E+02	0.000E+00	0.0
	-5	1	9	9	0	501	1.0526724287E+02	1.1688293835E+02	-8.3418601700E+01	1.7809814487E+02	4.1800000000E+00	0.000E+00	0.0
	5	1	9	9	501	0	-1.6990204522E+01	-2.7292929538E+00	1.6602043524E+01	2.4273778834E+01	4.1800000000E+00	0.000E+00	0.0
</event>
<event>
    11  -1  1.0000000E+00  1.0000000E+00  -1.0000000E+00  -1.0000000E+00
	2212	-1	0	0	0	0	0.0000000000E+00	0.0000000000E+00	6.5000000000E+03	6.5000000000E+03	9.3827000000E-01	0.000E+00	0.0
	2212	-1	0	0	0	0	0.0000000000E+00	0.0000000000E+00	-6.5000000000E+03	6.5000000000E+03	9.3827000000E-01	0.000E+00	0.0
	2212	1	0	0	0	0	0.0000000000E+00	0.0000000000E+00	6.2779534133E+03	6.2779534133E+03	9.3827000000E-01	0.000E+00	0.0
	2212	1	0	0	0	0	0.0000000000E+00	0.0000000000E+00	-5.2807404858E+03	5.2807404858E+03	9.3827000000E-01	0.000E+00	0.0
	51	2	1	2	0	0	1.0831402120E+02	6.4535824812E+00	-7.7511354475E+02	1.3021152932E+03	1.0406390602E+03	0.000E+00	0.0
	1000022	2	5	5	0	0	-1.0831402120E+02	-6.4535824812E+00	-1.0081288640E+03	1.2752662190E+03	7.7343813380E+02	0.000E+00	0.0
	14	1	6	6	0	0	8.7879542323E+01	1.0958519490E+02	-3.0270340471E+02	4.6581764685E+02	3.2500000000E+02	0.000E+00	0.0
	-14	1	6	6	0	0	-1.9619356352E+02	-1.1603877738E+02	-7.0542545932E+02	8.0944857210E+02	3.2500000000E+02	0.000E+00	0.0
	25	2	5	5	0	0	1.0831402120E+02	6.4535824812E+00	1.0915936470E+01	1.6603988196E+02	1.2520586575E+02	0.000E+00	0.0
	-5	1	9	9	0	501	1.1539718642E+02	-1.9080188754E+01	4.2576908142E+01	1.2454248168E+02	4.1800000000E+00	0.000E+00	0.0
	5	1	9	9	501	0	-7.0831652195E+00	2.5533771235E+01	-3.1660971672E+01	4.1497400283E+01	4.1800000000E+00	0.000E+00	0.0
</event>
<event>
    11  -1  1.0000000E+00  1.0000000E+00  -1.0000000E+00  -1.0000000E+00
	2212	-1	0	0	0	0	0.0000000000E+00	0.0000000000E+00	6.5000000000E+03	6.5000000000E+03	9.3827000000E-01	0.000E+00	0.0
	2212	-1	0	0	0	0	0.0000000000E+00	0.0000000000E+00	-6.5000000000E+03	6.5000000000E+03	9.3827000000E-01	0.000E+00	0.0
	2212	1	0	0	0	0	0.0000000000E+00	0.0000000000E+00	5.5440455711E+03	5.5440455711E+03	9.3827000000E-01	0.000E+00	0.0
	2212	1	0	0	0	0	0.0000000000E+00	0.0000000000E+00	-6.2400169136E+03	6.2400169136E+03	9.3827000000E-01	0.000E+00	0.0
	51	2	1	2	0	0	2.2667644663E+01	7.4655986671E+01	6.6852846084E+02	1.2029736377E+03	9.9705964298E+02	0.000E+00	0.0
	1000022	2	5	5	0	0	-2.2667644663E+01	-7.4655986671E+01	6.2138097316E+02	1.0506382230E+03	8.4358699813E+02	0.000E+00	0.0
	14	1	6	6	0	0	1.8664694338E+02	-7.2304144632E+01	5.3045908812E+02	6.5351114373E+02	3.2500000000E+02	0.000E+00	0.0
	-14	1	6	6	0	0	-2.0931458804E+02	-2.3518420393E+00	9.0921885035E+01	3.9712707929E+02	3.2500000000E+02	0.000E+00	0.0
	25	2	5	5	0	0	2.2667644663E+01	7.4655986671E+01	7.4590369346E+01	1.6529929234E+02	1.2519103158E+02	0.000E+00	0.0
	-5	1	9	9	0	501	4.2106660297E-01	9.3098204173E+01	9.1503205971E+00	9.3641089722E+01	4.1800000000E+00	0.000E+00	0.0
	5	1	9	9	501	0	2.2246578060E+01	-1.8442217502E+01	6.5440048749E+01	7.1658202615E+01	4.1800000000E+00	0.000E+00	0.0
</event>
<event>
    11  -1  1.0000000E+00  1.0000000E+00  -1.0000000E+00  -1.0000000E+00
	2212	-1	0	0	0	0	0.0000000000E+00	0.0000000000E+00	6.5000000000E+03	6.5000000000E+03	9.3827000000E-01	0.000E+00	0.0
	2212	-1	0	0	0	0	0.0000000000E+00	0.0000000000E+00	-6.5000000000E+03	6.5000000000E+03	9.3827000000E-01	0.000E+00	0.0
	2212	1	0	0	0	0	0.0000000000E+00	0.0000000000E+00	5.9565858818E+03	5.9565858818E+03	9.3827000000E-01	0.000E+00	0.0
	2212	1	0	0	0	0	0.0000000000E+00	0.0000000000E+00	-5.9911091500E+03	5.9911091500E+03	9.3827000000E-01	0.000E+00	0.0
	51	2	1	2	0	0	-1.2553174228E+02	4.2214609623E+01	1.4511448791E+01	1.0601437468E+03	1.0517385084E+03	0.000E+00	0.0
	1000022	2	5	5	0	0	1.2553174228E+02	-4.2214609623E+01	4.8795236026E+01	8.6950956734E+02	8.5797763435E+02	0.000E+00	0.0
	14	1	6	6	0	0	-1.6215960529E+02	1.1202265877E+02	-8.5724110934E+01	3.8963885440E+02	3.2500000000E+02	0.000E+00	0.0
	-14	1	6	6	0	0	2.8769134757E+02	-1.5423726839E+02	1.3451934696E+02	4.7987071293E+02	3.2500000000E+02	0.000E+00	0.0
	25	2	5	5	0	0	-1.2553174228E+02	4.2214609623E+01	-1.4271967795E+01	1.8279540088E+02	1.2518058130E+02	0.000E+00	0.0
	-5	1	9	9	0	501	-1.3847775113E+02	3.9832333940E+00	-2.4969601589E+01	1.4082935458E+02	4.1800000000E+00	0.000E+00	0.0
	5	1	9	9	501	0	1.2946008858E+01	3.8231376229E+01	1.0697633793E+01	4.1966046305E+01	4.1800000000E+00	0.000E+00	0.0
</event>
<event>
    11  -1  1.0000000E+00  1.0000000E+00  -1.0000000E+00  -1.0000000E+00
	2212	-1	0	0	0	0	0.0000000000E+00	0.0000000000E+00	6.5000000000E+03	6.5000000000E+03	9.3827000000E-01	0.000E+00	0.0
	2212	-1	0	0	0	0	0.0000000000E+00	0.0000000000E+00	-6.5000000000E+03	6.5000000000E+03	9.3827000000E-01	0.000E+00	0.0
	2212	1	0	0	0	0	0.0000000000E+00	0.0000000000E+00	4.9309352608E+03	4.9309352608E+03	9.3827000000E-01	0.000E+00	0.0
	2212	1	0	0	0	0	0.0000000000E+00	0.0000000000E+00	-6.3211007588E+03	6.3211007588E+03	9.3827000000E-01	0.000E+00	0.0
	51	2	1	2	0	0	8.6039632410E+00	6.4496575234E+01	1.6300766821E+03	1.9453024934E+03	1.0596310513E+03	0.000E+00	0.0
	1000022	2	5	5	0	0	-8.6039632410E+00	-6.4496575234E+01	9.0650856080E+02	1.2441448380E+03	8.4964979291E+02	0.000E+00	0.0
	14	1	6	6	0	0	1.5219574978E+02	7.2585225567E+00	1.2579634322E+02	3.8034977635E+02	3.2500000000E+02	0.000E+00	0.0
	-14	1	6	6	0	0	-1.6079971302E+02	-7.1755097791E+01	7.8071221758E+02	8.6379506160E+02	3.2500000000E+02	0.000E+00	0.0
	25	2	5	5	0	0	8.6039632410E+00	6.4496575234E+01	4.8365693721E+02	5.0381914242E+02	1.2520327056E+02	0.000E+00	0.0
	-5	1	9	9	0	501	-4.6280183953E+01	6.6829774245E+01	3.4819562540E+02	3.5758319326E+02	4.1800000000E+00	0.000E+00	0.0
	5	1	9	9	501	0	5.4884147194E+01	-2.3331990104E+00	1.3546131181E+02	1.4623594917E+02	4.1800000000E+00	0.000E+00	0.0
</event>
<event>
    11  -1  1.0000000E+00  1.0000000E+00  -1.0000000E+00  -1.0000000E+00
	2212	-1	0	0	0	0	0.0000000000E+00	0.0000000000E+00	6.5000000000E+03	6.5000000000E+03	9.3827000000E-01	0.000E+00	0.0
	2212	-1	0	0	0	0	0.0000000000E+00	0.0000000000E+00	-6.5000000000E+03	6.5000000000E+03	9.3827000000E-01	0.000E+00	0.0
	2212	1	0	0	0	0	0.0000000000E+00	0.0000000000E+00	5.0360001576E+03	5.0360001576E+03	9.3827000000E-01	0.000E+00	0.0
	2212	1	0	0	0	0	0.0000000000E+00	0.0000000000E+00	-6.3142075084E+03	6.3142075084E+03	9.3827000000E-01	0.000E+00	0.0
	51	2	1	2	0	0	1.8885705367E+00	7.9397606294E+00	1.5284102207E+03	1.8504337662E+03	1.0430727271E+03	0.000E+00	0.0
	1000022	2	5	5	0	0	-1.8885705367E+00	-7.9397606294E+00	8.0182654066E+02	1.1572212462E+03	8.3436718826E+02	0.000E+00	0.0
	14	1	6	6	0	0	1.5303692092E+02	3.4234146149E+01	1.1181199029E+02	3.7778194385E+02	3.2500000000E+02	0.000E+00	0.0
	-14	1	6	6	0	0	-1.5492549146E+02	-4.2173906779E+01	6.9001455037E+02	7.7943930234E+02	3.2500000000E+02	0.000E+00	0.0
	25	2	5	5	0	0	1.8885705367E+00	7.9397606294E+00	4.7638081009E+02	4.9257108785E+02	1.2498397444E+02	0.000E+00	0.0
	-5	1	9	9	0	501	7.2643021889E+00	4.1537315403E+01	5.3243870831E+01	6.8047783493E+01	4.1800000000E+00	0.000E+00	0.0
	5	1	9	9	501	0	-5.3757316522E+00	-3.3597554774E+01	4.2313693926E+02	4.2452330436E+02	4.1800000000E+00	0.000E+00	0.0
</event>
<event>
    11  -1  1.0000000E+00  1.0000000E+00  -1.0000000E+00  -1.0000000E+00
	2212	-1	0	0	0	0	0.0000000000E+00	0.0000000000E+00	6.5000000000E+03	6.5000000000E+03	9.3827000000E-01	0.000E+00	0.0
	2212	-1	0	0	0	0	0.0000000000E+00	0.0000000000E+00	-6.5000000000E+03	6.5000000000E+03	9.3827000000E-01	0.000E+00	0.0
	2212	1	0	0	0	0	0.0000000000E+00	0.0000000000E+00	6.0132136916E+03	6.0132136916E+03	9.3827000000E-01	0.000E+00	0.0
	2212	1	0	0	0	0	0.0000000000E+00	0.0000000000E+00	-5.9314301003E+03	5.9314301003E+03	9.3827000000E-01	0.000E+00	0.0
	51	2	1	2	0	0	2.0956321801E+01	7.1646652442E+01	-2.0547210828E+02	1.0746531382E+03	1.0521825745E+03	0.000E+00	0.0
	1000022	2	5	5	0	0	-2.0956321801E+01	-7.1646652442E+01	5.5949365398E+01	8.5482626493E+02	8.4972066086E+02	0.000E+00	0.0
	14	1	6	6	0	0	-2.1666263392E+02	1.1408160426E+02	1.2746724764E+02	4.2641553512E+02	3.2500000000E+02	0.000E+00	0.0
	-14	1	6	6	0	0	1.9570631212E+02	-1.8572825670E+02	-7.1517882241E+01	4.2841072982E+02	3.2500000000E+02	0.000E+00	0.0
	25	2	5	5	0	0	2.0956321801E+01	7.1646652442E+01	-1.3773295670E+02	2.0052994308E+02	1.2517779547E+02	0.000E+00	0.0
	-5	1	9	9	0	501	-3.4362098492E+01	1.4644714998E+01	-1.1007844434E+02	1.1631834679E+02	4.1800000000E+00	0.000E+00	0.0
	5	1	9	9	501	0	5.5318420293E+01	5.7001937445E+01	-2.7654512357E+01	8.4211596291E+01	4.1800000000E+00	0.000E+00	0.0
</event>
<event>
    11  -1  1.0000000E+00  1.0000000E+00  -1.0000000E+00  -1.0000000E+00
	2212	-1	0	0	0	0	0.0000000000E+00	0.0000000000E+00	6.5000000000E+03	6.5000000000E+03	9.3827000000E-01	0.000E+00	0.0
	2212	-1	0	0	0	0	0.0000000000E+00	0.0000000000E+00	-6.5000000000E+03	6.5000000000E+03	9.3827000000E-01	0.000E+00	0.0
	2212	1	0	0	0	0	0.0000000000E+00	0.0000000000E+00	5.7342086643E+03	5.7342086643E+03	9.3827000000E-01	0.000E+00	0.0
	2212	1	0	0	0	0	0.0000000000E+00	0.0000000000E+00	-6.1405970888E+03	6.1405970888E+03	9.3827000000E-01	0.000E+00	0.0
	51	2	1	2	0	0	-1.1779675916E+01	-2.9541872118E+01	5.4576046697E+02	1.1831215119E+03	1.0492428421E+03	0.000E+00	0.0
	1000022	2	5	5	0	0	1.1779675916E+01	2.9541872118E+01	2.0000578185E+02	8.8173034404E+02	8.5815768007E+02	0.000E+00	0.0
	14	1	6	6	0	0	-1.5705457654E+02	1.4735995251E+02	2.9086562860E+02	4.8642461853E+02	3.2500000000E+02	0.000E+00	0.0
	-14	1	6	6	0	0	1.6883425246E+02	-1.1781808039E+02	-9.0859846753E+01	3.9530572551E+02	3.2500000000E+02	0.000E+00	0.0
	25	2	5	5	0	0	-1.1779675916E+01	-2.9541872118E+01	2.0638264272E+02	2.4346390286E+02	1.2517744927E+02	0.000E+00	0.0
	-5	1	9	9	0	501	5.1266699044E+01	4.5831444407E+00	5.2452754617E+01	7.3607360439E+01	4.1800000000E+00	0.000E+00	0.0
	5	1	9	9	501	0	-6.3046374959E+01	-3.4125016559E+01	1.5392988811E+02	1.6985654242E+02	4.1800000000E+00	0.000E+00	0.0
</event>
<event>
    11  -1  1.0000000E+00  1.0000000E+00  -1.0000000E+00  -1.0000000E+00
	2212	-1	0	0	0	0	0.0000000000E+00	0.0000000000E+00	6.5000000000E+03	6.5000000000E+03	9.3827000000E-01	0.000E+00	0.0
	2212	-1	0	0	0	0	0.0000000000E+00	0.0000000000E+00	-6.5000000000E+03	6.5000000000E+03	9.3827000000E-01	0.000E+00	0.0
	2212	1	0	0	0	0	0.0000000000E+00	0.0000000000E+00	6.1234561309E+03	6.1234561309E+03	9.3827000000E-01	0.000E+00	0.0
	2212	1	0	0	0	0	0.0000000000E+00	0.0000000000E+00	-5.7668669896E+03	5.7668669896E+03	9.3827000000E-01	0.000E+00	0.0
	51	2	1	2	0	0	-6.5430267705E+01	-7.8062246438E+01	-4.4066643962E+02	1.1440230358E+03	1.0508220407E+03	0.000E+00	0.0
	1000022	2	5	5	0	0	6.5430267705E+01	7.8062246438E+01	-2.1445155064E+02	8.9465173841E+02	8.6257604373E+02	0.000E+00	0.0
	14	1	6	6	0	0	1.3104547067E+02	7.2400390071E+01	-3.8175077682E+02	5.2323358786E+02	3.2500000000E+02	0.000E+00	0.0
	-14	1	6	6	0	0	-6.5615202966E+01	5.6618563676E+00	1.6729922618E+02	3.7141815055E+02	3.2500000000E+02	0.000E+00	0.0
	25	2	5	5	0	0	-6.5430267705E+01	-7.8062246438E+01	-1.4213759066E+02	2.1502514105E+02	1.2513146030E+02	0.000E+00	0.0
	-5	1	9	9	0	501	8.6544662450E+00	-1.4234887263E+01	1.9548199518E+01	2.6021842859E+01	4.1800000000E+00	0.000E+00	0.0
	5	1	9	9	501	0	-7.4084733950E+01	-6.3827359175E+01	-1.6168579018E+02	1.8900329820E+02	4.1800000000E+00	0.000E+00	0.0
</event>
<event>
    11  -1  1.0000000E+00  1.0000000E+00  -1.0000000E+00  -1.0000000E+00
	2212	-1	0	0	0	0	0.0000000000E+00	0.0000000000E+00	6.5000000000E+03	6.5000000000E+03	9.3827000000E-01	0.000E+00	0.0
	2212	-1	0	0	0	0	0.0000000000E+00	0.0000000000E+00	-6.5000000000E+03	6.5000000000E+03	9.3827000000E-01	0.000E+00	0.0
	2212	1	0	0	0	0	0.0000000000E+00	0.0000000000E+00	5.4750344110E+03	5.4750344110E+03	9.3827000000E-01	0.000E+00	0.0
	2212	1	0	0	0	0	0.0000000000E+00	0.0000000000E+00	-6.2311771397E+03	6.2311771397E+03	9.3827000000E-01	0.000E+00	0.0
	51	2	1	2	0	0	-1.0701760886E+02	-1.2089602669E+02	8.1007268740E+02	1.3358230055E+03	1.0498269977E+03	0.000E+00	0.0
	1000022	2	5	5	0	0	1.0701760886E+02	1.2089602669E+02	5.6210735830E+02	1.0120283009E+03	8.2593461097E+02	0.000E+00	0.0
	14	1	6	6	0	0	-1.3151152889E+02	-1.1365127849E+02	3.1146471925E+02	4.8254239884E+02	3.2500000000E+02	0.000E+00	0.0
	-14	1	6	6	0	0	2.3852913775E+02	2.3454730519E+02	2.5064263905E+02	5.2948590202E+02	3.2500000000E+02	0.000E+00	0.0
	25	2	5	5	0	0	-1.0701760886E+02	-1.2089602669E+02	1.9403537043E+02	2.8176014840E+02	1.2518162153E+02	0.000E+00	0.0
	-5	1	9	9	0	501	1.8002357727E+01	1.1798145727E+01	1.9773621492E+01	2.9525406572E+01	4.1800000000E+00	0.000E+00	0.0
	5	1	9	9	501	0	-1.2501996659E+02	-1.3269417242E+02	1.7426174894E+02	2.5223474182E+02	4.1800000000E+00	0.000E+00	0.0
</event>
<event>
    11  -1  1.0000000E+00  1.0000000E+00  -1.0000000E+00  -1.0000000E+00
	2212	-1	0	0	0	0	0.0000000000E+00	0.0000000000E+00	6.5000000000E+03	6.5000000000E+03	9.3827000000E-01	0.000E+00	0.0
	2212	-1	0	0	0	0	0.0000000000E+00	0.0000000000E+00	-6.5000000000E+03	6.5000000000E+03	9.3827000000E-01	0.000E+00	0.0
	2212	1	0	0	0	0	0.0000000000E+00	0.0000000000E+00	6.2463533921E+03	6.2463533921E+03	9.3827000000E-01	0.000E+00	0.0
	2212	1	0	0	0	0	0.0000000000E+00	0.0000000000E+00	-5.4172326721E+03	5.4172326721E+03	9.3827000000E-01	0.000E+00	0.0
	51	2	1	2	0	0	2.4602715692E+01	-9.1927850989E+01	-7.1217699700E+02	1.2707529807E+03	1.0481226262E+03	0.000E+00	0.0
	1000022	2	5	5	0	0	-2.4602715692E+01	9.1927850989E+01	-8.0679402795E+02	1.1775925941E+03	8.5249732592E+02	0.000E+00	0.0
	14	1	6	6	0	0	-6.8449091589E+00	-1.8332482419E+02	-1.6714645371E+02	4.0892270777E+02	3.2500000000E+02	0.000E+00	0.0
	-14	1	6	6	0	0	-1.7757806533E+01	2.7525267518E+02	-6.3964757425E+02	7.6866988631E+02	3.2500000000E+02	0.000E+00	0.0
	25	2	5	5	0	0	2.4602715692E+01	-9.1927850989E+01	-2.2326692083E+01	1.5882134174E+02	1.2517872824E+02	0.000E+00	0.0
	-5	1	9	9	0	501	-3.9709267024E+01	-6.7109720480E+01	1.6182966609E+01	7.9748989203E+01	4.1800000000E+00	0.000E+00	0.0
	5	1	9	9	501	0	6.4311982716E+01	-2.4818130508E+01	-3.8509658692E+01	7.9072352535E+01	4.1800000000E+00	0.000E+00	0.0
</event>
<event>
    11  -1  1.0000000E+00  1.0000000E+00  -1.0000000E+00  -1.0000000E+00
	2212	-1	0	0	0	0	0.0000000000E+00	0.0000000000E+00	6.5000000000E+03	6.5000000000E+03	9.3827000000E-01	0.000E+00	0.0
	2212	-1	0	0	0	0	0.0000000000E+00	0.0000000000E+00	-6.5000000000E+03	6.5000000000E+03	9.3827000000E-01	0.000E+00	0.0
	2212	1	0	0	0	0	0.0000000000E+00	0.0000000000E+00	6.3315753867E+03	6.3315753867E+03	9.3827000000E-01	0.000E+00	0.0
	2212	1	0	0	0	0	0.0000000000E+00	0.0000000000E+00	-4.8548550212E+03	4.8548550212E+03	9.3827000000E-01	0.000E+00	0.0
	51	2	1	2	0	0	-5.8064538311E+01	9.0402443186E+00	-1.7136398116E+03	2.0120502598E+03	1.0527733030E+03	0.000E+00	0.0
	1000022	2	5	5	0	0	5.8064538311E+01	-9.0402443186E+00	-9.8728611466E+02	1.3049739005E+03	8.5133412488E+02	0.000E+00	0.0
	14	1	6	6	0	0	-2.4923055504E+01	-2.4512250200E+02	-3.0650811489E+02	5.1017489567E+02	3.2500000000E+02	0.000E+00	0.0
	-14	1	6	6	0	0	8.2987593815E+01	2.3608225768E+02	-6.8077799977E+02	7.9479900484E+02	3.2500000000E+02	0.000E+00	0.0
	25	2	5	5	0	0	-5.8064538311E+01	9.0402443186E+00	-4.8943425080E+02	5.0859569156E+02	1.2518176780E+02	0.000E+00	0.0
	-5	1	9	9	0	501	1.0453359997E+01	-3.0181629574E+01	-3.5948052338E+01	4.8269435111E+01	4.1800000000E+00	0.000E+00	0.0
	5	1	9	9	501	0	-6.8517898308E+01	3.9221873893E+01	-4.5348619846E+02	4.6032625645E+02	4.1800000000E+00	0.000E+00	0.0
</event>
<event>
    11  -1  1.0000000E+00  1.0000000E+00  -1.0000000E+00  -1.0000000E+00
	2212	-1	0	0	0	0	0.0000000000E+00	0.0000000000E+00	6.5000000000E+03	6.5000000000E+03	9.3827000000E-01	0.000E+00	0.0
	2212	-1	0	0	0	0	0.0000000000E+00	0.0000000000E+00	-6.5000000000E+03	6.5000000000E+03	9.3827000000E-01	0.000E+00	0.0
	2212	1	0	0	0	0	0.0000000000E+00	0.0000000000E+00	5.5369126925E+03	5.5369126925E+03	9.3827000000E-01	0.000E+00	0.0
	2212	1	0	0	0	0	0.0000000000E+00	0.0000000000E+00	-6.2342870070E+03	6.2342870070E+03	9.3827000000E-01	0.000E+00	0.0
	51	2	1	2	0	0	7.5111149341E+01	3.4987301522E+01	7.6451762324E+02	1.2708155792E+03	1.0117407000E+03	0.000E+00	0.0
	1000022	2	5	5	0	0	-7.5111149341E+01	-3.4987301522E+01	5.2391153429E+02	9.9944603356E+02	8.4707926560E+02	0.000E+00	0.0
	14	1	6	6	0	0	-1.5279189337E+02	-5.5357582892E+01	5.5484999264E+02	6.6324455444E+02	3.2500000000E+02	0.000E+00	0.0
	-14	1	6	6	0	0	7.7680744026E+01	2.0370281370E+01	-3.0938458345E+01	3.3620147912E+02	3.2500000000E+02	0.000E+00	0.0
	25	2	5	5	0	0	7.5111149341E+01	3.4987301522E+01	1.7346278024E+02	2.2935426698E+02	1.2509295596E+02	0.000E+00	0.0
	-5	1	9	9	0	501	4.1330576681E+01	-3.0976060656E+01	1.3736600241E+02	1.4681493085E+02	4.1800000000E+00	0.000E+00	0.0
	5	1	9	9	501	0	3.3780572660E+01	6.5963362178E+01	3.6096777830E+01	8.2539336130E+01	4.1800000000E+00	0.000E+00	0.0
</event>
<event>
    11  -1  1.0000000E+00  1.0000000E+00  -1.0000000E+00  -1.0000000E+00
	2212	-1	0	0	0	0	0.0000000000E+00	0.0000000000E+00	6.5000000000E+03	6.5000000000E+03	9.3827000000E-01	0.000E+00	0.0
	2212	-1	0	0	0	0	0.0000000000E+00	0.0000000000E+00	-6.5000000000E+03	6.5000000000E+03	9.3827000000E-01	0.000E+00	0.0
	2212	1	0	0	0	0	0.0000000000E+00	0.0000000000E+00	6.0788179581E+03	6.0788179581E+03	9.3827000000E-01	0.000E+00	0.0
	2212	1	0	0	0	0	0.0000000000E+00	0.0000000000E+00	-5.8353674671E+03	5.8353674671E+03	9.3827000000E-01	0.000E+00	0.0
	51	2	1	2	0	0	1.2708632166E+02	7.7741542965E+01	-1.9952274722E+02	1.0870736665E+03	1.0581706617E+03	0.000E+00	0.0
	1000022	2	5	5	0	0	-1.2708632166E+02	-7.7741542965E+01	-2.4403011600E+02	8.9121835335E+02	8.4411182623E+02	0.000E+00	0.0
	14	1	6	6	0	0	-1.8695538062E+02	7.3743792454E+01	-3.4404051684E+02	5.1417831391E+02	3.2500000000E+02	0.000E+00	0.0
	-14	1	6	6	0	0	5.9869058957E+01	-1.5148533542E+02	1.0001040083E+02	3.7704003944E+02	3.2500000000E+02	0.000E+00	0.0
	25	2	5	5	0	0	1.2708632166E+02	7.7741542965E+01	5.7962501231E-01	1.9459622141E+02	1.2519054583E+02	0.000E+00	0.0
	-5	1	9	9	0	501	9.3116686135E+00	1.1576218362E+01	4.8735536456E+01	5.1120846214E+01	4.1800000000E+00	0.000E+00	0.0
	5	1	9	9	501	0	1.1777465305E+02	6.6165324603E+01	-4.8155911444E+01	1.4347537519E+02	4.1800000000E+00	0.000E+00	0.0
</event>
<event>
    11  -1  1.0000000E+00  1.0000000E+00  -1.0000000E+00  -1.0000000E+00
	2212	-1	0	0	0	0	0.0000000000E+00	0.0000000000E+00	6.5000000000E+03	6.5000000000E+03	9.3827000000E-01	0.000E+00	0.0
	2212	-1	0	0	0	0	0.0000000000E+00	0.0000000000E+00	-6.5000000000E+03	6.5000000000E+03	9.3827000000E-01	0.000E+00	0.0
	2212	1	0	0	0	0	0.0000000000E+00	0.0000000000E+00	6.2532841768E+03	6.2532841768E+03	9.3827000000E-01	0.000E+00	0.0
	2212	1	0	0	0	0	0.0000000000E+00	0.0000000000E+00	-5.4204800888E+03	5.4204800888E+03	9.3827000000E-01	0.000E+00	0.0
	51	2	1	2	0	0	-6.1798299397E+01	3.3893481238E+01	-7.1697121674E+02	1.2587112845E+03	1.0321523987E+03	0.000E+00	0.0
	1000022	2	5	5	0	0	6.1798299397E+01	-3.3893481238E+01	-8.1536421942E+02	1.1815241103E+03	8.5218109287E+02	0.000E+00	0.0
	14	1	6	6	0	0	2.4515425039E+02	-1.8168824306E+02	-3.4848708829E+02	5.6584403757E+02	3.2500000000E+02	0.000E+00	0.0
	-14	1	6	6	0	0	-1.8335595099E+02	1.4779476182E+02	-4.6687713113E+02	6.1568007273E+02	3.2500000000E+02	0.000E+00	0.0
	25	2	5	5	0	0	-6.1798299397E+01	3.3893481238E+01	-1.7439868598E+01	1.4471162407E+02	1.2517790238E+02	0.000E+00	0.0
	-5	1	9	9	0	501	2.6402790634E+00	6.9406815090E+01	-1.3720540785E+01	7.0922511898E+01	4.1800000000E+00	0.000E+00	0.0
	5	1	9	9	501	0	-6.4438578461E+01	-3.5513333852E+01	-3.7193278125E+00	7.3789112169E+01	4.1800000000E+00	0.000E+00	0.0
</event>
<event>
    11  -1  1.0000000E+00  1.0000000E+00  -1.0000000E+00  -1.0000000E+00
	2212	-1	0	0	0	0	0.0000000000E+00	0.0000000000E+00	6.5000000000E+03	6.5000000000E+03	9.3827000000E-01	0.000E+00	0.0
	2212	-1	0	0	0	0	0.0000000000E+00	0.0000000000E+00	-6.5000000000E+03	6.5000000000E+03	9.3827000000E-01	0.000E+00	0.0
	2212	1	0	0	0	0	0.0000000000E+00	0.0000000000E+00	5.9463117728E+03	5.9463117728E+03	9.3827000000E-01	0.000E+00	0.0
	2212	1	0	0	0	0	0.0000000000E+00	0.0000000000E+00	-6.0033033793E+03	6.0033033793E+03	9.3827000000E-01	0.000E+00	0.0
	51	2	1	2	0	0	-4.7983464685E+01	-4.4541165565E+01	-6.5212684874E+01	1.0529004264E+03	1.0488375877E+03	0.000E+00	0.0
	1000022	2	5	5	0	0	4.7983464685E+01	4.4541165565E+01	1.6953267799E+02	8.6977111873E+02	8.5057283154E+02	0.000E+00	0.0
	14	1	6	6	0	0	-2.3998481067E+01	2.8298025851E+02	1.5967460940E+02	4.6018988982E+02	3.2500000000E+02	0.000E+00	0.0
	-14	1	6	6	0	0	7.1981945751E+01	-2.3843909295E+02	9.8580685951E+00	4.0958122891E+02	3.2500000000E+02	0.000E+00	0.0
	25	2	5	5	0	0	-4.7983464685E+01	-4.4541165565E+01	-1.1254107151E+02	1.8061372912E+02	1.2517786568E+02	0.000E+00	0.0
	-5	1	9	9	0	501	-3.0693214099E+01	-8.8538109045E+01	-7.3841465080E+01	1.1937799006E+02	4.1800000000E+00	0.000E+00	0.0
	5	1	9	9	501	0	-1.7290250586E+01	4.3996943480E+01	-3.8699606430E+01	6.1235739064E+01	4.1800000000E+00	0.000E+00	0.0
</event>
<event>
    11  -1  1.0000000E+00  1.0000000E+00  -1.0000000E+00  -1.0000000E+00
	2212	-1	0	0	0	0	0.0000000000E+00	0.0000000000E+00	6.5000000000E+03	6.5000000000E+03	9.3827000000E-01	0.000E+00	0.0
	2212	-1	0	0	0	0	0.0000000000E+00	0.0000000000E+00	-6.5000000000E+03	6.5000000000E+03	9.3827000000E-01	0.000E+00	0.0
	2212	1	0	0	0	0	0.0000000000E+00	0.0000000000E+00	5.8291854243E+03	5.8291854243E+03	9.3827000000E-01	0.000E+00	0.0
	2212	1	0	0	0	0	0.0000000000E+00	0.0000000000E+00	-6.0889285071E+03	6.0889285071E+03	9.3827000000E-01	0.000E+00	0.0
	51	2	1	2	0	0	-1.1557229315E+02	2.4166979512E+01	1.7510760502E+02	1.0712677851E+03	1.0502433033E+03	0.000E+00	0.0
	1000022	2	5	5	0	0	1.1557229315E+02	-2.4166979512E+01	2.9943204497E+02	9.0529240178E+02	8.4614052339E+02	0.000E+00	0.0
	14	1	6	6	0	0	2.1699458389E+02	-1.1908344711E+02	3.6262044520E+02	5.4624729207E+02	3.2500000000E+02	0.000E+00	0.0
	-14	1	6	6	0	0	-1.0142229074E+02	9.4916467602E+01	-6.3188400234E+01	3.5904510971E+02	3.2500000000E+02	0.000E+00	0.0
	25	2	5	5	0	0	-1.1557229315E+02	2.4166979512E+01	-3.9688962163E+01	1.7659366674E+02	1.2517632194E+02	0.000E+00	0.0
	-5	1	9	9	0	501	-5.8831956320E+01	6.6486557424E+01	1.0823872867E+01	8.9533736806E+01	4.1800000000E+00	0.000E+00	0.0
	5	1	9	9	501	0	-5.6740336827E+01	-4.2319577913E+01	-5.0512835030E+01	8.7059929937E+01	4.1800000000E+00	0.000E+00	0.0
</event>
<event>
    11  -1  1.0000000E+00  1.0000000E+00  -1.0000000E+00  -1.0000000E+00
	2212	-1	0	0	0	0	0.0000000000E+00	0.0000000000E+00	6.5000000000E+03	6.5000000000E+03	9.3827000000E-01	0.000E+00	0.0
	2212	-1	0	0	0	0	0.0000000000E+00	0.0000000000E+00	-6.5000000000E+03	6.5000000000E+03	9.3827000000E-01	0.000E+00	0.0
	2212	1	0	0	0	0	0.0000000000E+00	0.0000000000E+00	5.8034452871E+03	5.8034452871E+03	9.3827000000E-01	0.000E+00	0.0
	2212	1	0	0	0	0	0.0000000000E+00	0.0000000000E+00	-6.0709122832E+03	6.0709122832E+03	9.3827000000E-01	0.000E+00	0.0
	51	2	1	2	0	0	6.9801415380E+01	1.5762471444E+01	9.3529315379E+01	1.0997275624E+03	1.0934039901E+03	0.000E+00	0.0
	1000022	2	5	5	0	0	-6.9801415380E+01	-1.5762471444E+01	3.9024757195E+02	9.3626117209E+02	8.4803957564E+02	0.000E+00	0.0
	14	1	6	6	0	0	-2.1338968031E+02	-2.1394361948E+02	2.1868578363E+02	4.9472770282E+02	3.2500000000E+02	0.000E+00	0.0
	-14	1	6	6	0	0	1.4358826493E+02	1.9818114804E+02	1.7156178833E+02	4.4153346926E+02	3.2500000000E+02	0.000E+00	0.0
	25	2	5	5	0	0	6.9801415380E+01	1.5762471444E+01	-1.2278057586E+02	1.8938125765E+02	1.2517786484E+02	0.000E+00	0.0
	-5	1	9	9	0	501	1.1953882709E+00	5.3000089718E+01	-9.0163036277E+01	1.0467704607E+02	4.1800000000E+00	0.000E+00	0.0
	5	1	9	9	501	0	6.8606027109E+01	-3.7237618274E+01	-3.2617539580E+01	8.4704211576E+01	4.1800000000E+00	0.000E+00	0.0
</event>
<event>
    11  -1  1.0000000E+00  1.0000000E+00  -1.0000000E+00  -1.0000000E+00
	2212	-1	0	0	0	0	0.0000000000E+00	0.0000000000E+00	6.5000000000E+03	6.5000000000E+03	9.3827000000E-01	0.000E+00	0.0
	2212	-1	0	0	0	0	0.0000000000E+00	0.0000000000E+00	-6.5000000000E+03	6.5000000000E+03	9.3827000000E-01	0.000E+00	0.0
	2212	1	0	0	0	0	0.0000000000E+00	0.0000000000E+00	6.2758642979E+03	6.2758642979E+03	9.3827000000E-01	0.000E+00	0.0
	2212	1	0	0	0	0	0.0000000000E+00	0.0000000000E+00	-5.2709829809E+03	5.2709829809E+03	9.3827000000E-01	0.000E+00	0.0
	51	2	1	2	0	0	5.4889353245E+01	1.1007426205E+02	-1.1233986942E+03	1.5424072679E+03	1.0496982279E+03	0.000E+00	0.0
	1000022	2	5	5	0	0	-5.4889353245E+01	-1.1007426205E+02	-7.1194304155E+02	1.1116691811E+03	8.4487649367E+02	0.000E+00	0.0
	14	1	6	6	0	0	-1.6216713674E+02	-1.1159783773E+02	-6.6542842234E+02	7.6627165084E+02	3.2500000000E+02	0.000E+00	0.0
	-14	1	6	6	0	0	1.0727778350E+02	1.5235756798E+00	-4.6514619207E+01	3.4539753027E+02	3.2500000000E+02	0.000E+00	0.0
	25	2	5	5	0	0	5.4889353245E+01	1.1007426205E+02	-2.9293827548E+02	3.4148354005E+02	1.2517583879E+02	0.000E+00	0.0
	-5	1	9	9	0	501	3.8426334336E+01	6.3264159728E+01	-2.8053448535E+02	2.9016548201E+02	4.1800000000E+00	0.000E+00	0.0
	5	1	9	9	501	0	1.6463018910E+01	4.6810102327E+01	-1.2403790124E+01	5.1318058039E+01	4.1800000000E+00	0.000E+00	0.0
</event>
<event>
    11  -1  1.0000000E+00  1.0000000E+00  -1.0000000E+00  -1.0000000E+00
	2212	-1	0	0	0	0	0.0000000000E+00	0.0000000000E+00	6.5000000000E+03	6.5000000000E+03	9.3827000000E-01	0.000E+00	0.0
	2212	-1	0	0	0	0	0.0000000000E+00	0.0000000000E+00	-6.5000000000E+03	6.5000000000E+03	9.3827000000E-01	0.000E+00	0.0
	2212	1	0	0	0	0	0.0000000000E+00	0.0000000000E+00	4.8666335448E+03	4.8666335448E+03	9.3827000000E-01	0.000E+00	0.0
	2212	1	0	0	0	0	0.0000000000E+00	0.0000000000E+00	-6.3358669094E+03	6.3358669094E+03	9.3827000000E-01	0.000E+00	0.0
	51	2	1	2	0	0	1.1554098685E+02	-1.6364492256E+01	1.3955765079E+03	1.7417259380E+03	1.0355471682E+03	0.000E+00	0.0
	1000022	2	5	5	0	0	-1.1554098685E+02	1.6364492256E+01	1.3013447446E+03	1.5577599322E+03	8.4823366224E+02	0.000E+00	0.0
	14	1	6	6	0	0	-3.2467535810E+02	-4.0424642215E+01	7.8289442386E+02	9.0862363978E+02	3.2500000000E+02	0.000E+00	0.0
	-14	1	6	6	0	0	2.0913437125E+02	5.6789134471E+01	5.1845032077E+02	6.4913629243E+02	3.2500000000E+02	0.000E+00	0.0
	25	2	5	5	0	0	1.1554098685E+02	-1.6364492256E+01	1.6788861993E+02	2.3973961359E+02	1.2518377440E+02	0.000E+00	0.0
	-5	1	9	9	0	501	3.9649947337E+01	-3.5550776879E+00	-1.3830228693E+01	4.2349787802E+01	4.1800000000E+00	0.000E+00	0.0
	5	1	9	9	501	0	7.5891039509E+01	-1.2809414568E+01	1.8171884862E+02	1.9738982578E+02	4.1800000000E+00	0.000E+00	0.0
</event>
<event>
    11  -1  1.0000000E+00  1.0000000E+00  -1.0000000E+00  -1.0000000E+00
	2212	-1	0	0	0	0	0.0000000000E+00	0.0000000000E+00	6.5000000000E+03	6.5000000000E+03	9.3827000000E-01	0.000E+00	0.0
	2212	-1	0	0	0	0	0.0000000000E+00	0.0000000000E+00	-6.5000000000E+03	6.5000000000E+03	9.3827000000E-01	0.000E+00	0.0
	2212	1	0	0	0	0	0.0000000000E+00	0.0000000000E+00	5.9038971054E+03	5.9038971054E+03	9.3827000000E-01	0.000E+00	0.0
	2212	1	0	0	0	0	0.0000000000E+00	0.0000000000E+00	-6.0392676112E+03	6.0392676112E+03	9.3827000000E-01	0.000E+00	0.0
	51	2	1	2	0	0	1.0432473696E+02	-9.8319990618E+01	1.0558471243E+02	1.0631435676E+03	1.0481295924E+03	0.000E+00	0.0
	1000022	2	5	5	0	0	-1.0432473696E+02	9.8319990618E+01	1.4157343433E+02	8.6641596724E+02	8.4266429833E+02	0.000E+00	0.0
	14	1	6	6	0	0	1.6791783553E+01	2.6497231540E+02	-7.2806759215E+01	4.2593205575E+02	3.2500000000E+02	0.000E+00	0.0
	-14	1	6	6	0	0	-1.2111652051E+02	-1.6665232478E+02	2.1438019355E+02	4.4048391149E+02	3.2500000000E+02	0.000E+00	0.0
	25	2	5	5	0	0	1.0432473696E+02	-9.8319990618E+01	-6.2029285894E+00	1.9041931620E+02	1.2518214075E+02	0.000E+00	0.0
	-5	1	9	9	0	501	3.4625038045E+01	-5.8668607029E+01	-6.2345564765E+01	9.2441011225E+01	4.1800000000E+00	0.000E+00	0.0
	5	1	9	9	501	0	6.9699698913E+01	-3.9651383589E+01	5.6142636176E+01	9.7978304976E+01	4.1800000000E+00	0.000E+00	0.0
</event>
<event>
    11  -1  1.0000000E+00  1.0000000E+00  -1.0000000E+00  -1.0000000E+00
	2212	-1	0	0	0	0	0.0000000000E+00	0.0000000000E+00	6.5000000000E+03	6.5000000000E+03	9.3827000000E-01	0.000E+00	0.0
	2212	-1	0	0	0	0	0.0000000000E+00	0.0000000000E+00	-6.5000000000E+03	6.5000000000E+03	9.3827000000E-01	0.000E+00	0.0
	2212	1	0	0	0	0	0.0000000000E+00	0.0000000000E+00	6.1644535115E+03	6.1644535115E+03	9.3827000000E-01	0.000E+00	0.0
	2212	1	0	0	0	0	0.0000000000E+00	0.0000000000E+00	-5.6769824470E+03	5.6769824470E+03	9.3827000000E-01	0.000E+00	0.0
	51	2	1	2	0	0	8.2818926674E+00	1.2371842368E+02	-4.2108097880E+02	1.1390024707E+03	1.0510197902E+03	0.000E+00	0.0
	1000022	2	5	5	0	0	-8.2818926674E+00	-1.2371842368E+02	-4.7118634586E+02	9.8163383557E+02	8.5218165698E+02	0.000E+00	0.0
	14	1	6	6	0	0	-6.4383717351E+01	-1.8930040322E+02	2.4819353448E+01	3.8238842297E+02	3.2500000000E+02	0.000E+00	0.0
	-14	1	6	6	0	0	5.6101824683E+01	6.5581979534E+01	-4.9600569930E+02	5.9924541259E+02	3.2500000000E+02	0.000E+00	0.0
	25	2	5	5	0	0	8.2818926674E+00	1.2371842368E+02	-1.6284718696E+01	1.7693020594E+02	1.2515697187E+02	0.000E+00	0.0
	-5	1	9	9	0	501	-3.8495607015E+01	1.0983980810E+01	2.5739910873E+01	4.7776301716E+01	4.1800000000E+00	0.000E+00	0.0
	5	1	9	9	501	0	4.6777499683E+01	1.1273444287E+02	-4.2024629569E+01	1.2915390422E+02	4.1800000000E+00	0.000E+00	0.0
</event>
<event>
    11  -1  1.0000000E+00  1.0000000E+00  -1.0000000E+00  -1.0000000E+00
	2212	-1	0	0	0	0	0.0000000000E+00	0.0000000000E+00	6.5000000000E+03	6.5000000000E+03	9.3827000000E-01	0.000E+00	0.0
	2212	-1	0	0	0	0	0.0000000000E+00	0.0000000000E+00	-6.5000000000E+03	6.5000000000E+03	9.3827000000E-01	0.000E+00	0.0
	2212	1	0	0	0	0	0.0000000000E+00	0.0000000000E+00	6.2710998414E+03	6.2710998414E+03	9.3827000000E-01	0.000E+00	0.0
	2212	1	0	0	0	0	0.0000000000E+00	0.0000000000E+00	-5.1899458611E+03	5.1899458611E+03	9.3827000000E-01	0.000E+00	0.0
	51	2	1	2	0	0	-1.1877761110E+02	-8.1919571707E+01	-1.0671561708E+03	1.5359451913E+03	1.0952106651E+03	0.000E+00	0.0
	1000022	2	5	5	0	0	1.1877761110E+02	8.1919571707E+01	-9.1533741056E+02	1.2860090100E+03	8.9171613278E+02	0.000E+00	0.0
	14	1	6	6	0	0	-1.7736494477E+02	2.2226504877E+02	-5.3782068049E+02	6.8973629737E+02	3.2500000000E+02	0.000E+00	0.0
	-14	1	6	6	0	0	2.9614255587E+02	-1.4034547707E+02	-3.7751673007E+02	5.9627271261E+02	3.2500000000E+02	0.000E+00	0.0
	25	2	5	5	0	0	-1.1877761110E+02	-8.1919571707E+01	-1.6581656967E+02	2.5294528754E+02	1.2516887228E+02	0.000E+00	0.0
	-5	1	9	9	0	501	4.9033474488E+00	-6.0786367534E+01	-8.0831339041E+01	1.0134201037E+02	4.1800000000E+00	0.000E+00	0.0
	5	1	9	9	501	0	-1.2368095855E+02	-2.1133204173E+01	-8.4985230625E+01	1.5160327717E+02	4.1800000000E+00	0.000E+00	0.0
</event>
<event>
    11  -1  1.0000000E+00  1.0000000E+00  -1.0000000E+00  -1.0000000E+00
	2212	-1	0	0	0	0	0.0000000000E+00	0.0000000000E+00	6.5000000000E+03	6.5000000000E+03	9.3827000000E-01	0.000E+00	0.0
	2212	-1	0	0	0	0	0.0000000000E+00	0.0000000000E+00	-6.5000000000E+03	6.5000000000E+03	9.3827000000E-01	0.000E+00	0.0
	2212	1	0	0	0	0	0.0000000000E+00	0.0000000000E+00	6.1541216676E+03	6.1541216676E+03	9.3827000000E-01	0.000E+00	0.0
	2212	1	0	0	0	0	0.0000000000E+00	0.0000000000E+00	-5.7049253610E+03	5.7049253610E+03	9.3827000000E-01	0.000E+00	0.0
	51	2	1	2	0	0	-6.9796106350E+01	-3.7169271086E+01	-5.7725061081E+02	1.1997781795E+03	1.0488071134E+03	0.000E+00	0.0
	1000022	2	5	5	0	0	6.9796106350E+01	3.7169271086E+01	-2.4500087571E+02	8.8873025914E+02	8.5062506031E+02	0.000E+00	0.0
	14	1	6	6	0	0	2.9772510056E+02	9.1512962627E+01	-1.6954397141E+02	4.8102496408E+02	3.2500000000E+02	0.000E+00	0.0
	-14	1	6	6	0	0	-2.2792899420E+02	-5.4343691541E+01	-7.5456904298E+01	4.0770529505E+02	3.2500000000E+02	0.000E+00	0.0
	25	2	5	5	0	0	-6.9796106350E+01	-3.7169271086E+01	-2.0419543081E+02	2.5222271225E+02	1.2516977046E+02	0.000E+00	0.0
	-5	1	9	9	0	501	3.6450478572E+00	-9.5176237549E+00	1.5431371401E+01	1.8959724658E+01	4.1800000000E+00	0.000E+00	0.0
	5	1	9	9	501	0	-7.3441154208E+01	-2.7651647331E+01	-2.1962680221E+02	2.3326298760E+02	4.1800000000E+00	0.000E+00	0.0
</event>
<event>
    11  -1  1.0000000E+00  1.0000000E+00  -1.0000000E+00  -1.0000000E+00
	2212	-1	0	0	0	0	0.0000000000E+00	0.0000000000E+00	6.5000000000E+03	6.5000000000E+03	9.3827000000E-01	0.000E+00	0.0
	2212	-1	0	0	0	0	0.0000000000E+00	0.0000000000E+00	-6.5000000000E+03	6.5000000000E+03	9.3827000000E-01	0.000E+00	0.0
	2212	1	0	0	0	0	0.0000000000E+00	0.0000000000E+00	5.8009821465E+03	5.8009821465E+03	9.3827000000E-01	0.000E+00	0.0
	2212	1	0	0	0	0	0.0000000000E+00	0.0000000000E+00	-6.0972059080E+03	6.0972059080E+03	9.3827000000E-01	0.000E+00	0.0
	51	2	1	2	0	0	-1.0566931249E+02	8.4486626368E+01	2.9578991296E+02	1.1099714917E+03	1.0612450453E+03	0.000E+00	0.0
	1000022	2	5	5	0	0	1.0566931249E+02	-8.4486626368E+01	2.4760322786E+02	9.1119335527E+02	8.6640751301E+02	0.000E+00	0.0
	14	1	6	6	0	0	2.4753811883E+02	1.2282529916E+02	2.6118063727E+02	5.0020145909E+02	3.2500000000E+02	0.000E+00	0.0
	-14	1	6	6	0	0	-1.4186880634E+02	-2.0731192553E+02	-1.3577409412E+01	4.1099189618E+02	3.2500000000E+02	0.000E+00	0.0
	25	2	5	5	0	0	-1.0566931249E+02	8.4486626368E+01	4.8620533656E+01	1.9061859015E+02	1.2516987250E+02	0.000E+00	0.0
	-5	1	9	9	0	501	-8.2057300144E+01	6.9146329245E+01	-2.6224261942E+01	1.1054320273E+02	4.1800000000E+00	0.000E+00	0.0
	5	1	9	9	501	0	-2.3612012346E+01	1.5340297122E+01	7.4844795599E+01	8.0075387423E+01	4.1800000000E+00	0.000E+00	0.0
</event>
<event>
    11  -1  1.0000000E+00  1.0000000E+00  -1.0000000E+00  -1.0000000E+00
	2212	-1	0	0	0	0	0.0000000000E+00	0.0000000000E+00	6.5000000000E+03	6.5000000000E+03	9.3827000000E-01	0.000E+00	0.0
	2212	-1	0	0	0	0	0.0000000000E+00	0.0000000000E+00	-6.5000000000E+03	6.5000000000E+03	9.3827000000E-01	0.000E+00	0.0
	2212	1	0	0	0	0	0.0000000000E+00	0.0000000000E+00	5.5620284546E+03	5.5620284546E+03	9.3827000000E-01	0.000E+00	0.0
	2212	1	0	0	0	0	0.0000000000E+00	0.0000000000E+00	-6.2044694214E+03	6.2044694214E+03	9.3827000000E-01	0.000E+00	0.0
	51	2	1	2	0	0	-1.4064968535E+02	-8.4484541530E+00	6.5307519359E+02	1.2470597472E+03	1.0529943467E+03	0.000E+00	0.0
	1000022	2	5	5	0	0	1.4064968535E+02	8.4484541530E+00	5.2252018287E+02	1.0101116800E+03	8.5290360191E+02	0.000E+00	0.0
	14	1	6	6	0	0	-3.3698217379E+01	-2.2556599373E+02	1.1655115140E+02	4.1379313464E+02	3.2500000000E+02	0.000E+00	0.0
	-14	1	6	6	0	0	1.7434790273E+02	2.3401444788E+02	4.0596903148E+02	5.9631854534E+02	3.2500000000E+02	0.000E+00	0.0
	25	2	5	5	0	0	-1.4064968535E+02	-8.4484541530E+00	1.1992078392E+02	2.2339044409E+02	1.2517422150E+02	0.000E+00	0.0
	-5	1	9	9	0	501	-4.5626664102E+01	-3.8806014553E+01	1.0702742504E+02	1.2271936014E+02	4.1800000000E+00	0.000E+00	0.0
	5	1	9	9	501	0	-9.5023021245E+01	3.0357560400E+01	1.2893358884E+01	1.0067108395E+02	4.1800000000E+00	0.000E+00	0.0
</event>
<event>
    11  -1  1.0000000E+00  1.0000000E+00  -1.0000000E+00  -1.0000000E+00
	2212	-1	0	0	0	0	0.0000000000E+00	0.0000000000E+00	6.5000000000E+03	6.5000000000E+03	9.3827000000E-01	0.000E+00	0.0
	2212	-1	0	0	0	0	0.0000000000E+00	0.0000000000E+00	-6.5000000000E+03	6.5000000000E+03	9.3827000000E-01	0.000E+00	0.0
	2212	1	0	0	0	0	0.0000000000E+00	0.0000000000E+00	6.2247670455E+03	6.2247670455E+03	9.3827000000E-01	0.000E+00	0.0
	2212	1	0	0	0	0	0.0000000000E+00	0.0000000000E+00	-5.4897683584E+03	5.4897683584E+03	9.3827000000E-01	0.000E+00	0.0
	51	2	1	2	0	0	2.5246286810E+01	-1.1986328509E+02	-8.2711690583E+02	1.3458540469E+03	1.0546071106E+03	0.000E+00	0.0
	1000022	2	5	5	0	0	-2.5246286810E+01	1.1986328509E+02	-5.1793560190E+02	1.0065547515E+03	8.5433634945E+02	0.000E+00	0.0
	14	1	6	6	0	0	-4.9865210333E+01	-1.7625744354E+02	-7.2220228789E+01	3.7999208814E+02	3.2500000000E+02	0.000E+00	0.0
	-14	1	6	6	0	0	2.4618923524E+01	2.9612072863E+02	-4.4571537311E+02	6.2656266339E+02	3.2500000000E+02	0.000E+00	0.0
	25	2	5	5	0	0	2.5246286810E+01	-1.1986328509E+02	-2.1706308527E+02	2.7890984456E+02	1.2517881726E+02	0.000E+00	0.0
	-5	1	9	9	0	501	-1.4917851461E+01	-1.4533075009E+01	1.1405198370E+01	2.4110236649E+01	4.1800000000E+00	0.000E+00	0.0
	5	1	9	9	501	0	4.0164138271E+01	-1.0533021009E+02	-2.2846828364E+02	2.5479960791E+02	4.1800000000E+00	0.000E+00	0.0
</event>
<event>
    11  -1  1.0000000E+00  1.0000000E+00  -1.0000000E+00  -1.0000000E+00
	2212	-1	0	0	0	0	0.0000000000E+00	0.0000000000E+00	6.5000000000E+03	6.5000000000E+03	9.3827000000E-01	0.000E+00	0.0
	2212	-1	0	0	0	0	0.0000000000E+00	0.0000000000E+00	-6.5000000000E+03	6.5000000000E+03	9.3827000000E-01	0.000E+00	0.0
	2212	1	0	0	0	0	0.0000000000E+00	0.0000000000E+00	4.9101713487E+03	4.9101713487E+03	9.3827000000E-01	0.000E+00	0.0
	2212	1	0	0	0	0	0.0000000000E+00	0.0000000000E+00	-6.3285162394E+03	6.3285162394E+03	9.3827000000E-01	0.000E+00	0.0
	51	2	1	2	0	0	4.4623739916E+01	1.1574018210E+02	1.3550362922E+03	1.7152345625E+03	1.0442792649E+03	0.000E+00	0.0
	1000022	2	5	5	0	0	-4.4623739916E+01	-1.1574018210E+02	1.2461159947E+03	1.5148978532E+03	8.5248071267E+02	0.000E+00	0.0
	14	1	6	6	0	0	-2.5029687305E+02	-1.0789482399E+02	3.8950835627E+02	5.7587461943E+02	3.2500000000E+02	0.000E+00	0.0
	-14	1	6	6	0	0	2.0567313314E+02	-7.8453581100E+00	8.5660763846E+02	9.3902323380E+02	3.2500000000E+02	0.000E+00	0.0
	25	2	5	5	0	0	4.4623739916E+01	1.1574018210E+02	1.7222889597E+02	2.4641455862E+02	1.2518096571E+02	0.000E+00	0.0
	-5	1	9	9	0	501	1.3977457624E+01	1.3651214046E+02	1.4851542543E+02	2.0225043339E+02	4.1800000000E+00	0.000E+00	0.0
	5	1	9	9	501	0	3.0646282292E+01	-2.0771958361E+01	2.3713470541E+01	4.4164125233E+01	4.1800000000E+00	0.000E+00	0.0
</event>
<event>
    11  -1  1.0000000E+00  1.0000000E+00  -1.0000000E+00  -1.0000000E+00
	2212	-1	0	0	0	0	0.0000000000E+00	0.0000000000E+00	6.5000000000E+03	6.5000000000E+03	9.3827000000E-01	0.000E+00	0.0
	2212	-1	0	0	0	0	0.0000000000E+00	0.0000000000E+00	-6.5000000000E+03	6.5000000000E+03	9.3827000000E-01	0.000E+00	0.0
	2212	1	0	0	0	0	0.0000000000E+00	0.0000000000E+00	6.2302143536E+03	6.2302143536E+03	9.3827000000E-01	0.000E+00	0.0
	2212	1	0	0	0	0	0.0000000000E+00	0.0000000000E+00	-5.4782427987E+03	5.4782427987E+03	9.3827000000E-01	0.000E+00	0.0
	51	2	1	2	0	0	-2.4061864131E+01	2.0578437597E+02	-6.6517818064E+02	1.2601626493E+03	1.0500579545E+03	0.000E+00	0.0
	1000022	2	5	5	0	0	2.4061864131E+01	-2.0578437597E+02	-6.7207599238E+02	1.0366277696E+03	7.6156733813E+02	0.000E+00	0.0
	14	1	6	6	0	0	-9.3291460209E+01	-2.6562612781E+02	-2.9359336943E+02	5.2065593524E+02	3.2500000000E+02	0.000E+00	0.0
	-14	1	6	6	0	0	1.1735332434E+02	5.9841751837E+01	-3.7848262294E+02	5.1597183437E+02	3.2500000000E+02	0.000E+00	0.0
	25	2	5	5	0	0	-2.4061864131E+01	2.0578437597E+02	-7.9895562567E+01	2.5491507804E+02	1.2518871113E+02	0.000E+00	0.0
	-5	1	9	9	0	501	-1.4285242830E+01	-9.9489485906E+00	1.0513494455E+01	2.0761881090E+01	4.1800000000E+00	0.000E+00	0.0
	5	1	9	9	501	0	-9.7766213017E+00	2.1573332456E+02	-9.0409057022E+01	2.3415319695E+02	4.1800000000E+00	0.000E+00	0.0
</event>
<event>
    11  -1  1.0000000E+00  1.0000000E+00  -1.0000000E+00  -1.0000000E+00
	2212	-1	0	0	0	0	0.0000000000E+00	0.0000000000E+00	6.5000000000E+03	6.5000000000E+03	9.3827000000E-01	0.000E+00	0.0
	2212	-1	0	0	0	0	0.0000000000E+00	0.0000000000E+00	-6.5000000000E+03	6.5000000000E+03	9.3827000000E-01	0.000E+00	0.0
	2212	1	0	0	0	0	0.0000000000E+00	0.0000000000E+00	5.6796230548E+03	5.6796230548E+03	9.3827000000E-01	0.000E+00	0.0
	2212	1	0	0	0	0	0.0000000000E+00	0.0000000000E+00	-6.1646018722E+03	6.1646018722E+03	9.3827000000E-01	0.000E+00	0.0
	51	2	1	2	0	0	9.9943189488E+01	-4.0756556856E+01	5.3809145738E+02	1.1839779224E+03	1.0491003604E+03	0.000E+00	0.0
	1000022	2	5	5	0	0	-9.9943189488E+01	4.0756556856E+01	3.5563056255E+02	9.4589166326E+02	8.6982078818E+02	0.000E+00	0.0
	14	1	6	6	0	0	-9.7367170972E+01	-1.5923098522E+02	-6.2327802432E+01	3.7992713459E+02	3.2500000000E+02	0.000E+00	0.0
	-14	1	6	6	0	0	-2.5760185168E+00	1.9998754208E+02	4.1795836498E+02	5.6596452867E+02	3.2500000000E+02	0.000E+00	0.0
	25	2	5	5	0	0	9.9943189488E+01	-4.0756556856E+01	1.2934825485E+02	2.0988340978E+02	1.2518121511E+02	0.000E+00	0.0
	-5	1	9	9	0	501	1.1415344326E+01	-5.3575328852E+01	1.0267182729E+02	1.1644570609E+02	4.1800000000E+00	0.000E+00	0.0
	5	1	9	9	501	0	8.8527845162E+01	1.2818771996E+01	2.6676427564E+01	9.3437703696E+01	4.1800000000E+00	0.000E+00	0.0
</event>
<event>
    11  -1  1.0000000E+00  1.0000000E+00  -1.0000000E+00  -1.0000000E+00
	2212	-1	0	0	0	0	0.0000000000E+00	0.0000000000E+00	6.5000000000E+03	6.5000000000E+03	9.3827000000E-01	0.000E+00	0.0
	2212	-1	0	0	0	0	0.0000000000E+00	0.0000000000E+00	-6.5000000000E+03	6.5000000000E+03	9.3827000000E-01	0.000E+00	0.0
	2212	1	0	0	0	0	0.0000000000E+00	0.0000000000E+00	5.7083244825E+03	5.7083244825E+03	9.3827000000E-01	0.000E+00	0.0
	2212	1	0	0	0	0	0.0000000000E+00	0.0000000000E+00	-6.1557421471E+03	6.1557421471E+03	9.3827000000E-01	0.000E+00	0.0
	51	2	1	2	0	0	3.9258266673E+01	-5.0269953248E+01	5.4162991073E+02	1.1779614999E+03	1.0441082584E+03	0.000E+00	0.0
	1000022	2	5	5	0	0	-3.9258266673E+01	5.0269953248E+01	2.8524796395E+02	9.2137038939E+02	8.7377841231E+02	0.000E+00	0.0
	14	1	6	6	0	0	-3.0601285169E+02	-1.8611959341E+01	1.8567491620E+02	4.8382894182E+02	3.2500000000E+02	0.000E+00	0.0
	-14	1	6	6	0	0	2.6675458502E+02	6.8881912590E+01	9.9573047749E+01	4.3754144758E+02	3.2500000000E+02	0.000E+00	0.0
	25	2	5	5	0	0	3.9258266673E+01	-5.0269953248E+01	1.6216970062E+02	2.1456298097E+02	1.2517979591E+02	0.000E+00	0.0
	-5	1	9	9	0	501	5.6030814510E+01	-7.3474155155E+01	6.4671352243E+01	1.1286168460E+02	4.1800000000E+00	0.000E+00	0.0
	5	1	9	9	501	0	-1.6772547837E+01	2.3204201907E+01	9.7498348379E+01	1.0170129637E+02	4.1800000000E+00	0.000E+00	0.0
</event>
<event>
    11  -1  1.0000000E+00  1.0000000E+00  -1.0000000E+00  -1.0000000E+00
	2212	-1	0	0	0	0	0.0000000000E+00	0.0000000000E+00	6.5000000000E+03	6.5000000000E+03	9.3827000000E-01	0.000E+00	0.0
	2212	-1	0	0	0	0	0.0000000000E+00	0.0000000000E+00	-6.5000000000E+03	6.5000000000E+03	9.3827000000E-01	0.000E+00	0.0
	2212	1	0	0	0	0	0.0000000000E+00	0.0000000000E+00	6.3220746922E+03	6.3220746922E+03	9.3827000000E-01	0.000E+00	0.0
	2212	1	0	0	0	0	0.0000000000E+00	0.0000000000E+00	-4.9659298772E+03	4.9659298772E+03	9.3827000000E-01	0.000E+00	0.0
	51	2	1	2	0	0	1.1147378196E+02	8.4469584257E+01	-1.3920197738E+03	1.7461615505E+03	1.0448921452E+03	0.000E+00	0.0
	1000022	2	5	5	0	0	-1.1147378196E+02	-8.4469584257E+01	-1.0881840691E+03	1.3848445183E+03	8.4503742927E+02	0.000E+00	0.0
	14	1	6	6	0	0	1.8600681240E+02	5.7151261619E+01	-3.6352220175E+02	5.2501256378E+02	3.2500000000E+02	0.000E+00	0.0
	-14	1	6	6	0	0	-2.9748059435E+02	-1.4162084588E+02	-7.2466186730E+02	8.5983195447E+02	3.2500000000E+02	0.000E+00	0.0
	25	2	5	5	0	0	1.1147378196E+02	8.4469584257E+01	-2.6796074593E+02	3.2715091233E+02	1.2515287991E+02	0.000E+00	0.0
	-5	1	9	9	0	501	-2.1955147204E+01	3.7841384207E+01	-8.7236729663E+01	9.7681719117E+01	4.1800000000E+00	0.000E+00	0.0
	5	1	9	9	501	0	1.3342892916E+02	4.6628200049E+01	-1.8072401627E+02	2.2946919321E+02	4.1800000000E+00	0.000E+00	0.0
</event>
<event>
    11  -1  1.0000000E+00  1.0000000E+00  -1.0000000E+00  -1.0000000E+00
	2212	-1	0	0	0	0	0.0000000000E+00	0.0000000000E+00	6.5000000000E+03	6.5000000000E+03	9.3827000000E-01	0.000E+00	0.0
	2212	-1	0	0	0	0	0.0000000000E+00	0.0000000000E+00	-6.5000000000E+03	6.5000000000E+03	9.3827000000E-01	0.000E+00	0.0
	2212	1	0	0	0	0	0.0000000000E+00	0.0000000000E+00	5.4756070770E+03	5.4756070770E+03	9.3827000000E-01	0.000E+00	0.0
	2212	1	0	0	0	0	0.0000000000E+00	0.0000000000E+00	-6.2307013561E+03	6.2307013561E+03	9.3827000000E-01	0.000E+00	0.0
	51	2	1	2	0	0	1.3468029850E+02	-2.0549563196E+01	7.6160299726E+02	1.3046343138E+03	1.0504620411E+03	0.000E+00	0.0
	1000022	2	5	5	0	0	-1.3468029850E+02	2.0549563196E+01	6.2191998456E+02	1.0657346107E+03	8.5466059101E+02	0.000E+00	0.0
	14	1	6	6	0	0	-2.9772322441E+02	9.2157598011E+01	1.7002569000E+02	4.8131681509E+02	3.2500000000E+02	0.000E+00	0.0
	-14	1	6	6	0	0	1.6304292591E+02	-7.1608034815E+01	4.5189429456E+02	5.8441779558E+02	3.2500000000E+02	0.000E+00	0.0
	25	2	5	5	0	0	1.3468029850E+02	-2.0549563196E+01	1.3317429451E+02	2.2795695618E+02	1.2517153751E+02	0.000E+00	0.0
	-5	1	9	9	0	501	-1.4282802593E+01	1.4245690078E+01	4.9339721359E+01	5.3467921593E+01	4.1800000000E+00	0.000E+00	0.0
	5	1	9	9	501	0	1.4896310109E+02	-3.4795253274E+01	8.3834573153E+01	1.7448903459E+02	4.1800000000E+00	0.000E+00	0.0
</event>
<event>
    11  -1  1.0000000E+00  1.0000000E+00  -1.0000000E+00  -1.0000000E+00
	2212	-1	0	0	0	0	0.0000000000E+00	0.0000000000E+00	6.5000000000E+03	6.5000000000E+03	9.3827000000E-01	0.000E+00	0.0
	2212	-1	0	0	0	0	0.0000000000E+00	0.0000000000E+00	-6.5000000000E+03	6.5000000000E+03	9.3827000000E-01	0.000E+00	0.0
	2212	1	0	0	0	0	0.0000000000E+00	0.0000000000E+00	6.2938839071E+03	6.2938839071E+03	9.3827000000E-01	0.000E+00	0.0
	2212	1	0	0	0	0	0.0000000000E+00	0.0000000000E+00	-5.1809912904E+03	5.1809912904E+03	9.3827000000E-01	0.000E+00	0.0
	51	2	1	2	0	0	-1.0419662081E+02	7.9530300542E+00	-1.0193034862E+03	1.4619765628E+03	1.0428210234E+03	0.000E+00	0.0
	1000022	2	5	5	0	0	1.0419662081E+02	-7.9530300542E+00	-1.0253046189E+03	1.3399851768E+03	8.5638223125E+02	0.000E+00	0.0
	14	1	6	6	0	0	2.7815405622E+02	1.1741782737E+02	-7.1790830463E+02	8.4390399871E+02	3.2500000000E+02	0.000E+00	0.0
	-14	1	6	6	0	0	-1.7395743541E+02	-1.2537085742E+02	-3.0739631430E+02	4.9608117811E+02	3.2500000000E+02	0.000E+00	0.0
	25	2	5	5	0	0	-1.0419662081E+02	7.9530300542E+00	-8.7587997842E+01	1.8513962569E+02	1.2523911993E+02	0.000E+00	0.0
	-5	1	9	9	0	501	-5.0664644455E+01	8.6929210879E+00	-1.1412713035E+02	1.2523955987E+02	4.1800000000E+00	0.000E+00	0.0
	5	1	9	9	501	0	-5.3531976351E+01	-7.3989103370E-01	2.6539132507E+01	5.9900065818E+01	4.1800000000E+00	0.000E+00	0.0
</event>
<event>
    11  -1  1.0000000E+00  1.0000000E+00  -1.0000000E+00  -1.0000000E+00
	2212	-1	0	0	0	0	0.0000000000E+00	0.0000000000E+00	6.5000000000E+03	6.5000000000E+03	9.3827000000E-01	0.000E+00	0.0
	2212	-1	0	0	0	0	0.0000000000E+00	0.0000000000E+00	-6.5000000000E+03	6.5000000000E+03	9.3827000000E-01	0.000E+00	0.0
	2212	1	0	0	0	0	0.0000000000E+00	0.0000000000E+00	5.4416194481E+03	5.4416194481E+03	9.3827000000E-01	0.000E+00	0.0
	2212	1	0	0	0	0	0.0000000000E+00	0.0000000000E+00	-6.2442323358E+03	6.2442323358E+03	9.3827000000E-01	0.000E+00	0.0
	51	2	1	2	0	0	-5.9596885894E+01	1.1346958320E+02	7.5630670839E+02	1.2927587008E+03	1.0405758436E+03	0.000E+00	0.0
	1000022	2	5	5	0	0	5.9596885894E+01	-1.1346958320E+02	7.1369059029E+02	1.1141230690E+03	8.4586572172E+02	0.000E+00	0.0
	14	1	6	6	0	0	-1.2376486827E+02	1.5351070855E+02	4.3323275715E+02	5.7636698563E+02	3.2500000000E+02	0.000E+00	0.0
	-14	1	6	6	0	0	1.8336175416E+02	-2.6698029176E+02	2.8045783314E+02	5.3775608341E+02	3.2500000000E+02	0.000E+00	0.0
	25	2	5	5	0	0	-5.9596885894E+01	1.1346958320E+02	8.8922297406E+01	2.0002514699E+02	1.2520283275E+02	0.000E+00	0.0
	-5	1	9	9	0	501	-6.9242705381E+01	8.6023246616E+01	1.1589292110E+02	1.6013492051E+02	4.1800000000E+00	0.000E+00	0.0
	5	1	9	9	501	0	9.6458194861E+00	2.7446336587E+01	-2.6970623693E+01	3.9890226472E+01	4.1800000000E+00	0.000E+00	0.0
</event>
<event>
    11  -1  1.0000000E+00  1.0000000E+00  -1.0000000E+00  -1.0000000E+00
	2212	-1	0	0	0	0	0.0000000000E+00	0.0000000000E+00	6.5000000000E+03	6.5000000000E+03	9.3827000000E-01	0.000E+00	0.0
	2212	-1	0	0	0	0	0.0000000000E+00	0.0000000000E+00	-6.5000000000E+03	6.5000000000E+03	9.3827000000E-01	0.000E+00	0.0
	2212	1	0	0	0	0	0.0000000000E+00	0.0000000000E+00	5.1837502902E+03	5.1837502902E+03	9.3827000000E-01	0.000E+00	0.0
	2212	1	0	0	0	0	0.0000000000E+00	0.0000000000E+00	-6.2767252420E+03	6.2767252420E+03	9.3827000000E-01	0.000E+00	0.0
	51	2	1	2	0	0	-1.2340431244E+02	9.2025382200E+01	1.0035087780E+03	1.4853513069E+03	1.0842238431E+03	0.000E+00	0.0
	1000022	2	5	5	0	0	1.2340431244E+02	-9.2025382200E+01	9.8289039055E+02	1.3126177756E+03	8.5626783765E+02	0.000E+00	0.0
	14	1	6	6	0	0	-2.0365529126E+02	-1.2992253808E+02	5.0773520163E+02	6.4944235967E+02	3.2500000000E+02	0.000E+00	0.0
	-14	1	6	6	0	0	3.2705960370E+02	3.7897155882E+01	4.7515518892E+02	6.6317541598E+02	3.2500000000E+02	0.000E+00	0.0
	25	2	5	5	0	0	-1.2340431244E+02	9.2025382200E+01	1.1008456117E+02	2.2690669218E+02	1.2518283049E+02	0.000E+00	0.0
	-5	1	9	9	0	501	-1.6415923071E+01	7.7216408260E+01	1.0155433421E+01	7.9702330348E+01	4.1800000000E+00	0.000E+00	0.0
	5	1	9	9	501	0	-1.0698838937E+02	1.4808973940E+01	9.9929127748E+01	1.4720436183E+02	4.1800000000E+00	0.000E+00	0.0
</event>
<event>
    11  -1  1.0000000E+00  1.0000000E+00  -1.0000000E+00  -1.0000000E+00
	2212	-1	0	0	0	0	0.0000000000E+00	0.0000000000E+00	6.5000000000E+03	6.5000000000E+03	9.3827000000E-01	0.000E+00	0.0
	2212	-1	0	0	0	0	0.0000000000E+00	0.0000000000E+00	-6.5000000000E+03	6.5000000000E+03	9.3827000000E-01	0.000E+00	0.0
	2212	1	0	0	0	0	0.0000000000E+00	0.0000000000E+00	6.0139525857E+03	6.0139525857E+03	9.3827000000E-01	0.000E+00	0.0
	2212	1	0	0	0	0	0.0000000000E+00	0.0000000000E+00	-5.9223858305E+03	5.9223858305E+03	9.3827000000E-01	0.000E+00	0.0
	51	2	1	2	0	0	2.8662755163E+01	-1.6095967741E+02	8.2383031036E+01	1.0754106328E+03	1.0597129300E+03	0.000E+00	0.0
	1000022	2	5	5	0	0	-2.8662755163E+01	1.6095967741E+02	-2.4445031634E+02	8.0720216680E+02	7.5172455702E+02	0.000E+00	0.0
	14	1	6	6	0	0	-1.1057406395E+02	-7.9300146907E+01	-1.5658403555E+02	3.8556283159E+02	3.2500000000E+02	0.000E+00	0.0
	-14	1	6	6	0	0	8.1911308783E+01	2.4025982432E+02	-8.7866280794E+01	4.2163933520E+02	3.2500000000E+02	0.000E+00	0.0
	25	2	5	5	0	0	2.8662755163E+01	-1.6095967741E+02	1.5288356114E+02	2.5645941695E+02	1.2517379114E+02	0.000E+00	0.0
	-5	1	9	9	0	501	5.7468066524E+01	-1.5213133666E+02	8.8358902640E+01	1.8512506675E+02	4.1800000000E+00	0.000E+00	0.0
	5	1	9	9	501	0	-2.8805311361E+01	-8.8283407516E+00	6.4524658501E+01	7.1334350195E+01	4.1800000000E+00	0.000E+00	0.0
</event>
<event>
    11  -1  1.0000000E+00  1.0000000E+00  -1.0000000E+00  -1.0000000E+00
	2212	-1	0	0	0	0	0.0000000000E+00	0.0000000000E+00	6.5000000000E+03	6.5000000000E+03	9.3827000000E-01	0.000E+00	0.0
	2212	-1	0	0	0	0	0.0000000000E+00	0.0000000000E+00	-6.5000000000E+03	6.5000000000E+03	9.3827000000E-01	0.000E+00	0.0
	2212	1	0	0	0	0	0.0000000000E+00	0.0000000000E+00	6.1483694707E+03	6.1483694707E+03	9.3827000000E-01	0.000E+00	0.0
	2212	1	0	0	0	0	0.0000000000E+00	0.0000000000E+00	-5.7232507538E+03	5.7232507538E+03	9.3827000000E-01	0.000E+00	0.0
	51	2	1	2	0	0	9.5751143708E+01	9.0356368081E+01	-4.7603333304E+02	1.1560515920E+03	1.0452344208E+03	0.000E+00	0.0
	1000022	2	5	5	0	0	-9.5751143708E+01	-9.0356368081E+01	-3.0193576470E+02	9.0888829652E+02	8.4710104166E+02	0.000E+00	0.0
	14	1	6	6	0	0	6.7955366430E+01	-4.2518443565E+01	-4.0713508120E+02	5.2707658288E+02	3.2500000000E+02	0.000E+00	0.0
	-14	1	6	6	0	0	-1.6370651014E+02	-4.7837924516E+01	1.0519931651E+02	3.8181171365E+02	3.2500000000E+02	0.000E+00	0.0
	25	2	5	5	0	0	9.5751143708E+01	9.0356368081E+01	-1.2318295220E+02	2.1949147901E+02	1.2517953056E+02	0.000E+00	0.0
	-5	1	9	9	0	501	-9.0716963566E+00	-2.3292530559E+01	-2.8531783814E+01	3.8162451995E+01	4.1800000000E+00	0.000E+00	0.0
	5	1	9	9	501	0	1.0482284006E+02	1.1364889864E+02	-9.4651168386E+01	1.8132902702E+02	4.1800000000E+00	0.000E+00	0.0
</event>
<event>
    11  -1  1.0000000E+00  1.0000000E+00  -1.0000000E+00  -1.0000000E+00
	2212	-1	0	0	0	0	0.0000000000E+00	0.0000000000E+00	6.5000000000E+03	6.5000000000E+03	9.3827000000E-01	0.000E+00	0.0
	2212	-1	0	0	0	0	0.0000000000E+00	0.0000000000E+00	-6.5000000000E+03	6.5000000000E+03	9.3827000000E-01	0.000E+00	0.0
	2212	1	0	0	0	0	0.0000000000E+00	0.0000000000E+00	6.1124336761E+03	6.1124336761E+03	9.3827000000E-01	0.000E+00	0.0
	2212	1	0	0	0	0	0.0000000000E+00	0.0000000000E+00	-5.8217974785E+03	5.8217974785E+03	9.3827000000E-01	0.000E+00	0.0
	51	2	1	2	0	0	3.0466920766E+01	-1.0033876989E+01	-4.1661107787E+02	1.1072432139E+03	1.0253749717E+03	0.000E+00	0.0
	1000022	2	5	5	0	0	-3.0466920766E+01	1.0033876989E+01	-1.1693128355E+02	8.4926747232E+02	8.4056730993E+02	0.000E+00	0.0
	14	1	6	6	0	0	-1.7413618714E+00	2.7108545017E+02	-5.1986087894E+01	4.2640111042E+02	3.2500000000E+02	0.000E+00	0.0
	-14	1	6	6	0	0	-2.8725558895E+01	-2.6105157318E+02	-6.4945195656E+01	4.2286636191E+02	3.2500000000E+02	0.000E+00	0.0
	25	2	5	5	0	0	3.0466920766E+01	-1.0033876989E+01	-1.7370491411E+02	2.1650137311E+02	1.2518200918E+02	0.000E+00	0.0
	-5	1	9	9	0	501	-2.3242561189E+01	4.5662408151E+01	-7.6959636587E+01	9.2550149824E+01	4.1800000000E+00	0.000E+00	0.0
	5	1	9	9	501	0	5.3709481955E+01	-5.5696285140E+01	-9.6745277528E+01	1.2395122329E+02	4.1800000000E+00	0.000E+00	0.0
</event>
<event>
    11  -1  1.0000000E+00  1.0000000E+00  -1.0000000E+00  -1.0000000E+00
	2212	-1	0	0	0	0	0.0000000000E+00	0.0000000000E+00	6.5000000000E+03	6.5000000000E+03	9.3827000000E-01	0.000E+00	0.0
	2212	-1	0	0	0	0	0.0000000000E+00	0.0000000000E+00	-6.5000000000E+03	6.5000000000E+03	9.3827000000E-01	0.000E+00	0.0
	2212	1	0	0	0	0	0.0000000000E+00	0.0000000000E+00	6.3311507072E+03	6.3311507072E+03	9.3827000000E-01	0.000E+00	0.0
	2212	1	0	0	0	0	0.0000000000E+00	0.0000000000E+00	-4.9034191795E+03	4.9034191795E+03	9.3827000000E-01	0.000E+00	0.0
	51	2	1	2	0	0	1.2250043037E+02	4.8846039533E+01	-1.4598994760E+03	1.7963922013E+03	1.0384248504E+03	0.000E+00	0.0
	1000022	2	5	5	0	0	-1.2250043037E+02	-4.8846039533E+01	-1.1565762866E+03	1.4389535289E+03	8.4588785347E+02	0.000E+00	0.0
	14	1	6	6	0	0	-3.2986247040E+02	1.8702170326E+01	-5.8788703041E+02	7.4859547226E+02	3.2500000000E+02	0.000E+00	0.0
	-14	1	6	6	0	0	2.0736204003E+02	-6.7548209859E+01	-5.6868925614E+02	6.9035805663E+02	3.2500000000E+02	0.000E+00	0.0
	25	2	5	5	0	0	1.2250043037E+02	4.8846039533E+01	-2.7115524116E+02	3.2647658447E+02	1.2517789096E+02	0.000E+00	0.0
	-5	1	9	9	0	501	1.3263908863E+02	8.7122979781E+00	-1.6159850845E+02	2.0928588654E+02	4.1800000000E+00	0.000E+00	0.0
	5	1	9	9	501	0	-1.0138658261E+01	4.0133741555E+01	-1.0955673270E+02	1.1719069794E+02	4.1800000000E+00	0.000E+00	0.0
</event>
<event>
    11  -1  1.0000000E+00  1.0000000E+00  -1.0000000E+00  -1.0000000E+00
	2212	-1	0	0	0	0	0.0000000000E+00	0.0000000000E+00	6.5000000000E+03	6.5000000000E+03	9.3827000000E-01	0.000E+00	0.0
	2212	-1	0	0	0	0	0.0000000000E+00	0.0000000000E+00	-6.5000000000E+03	6.5000000000E+03	9.3827000000E-01	0.000E+00	0.0
	2212	1	0	0	0	0	0.0000000000E+00	0.0000000000E+00	6.1555884612E+03	6.1555884612E+03	9.3827000000E-01	0.000E+00	0.0
	2212	1	0	0	0	0	0.0000000000E+00	0.0000000000E+00	-5.6974381419E+03	5.6974381419E+03	9.3827000000E-01	0.000E+00	0.0
	51	2	1	2	0	0	2.2817104448E+00	-9.7703137852E+01	-3.6857462192E+02	1.1185010592E+03	1.0514971508E+03	0.000E+00	0.0
	1000022	2	5	5	0	0	-2.2817104448E+00	9.7703137852E+01	-4.7265217829E+02	9.8749935157E+02	8.6151249460E+02	0.000E+00	0.0
	14	1	6	6	0	0	-6.5510317210E+01	3.2588266453E+02	-2.5870858203E+02	5.3202090478E+02	3.2500000000E+02	0.000E+00	0.0
	-14	1	6	6	0	0	6.3228606766E+01	-2.2817952668E+02	-2.1394359626E+02	4.5547844679E+02	3.2500000000E+02	0.000E+00	0.0
	25	2	5	5	0	0	2.2817104448E+00	-9.7703137852E+01	1.4501859001E+01	1.5947404537E+02	1.2518209890E+02	0.000E+00	0.0
	-5	1	9	9	0	501	-1.2117267623E+01	2.0012966119E+01	-2.4914574405E+01	3.4431895174E+01	4.1800000000E+00	0.000E+00	0.0
	5	1	9	9	501	0	1.4398978068E+01	-1.1771610397E+02	3.9416433406E+01	1.2504215020E+02	4.1800000000E+00	0.000E+00	0.0
</event>
<event>
    11  -1  1.0000000E+00  1.0000000E+00  -1.0000000E+00  -1.0000000E+00
	2212	-1	0	0	0	0	0.0000000000E+00	0.0000000000E+00	6.5000000000E+03	6.5000000000E+03	9.3827000000E-01	0.000E+00	0.0
	2212	-1	0	0	0	0	0.0000000000E+00	0.0000000000E+00	-6.5000000000E+03	6.5000000000E+03	9.3827000000E-01	0.000E+00	0.0
	2212	1	0	0	0	0	0.0000000000E+00	0.0000000000E+00	6.2351548729E+03	6.2351548729E+03	9.3827000000E-01	0.000E+00	0.0
	2212	1	0	0	0	0	0.0000000000E+00	0.0000000000E+00	-5.4574329980E+03	5.4574329980E+03	9.3827000000E-01	0.000E+00	0.0
	51	2	1	2	0	0	1.1487917568E+02	7.4085994718E+01	-7.5018562119E+02	1.2984373633E+03	1.0509401318E+03	0.000E+00	0.0
	1000022	2	5	5	0	0	-1.1487917568E+02	-7.4085994718E+01	-6.7340066149E+02	1.0947240391E+03	8.5221259742E+02	0.000E+00	0.0
	14	1	6	6	0	0	-1.5082295379E+02	-2.2706383738E+02	-5.8579783040E+02	7.2324936760E+02	3.2500000000E+02	0.000E+00	0.0
	-14	1	6	6	0	0	3.5943778108E+01	1.5297784266E+02	-8.7602831092E+01	3.7147467147E+02	3.2500000000E+02	0.000E+00	0.0
	25	2	5	5	0	0	1.1487917568E+02	7.4085994718E+01	-1.0432121339E+02	2.1268808999E+02	1.2516927915E+02	0.000E+00	0.0
	-5	1	9	9	0	501	4.8529955421E+01	7.9451045967E+01	-5.3584365378E+00	9.3347793335E+01	4.1800000000E+00	0.000E+00	0.0
	5	1	9	9	501	0	6.6349220258E+01	-5.3650512491E+00	-9.8962776851E+01	1.1934029666E+02	4.1800000000E+00	0.000E+00	0.0
</event>
<event>
    11  -1  1.0000000E+00  1.0000000E+00  -1.0000000E+00  -1.0000000E+00
	2212	-1	0	0	0	0	0.0000000000E+00	0.0000000000E+00	6.5000000000E+03	6.5000000000E+03	9.3827000000E-01	0.000E+00	0.0
	2212	-1	0	0	0	0	0.0000000000E+00	0.0000000000E+00	-6.5000000000E+03	6.5000000000E+03	9.3827000000E-01	0.000E+00	0.0
	2212	1	0	0	0	0	0.0000000000E+00	0.0000000000E+00	6.2961293540E+03	6.2961293540E+03	9.3827000000E-01	0.000E+00	0.0
	2212	1	0	0	0	0	0.0000000000E+00	0.0000000000E+00	-5.1463191616E+03	5.1463191616E+03	9.3827000000E-01	0.000E+00	0.0
	51	2	1	2	0	0	-9.7840733794E+01	7.7295881379E+01	-1.0626130624E+03	1.4995323040E+03	1.0506679532E+03	0.000E+00	0.0
	1000022	2	5	5	0	0	9.7840733794E+01	-7.7295881379E+01	-1.0409971853E+03	1.3500521627E+03	8.5053996939E+02	0.000E+00	0.0
	14	1	6	6	0	0	-2.2097996249E+02	2.1721150522E+01	-4.6612082128E+02	6.1007997200E+02	3.2500000000E+02	0.000E+00	0.0
	-14	1	6	6	0	0	3.1882069628E+02	-9.9017031901E+01	-5.7487636406E+02	7.3997219065E+02	3.2500000000E+02	0.000E+00	0.0
	25	2	5	5	0	0	-9.7840733794E+01	7.7295881379E+01	-1.0881300706E+02	2.0749932169E+02	1.2517282264E+02	0.000E+00	0.0
	-5	1	9	9	0	501	-7.5978392924E+01	4.2246724882E+01	4.1646629425E+00	8.7133912870E+01	4.1800000000E+00	0.000E+00	0.0
	5	1	9	9	501	0	-2.1862340870E+01	3.5049156497E+01	-1.1297767001E+02	1.2036540882E+02	4.1800000000E+00	0.000E+00	0.0
</event>
<event>
    11  -1  1.0000000E+00  1.0000000E+00  -1.0000000E+00  -1.0000000E+00
	2212	-1	0	0	0	0	0.0000000000E+00	0.0000000000E+00	6.5000000000E+03	6.5000000000E+03	9.3827000000E-01	0.000E+00	0.0
	2212	-1	0	0	0	0	0.0000000000E+00	0.0000000000E+00	-6.5000000000E+03	6.5000000000E+03	9.3827000000E-01	0.000E+00	0.0
	2212	1	0	0	0	0	0.0000000000E+00	0.0000000000E+00	6.3327158053E+03	6.3327158053E+03	9.3827000000E-01	0.000E+00	0.0
	2212	1	0	0	0	0	0.0000000000E+00	0.0000000000E+00	-4.8672288805E+03	4.8672288805E+03	9.3827000000E-01	0.000E+00	0.0
	51	2	1	2	0	0	-2.4223460577E+01	-1.2038637496E+02	-1.5502979811E+03	1.8737797877E+03	1.0452498300E+03	0.000E+00	0.0
	1000022	2	5	5	0	0	2.4223460577E+01	1.2038637496E+02	-1.1388604354E+03	1.4293093196E+03	8.5489320061E+02	0.000E+00	0.0
	14	1	6	6	0	0	-1.3447118041E+01	-1.0881053282E+02	-9.0172898146E+02	9.6475940681E+02	3.2500000000E+02	0.000E+00	0.0
	-14	1	6	6	0	0	3.7670578619E+01	2.2919690777E+02	-2.3713145398E+02	4.6454991281E+02	3.2500000000E+02	0.000E+00	0.0
	25	2	5	5	0	0	-2.4223460577E+01	-1.2038637496E+02	-3.2662648942E+02	3.7074599457E+02	1.2525204021E+02	0.000E+00	0.0
	-5	1	9	9	0	501	-1.5841083366E+01	2.1895901007E+01	-2.4732973463E+01	3.6872249449E+01	4.1800000000E+00	0.000E+00	0.0
	5	1	9	9	501	0	-8.3823772111E+00	-1.4228227596E+02	-3.0189351596E+02	3.3387374512E+02	4.1800000000E+00	0.000E+00	0.0
</event>
<event>
    11  -1  1.0000000E+00  1.0000000E+00  -1.0000000E+00  -1.0000000E+00
	2212	-1	0	0	0	0	0.0000000000E+00	0.0000000000E+00	6.5000000000E+03	6.5000000000E+03	9.3827000000E-01	0.000E+00	0.0
	2212	-1	0	0	0	0	0.0000000000E+00	0.0000000000E+00	-6.5000000000E+03	6.5000000000E+03	9.3827000000E-01	0.000E+00	0.0
	2212	1	0	0	0	0	0.0000000000E+00	0.0000000000E+00	5.4309609211E+03	5.4309609211E+03	9.3827000000E-01	0.000E+00	0.0
	2212	1	0	0	0	0	0.0000000000E+00	0.0000000000E+00	-6.2409887736E+03	6.2409887736E+03	9.3827000000E-01	0.000E+00	0.0
	51	2	1	2	0	0	2.7083939205E+01	-5.8957660758E+01	6.6613493258E+02	1.2472039872E+03	1.0524127003E+03	0.000E+00	0.0
	1000022	2	5	5	0	0	-2.7083939205E+01	5.8957660758E+01	8.1844841139E+02	1.1867880753E+03	8.5697058767E+02	0.000E+00	0.0
	14	1	6	6	0	0	-2.0166153881E+02	-1.5215361616E+02	5.3857250156E+02	6.7786682954E+02	3.2500000000E+02	0.000E+00	0.0
	-14	1	6	6	0	0	1.7457759960E+02	2.1111127691E+02	2.7987590983E+02	5.0892124580E+02	3.2500000000E+02	0.000E+00	0.0
	25	2	5	5	0	0	2.7083939205E+01	-5.8957660758E+01	-8.4205589708E+00	1.4126222997E+02	1.2519810813E+02	0.000E+00	0.0
	-5	1	9	9	0	501	-2.5289812104E+01	3.3447493621E+00	-4.5026854045E+01	5.1919668043E+01	4.1800000000E+00	0.000E+00	0.0
	5	1	9	9	501	0	5.2373751309E+01	-6.2302410120E+01	3.6606295074E+01	8.9342561929E+01	4.1800000000E+00	0.000E+00	0.0
</event>
<event>
    11  -1  1.0000000E+00  1.0000000E+00  -1.0000000E+00  -1.0000000E+00
	2212	-1	0	0	0	0	0.0000000000E+00	0.0000000000E+00	6.5000000000E+03	6.5000000000E+03	9.3827000000E-01	0.000E+00	0.0
	2212	-1	0	0	0	0	0.0000000000E+00	0.0000000000E+00	-6.5000000000E+03	6.5000000000E+03	9.3827000000E-01	0.000E+00	0.0
	2212	1	0	0	0	0	0.0000000000E+00	0.0000000000E+00	5.7367651709E+03	5.7367651709E+03	9.3827000000E-01	0.000E+00	0.0
	2212	1	0	0	0	0	0.0000000000E+00	0.0000000000E+00	-6.1398391311E+03	6.1398391311E+03	9.3827000000E-01	0.000E+00	0.0
	51	2	1	2	0	0	9.7306145678E+01	-9.4746682687E+01	3.9634167246E+02	1.1291950310E+03	1.0485939524E+03	0.000E+00	0.0
	1000022	2	5	5	0	0	-9.7306145678E+01	9.4746682687E+01	3.4209453946E+02	9.2887903380E+02	8.5284357630E+02	0.000E+00	0.0
	14	1	6	6	0	0	1.7756334038E+02	1.9255906827E+02	2.3570404418E+02	4.7936325585E+02	3.2500000000E+02	0.000E+00	0.0
	-14	1	6	6	0	0	-2.7486948606E+02	-9.7812385578E+01	1.0639049528E+02	4.4951577795E+02	3.2500000000E+02	0.000E+00	0.0
	25	2	5	5	0	0	9.7306145678E+01	-9.4746682687E+01	6.0979420755E+01	1.9451666422E+02	1.2519114599E+02	0.000E+00	0.0
	-5	1	9	9	0	501	-3.7249249366E+00	-4.0831210332E+01	6.8211549594E+01	7.9695361854E+01	4.1800000000E+00	0.000E+00	0.0
	5	1	9	9	501	0	1.0103107061E+02	-5.3915472355E+01	-7.2321288392E+00	1.1482130236E+02	4.1800000000E+00	0.000E+00	0.0
</event>
<event>
    11  -1  1.0000000E+00  1.0000000E+00  -1.0000000E+00  -1.0000000E+00
	2212	-1	0	0	0	0	0.0000000000E+00	0.0000000000E+00	6.5000000000E+03	6.5000000000E+03	9.3827000000E-01	0.000E+00	0.0
	2212	-1	0	0	0	0	0.0000000000E+00	0.0000000000E+00	-6.5000000000E+03	6.5000000000E+03	9.3827000000E-01	0.000E+00	0.0
	2212	1	0	0	0	0	0.0000000000E+00	0.0000000000E+00	5.6322019413E+03	5.6322019413E+03	9.3827000000E-01	0.000E+00	0.0
	2212	1	0	0	0	0	0.0000000000E+00	0.0000000000E+00	-6.1832849887E+03	6.1832849887E+03	9.3827000000E-01	0.000E+00	0.0
	51	2	1	2	0	0	-1.4494340972E+02	4.0896214008E+01	4.8389882519E+02	1.1645676679E+03	1.0485126074E+03	0.000E+00	0.0
	1000022	2	5	5	0	0	1.4494340972E+02	-4.0896214008E+01	5.1646476058E+02	9.8564135712E+02	8.2587646994E+02	0.000E+00	0.0
	14	1	6	6	0	0	-1.7259753846E+02	-8.1189362027E+01	2.9495283882E+02	4.7854341487E+02	3.2500000000E+02	0.000E+00	0.0
	-14	1	6	6	0	0	3.1754094818E+02	4.0293148019E+01	2.2151192176E+02	5.0709794225E+02	3.2500000000E+02	0.000E+00	0.0
	25	2	5	5	0	0	-1.4494340972E+02	4.0896214008E+01	3.4618286826E+01	1.9887171288E+02	1.2518162829E+02	0.000E+00	0.0
	-5	1	9	9	0	501	-2.8135042851E+01	2.5708353205E+01	6.6508317108E+01	7.6768018766E+01	4.1800000000E+00	0.000E+00	0.0
	5	1	9	9	501	0	-1.1680836687E+02	1.5187860803E+01	-3.1890030282E+01	1.2210369412E+02	4.1800000000E+00	0.000E+00	0.0
</event>
<event>
    11  -1  1.0000000E+00  1.0000000E+00  -1.0000000E+00  -1.0000000E+00
	2212	-1	0	0	0	0	0.0000000000E+00	0.0000000000E+00	6.5000000000E+03	6.5000000000E+03	9.3827000000E-01	0.000E+00	0.0
	2212	-1	0	0	0	0	0.0000000000E+00	0.0000000000E+00	-6.5000000000E+03	6.5000000000E+03	9.3827000000E-01	0.000E+00	0.0
	2212	1	0	0	0	0	0.0000000000E+00	0.0000000000E+00	6.2811789188E+03	6.2811789188E+03	9.3827000000E-01	0.000E+00	0.0
	2212	1	0	0	0	0	0.0000000000E+00	0.0000000000E+00	-5.2501105511E+03	5.2501105511E+03	9.3827000000E-01	0.000E+00	0.0
	51	2	1	2	0	0	-2.0714277323E+01	1.8784517751E+01	-1.2287141479E+03	1.6138553340E+03	1.0459486806E+03	0.000E+00	0.0
	1000022	2	5	5	0	0	2.0714277323E+01	-1.8784517751E+01	-6.5909937229E+02	1.0752501443E+03	8.4909890527E+02	0.000E+00	0.0
	14	1	6	6	0	0	-2.4714508644E+02	2.1954423511E+01	-2.1544306872E+02	4.6217248547E+02	3.2500000000E+02	0.000E+00	0.0
	-14	1	6	6	0	0	2.6785936377E+02	-4.0738941262E+01	-4.4365630357E+02	6.1307765886E+02	3.2500000000E+02	0.000E+00	0.0
	25	2	5	5	0	0	-2.0714277323E+01	1.8784517751E+01	-3.7196899536E+02	3.9346038578E+02	1.2517268983E+02	0.000E+00	0.0
	-5	1	9	9	0	501	-5.5739125424E+01	3.0330681872E+01	-9.6938133212E+01	1.1593651037E+02	4.1800000000E+00	0.000E+00	0.0
	5	1	9	9	501	0	3.5024848101E+01	-1.1546164121E+01	-2.7503086215E+02	2.7752387541E+02	4.1800000000E+00	0.000E+00	0.0
</event>
<event>
    11  -1  1.0000000E+00  1.0000000E+00  -1.0000000E+00  -1.0000000E+00
	2212	-1	0	0	0	0	0.0000000000E+00	0.0000000000E+00	6.5000000000E+03	6.5000000000E+03	9.3827000000E-01	0.000E+00	0.0
	2212	-1	0	0	0	0	0.0000000000E+00	0.0000000000E+00	-6.5000000000E+03	6.5000000000E+03	9.3827000000E-01	0.000E+00	0.0
	2212	1	0	0	0	0	0.0000000000E+00	0.0000000000E+00	6.3286421249E+03	6.3286421249E+03	9.3827000000E-01	0.000E+00	0.0
	2212	1	0	0	0	0	0.0000000000E+00	0.0000000000E+00	-4.8810925595E+03	4.8810925595E+03	9.3827000000E-01	0.000E+00	0.0
	51	2	1	2	0	0	1.3271975366E+02	5.1597602368E+01	-1.4961435333E+03	1.8353126365E+03	1.0533993335E+03	0.000E+00	0.0
	1000022	2	5	5	0	0	-1.3271975366E+02	-5.1597602368E+01	-1.1503165566E+03	1.4377122196E+03	8.5059473330E+02	0.000E+00	0.0
	14	1	6	6	0	0	-3.3477441606E+02	-6.7314166134E+01	-7.3077810166E+02	8.6963598159E+02	3.2500000000E+02	0.000E+00	0.0
	-14	1	6	6	0	0	2.0205466240E+02	1.5716563766E+01	-4.1953845496E+02	5.6807623798E+02	3.2500000000E+02	0.000E+00	0.0
	25	2	5	5	0	0	1.3271975366E+02	5.1597602368E+01	-2.9723300885E+02	3.5255309602E+02	1.2517738766E+02	0.000E+00	0.0
	-5	1	9	9	0	501	1.0563626864E+02	6.7578919473E+01	-2.9520607209E+02	3.2076475649E+02	4.1800000000E+00	0.000E+00	0.0
	5	1	9	9	501	0	2.7083485019E+01	-1.5981317105E+01	-2.0269367570E+00	3.1788339526E+01	4.1800000000E+00	0.000E+00	0.0
</event>
<event>
    11  -1  1.0000000E+00  1.0000000E+00  -1.0000000E+00  -1.0000000E+00
	2212	-1	0	0	0	0	0.0000000000E+00	0.0000000000E+00	6.5000000000E+03	6.5000000000E+03	9.3827000000E-01	0.000E+00	0.0
	2212	-1	0	0	0	0	0.0000000000E+00	0.0000000000E+00	-6.5000000000E+03	6.5000000000E+03	9.3827000000E-01	0.000E+00	0.0
	2212	1	0	0	0	0	0.0000000000E+00	0.0000000000E+00	5.9343454231E+03	5.9343454231E+03	9.3827000000E-01	0.000E+00	0.0
	2212	1	0	0	0	0	0.0000000000E+00	0.0000000000E+00	-6.0776175880E+03	6.0776175880E+03	9.3827000000E-01	0.000E+00	0.0
	51	2	1	2	0	0	2.7681982654E+01	2.2925501602E+01	1.4980564191E+02	9.8965841546E+02	9.7759407637E+02	0.000E+00	0.0
	1000022	2	5	5	0	0	-2.7681982654E+01	-2.2925501602E+01	1.1772860706E+02	8.5531777944E+02	8.4641396971E+02	0.000E+00	0.0
	14	1	6	6	0	0	7.0802472038E+01	-2.6897059673E+02	5.4712002798E+01	4.3125001473E+02	3.2500000000E+02	0.000E+00	0.0
	-14	1	6	6	0	0	-9.8484454691E+01	2.4604509513E+02	6.3016604263E+01	4.2406776471E+02	3.2500000000E+02	0.000E+00	0.0
	25	2	5	5	0	0	2.7681982654E+01	2.2925501602E+01	2.5543557915E+01	1.3271920945E+02	1.2518004800E+02	0.000E+00	0.0
	-5	1	9	9	0	501	4.2922333125E+01	4.0495021639E+01	6.4270457908E+01	8.7351803748E+01	4.1800000000E+00	0.000E+00	0.0
	5	1	9	9	501	0	-1.5240350471E+01	-1.7569520037E+01	-3.8726899992E+01	4.5367405699E+01	4.1800000000E+00	0.000E+00	0.0
</event>
<event>
    11  -1  1.0000000E+00  1.0000000E+00  -1.0000000E+00  -1.0000000E+00
	2212	-1	0	0	0	0	0.0000000000E+00	0.0000000000E+00	6.5000000000E+03	6.5000000000E+03	9.3827000000E-01	0.000E+00	0.0
	2212	-1	0	0	0	0	0.0000000000E+00	0.0000000000E+00	-6.5000000000E+03	6.5000000000E+03	9.3827000000E-01	0.000E+00	0.0
	2212	1	0	0	0	0	0.0000000000E+00	0.0000000000E+00	6.2960163876E+03	6.2960163876E+03	9.3827000000E-01	0.000E+00	0.0
	2212	1	0	0	0	0	0.0000000000E+00	0.0000000000E+00	-5.1457263075E+03	5.1457263075E+03	9.3827000000E-01	0.000E+00	0.0
	51	2	1	2	0	0	-1.5810423652E+00	5.7592426307E+01	-9.6288602379E+02	1.4266980906E+03	1.0511891170E+03	0.000E+00	0.0
	1000022	2	5	5	0	0	1.5810423652E+00	-5.7592426307E+01	-1.1384713299E+03	1.4199364262E+03	8.4663043786E+02	0.000E+00	0.0
	14	1	6	6	0	0	-2.7304142206E+01	2.4072512978E+02	-5.0810920842E+02	6.4999543997E+02	3.2500000000E+02	0.000E+00	0.0
	-14	1	6	6	0	0	2.8885184571E+01	-2.9831755609E+02	-6.3036212145E+02	7.6994098626E+02	3.2500000000E+02	0.000E+00	0.0
	25	2	5	5	0	0	-1.5810423652E+00	5.7592426307E+01	-1.1818750241E+01	1.3832087862E+02	1.2519423046E+02	0.000E+00	0.0
	-5	1	9	9	0	501	-4.8550920358E+01	2.8198451823E+01	-4.6326939283E+01	7.2910920006E+01	4.1800000000E+00	0.000E+00	0.0
	5	1	9	9	501	0	4.6969877992E+01	2.9393974484E+01	3.4508189042E+01	6.5409958612E+01	4.1800000000E+00	0.000E+00	0.0
</event>
<event>
    11  -1  1.0000000E+00  1.0000000E+00  -1.0000000E+00  -1.0000000E+00
	2212	-1	0	0	0	0	0.0000000000E+00	0.0000000000E+00	6.5000000000E+03	6.5000000000E+03	9.3827000000E-01	0.000E+00	0.0
	2212	-1	0	0	0	0	0.0000000000E+00	0.0000000000E+00	-6.5000000000E+03	6.5000000000E+03	9.3827000000E-01	0.000E+00	0.0
	2212	1	0	0	0	0	0.0000000000E+00	0.0000000000E+00	6.3203967335E+03	6.3203967335E+03	9.3827000000E-01	0.000E+00	0.0
	2212	1	0	0	0	0	0.0000000000E+00	0.0000000000E+00	-4.9108531660E+03	4.9108531660E+03	9.3827000000E-01	0.000E+00	0.0
	51	2	1	2	0	0	1.6040094208E+02	1.6763693445E+00	-1.3816097730E+03	1.7539215166E+03	1.0684867098E+03	0.000E+00	0.0
	1000022	2	5	5	0	0	-1.6040094208E+02	-1.6763693445E+00	-1.1829743939E+03	1.4642184596E+03	8.4780658661E+02	0.000E+00	0.0
	14	1	6	6	0	0	-1.1503635779E+01	-1.6285087823E+02	-9.2734826039E+02	9.9611873701E+02	3.2500000000E+02	0.000E+00	0.0
	-14	1	6	6	0	0	-1.4889730630E+02	1.6117450889E+02	-2.5562613355E+02	4.6809972259E+02	3.2500000000E+02	0.000E+00	0.0
	25	2	5	5	0	0	1.6040094208E+02	1.6763693445E+00	-2.2656917364E+02	3.0453164087E+02	1.2519847211E+02	0.000E+00	0.0
	-5	1	9	9	0	501	1.4515777068E+02	-1.7994790049E+01	-2.3592411088E+02	2.7761889228E+02	4.1800000000E+00	0.000E+00	0.0
	5	1	9	9	501	0	1.5243171394E+01	1.9671159394E+01	9.3549372399E+00	2.6912748592E+01	4.1800000000E+00	0.000E+00	0.0
</event>
<event>
    11  -1  1.0000000E+00  1.0000000E+00  -1.0000000E+00  -1.0000000E+00
	2212	-1	0	0	0	0	0.0000000000E+00	0.0000000000E+00	6.5000000000E+03	6.5000000000E+03	9.3827000000E-01	0.000E+00	0.0
	2212	-1	0	0	0	0	0.0000000000E+00	0.0000000000E+00	-6.5000000000E+03	6.5000000000E+03	9.3827000000E-01	0.000E+00	0.0
	2212	1	0	0	0	0	0.0000000000E+00	0.0000000000E+00	6.1962651223E+03	6.1962651223E+03	9.3827000000E-01	0.000E+00	0.0
	2212	1	0	0	0	0	0.0000000000E+00	0.0000000000E+00	-5.6104619143E+03	5.6104619143E+03	9.3827000000E-01	0.000E+00	0.0
	51	2	1	2	0	0	-9.4397444287E+01	-3.4889587620E+01	-6.7794866011E+02	1.2451817190E+03	1.0395840354E+03	0.000E+00	0.0
	1000022	2	5	5	0	0	9.4397444287E+01	3.4889587620E+01	-3.9771501382E+02	9.4593018073E+02	8.5233708929E+02	0.000E+00	0.0
	14	1	6	6	0	0	1.6548576716E+01	2.6862211602E+02	-3.2282162376E+02	5.3129134886E+02	3.2500000000E+02	0.000E+00	0.0
	-14	1	6	6	0	0	7.7848867571E+01	-2.3373252840E+02	-7.4893390065E+01	4.1463883187E+02	3.2500000000E+02	0.000E+00	0.0
	25	2	5	5	0	0	-9.4397444287E+01	-3.4889587620E+01	-1.8808819412E+02	2.4734278266E+02	1.2519234224E+02	0.000E+00	0.0
	-5	1	9	9	0	501	-7.8783610056E+01	-1.6490795111E+01	-2.0317523096E+02	2.1857824780E+02	4.1800000000E+00	0.000E+00	0.0
	5	1	9	9	501	0	-1.5613834231E+01	-1.8398792509E+01	1.5087036838E+01	2.8764534860E+01	4.1800000000E+00	0.000E+00	0.0
</event>
<event>
    11  -1  1.0000000E+00  1.0000000E+00  -1.0000000E+00  -1.0000000E+00
	2212	-1	0	0	0	0	0.0000000000E+00	0.0000000000E+00	6.5000000000E+03	6.5000000000E+03	9.3827000000E-01	0.000E+00	0.0
	2212	-1	0	0	0	0	0.0000000000E+00	0.0000000000E+00	-6.5000000000E+03	6.5000000000E+03	9.3827000000E-01	0.000E+00	0.0
	2212	1	0	0	0	0	0.0000000000E+00	0.0000000000E+00	6.1911652095E+03	6.1911652095E+03	9.3827000000E-01	0.000E+00	0.0
	2212	1	0	0	0	0	0.0000000000E+00	0.0000000000E+00	-5.6042605406E+03	5.6042605406E+03	9.3827000000E-01	0.000E+00	0.0
	51	2	1	2	0	0	-1.5194019887E+02	2.0890974247E+01	-5.6098548184E+02	1.2019854412E+03	1.0519230167E+03	0.000E+00	0.0
	1000022	2	5	5	0	0	1.5194019887E+02	-2.0890974247E+01	-5.0766607151E+02	9.9133523152E+02	8.3755503954E+02	0.000E+00	0.0
	14	1	6	6	0	0	1.6949803408E+02	-1.1299889577E+02	-5.2783057002E+02	6.5247869287E+02	3.2500000000E+02	0.000E+00	0.0
	-14	1	6	6	0	0	-1.7557835211E+01	9.2107921524E+01	2.0164498516E+01	3.3885653865E+02	3.2500000000E+02	0.000E+00	0.0
	25	2	5	5	0	0	-1.5194019887E+02	2.0890974247E+01	-7.9238597440E+01	2.1323901841E+02	1.2517933860E+02	0.000E+00	0.0
	-5	1	9	9	0	501	-1.2894626133E+02	1.6545182308E+01	-1.1276106414E+02	1.7214357773E+02	4.1800000000E+00	0.000E+00	0.0
	5	1	9	9	501	0	-2.2993937535E+01	4.3457919384E+00	3.3522466697E+01	4.1095440677E+01	4.1800000000E+00	0.000E+00	0.0
</event>
<event>
    11  -1  1.0000000E+00  1.0000000E+00  -1.0000000E+00  -1.0000000E+00
	2212	-1	0	0	0	0	0.0000000000E+00	0.0000000000E+00	6.5000000000E+03	6.5000000000E+03	9.3827000000E-01	0.000E+00	0.0
	2212	-1	0	0	0	0	0.0000000000E+00	0.0000000000E+00	-6.5000000000E+03	6.5000000000E+03	9.3827000000E-01	0.000E+00	0.0
	2212	1	0	0	0	0	0.0000000000E+00	0.0000000000E+00	6.0968907151E+03	6.0968907151E+03	9.3827000000E-01	0.000E+00	0.0
	2212	1	0	0	0	0	0.0000000000E+00	0.0000000000E+00	-5.8158807582E+03	5.8158807582E+03	9.3827000000E-01	0.000E+00	0.0
	51	2	1	2	0	0	-5.6308557906E+01	-1.1855369247E+02	-2.1806542368E+02	1.0806837808E+03	1.0502853295E+03	0.000E+00	0.0
	1000022	2	5	5	0	0	5.6308557906E+01	1.1855369247E+02	-2.9524209099E+02	9.0530482605E+02	8.4568510930E+02	0.000E+00	0.0
	14	1	6	6	0	0	-1.4476096420E+02	-1.5095346477E+02	-1.0537100934E+02	4.0058798646E+02	3.2500000000E+02	0.000E+00	0.0
	-14	1	6	6	0	0	2.0106952211E+02	2.6950715724E+02	-1.8987108166E+02	5.0471683960E+02	3.2500000000E+02	0.000E+00	0.0
	25	2	5	5	0	0	-5.6308557906E+01	-1.1855369247E+02	1.4232134033E+01	1.8192370068E+02	1.2517207172E+02	0.000E+00	0.0
	-5	1	9	9	0	501	2.0204964252E+01	-1.0034341023E+02	1.1851876382E+01	1.0312603905E+02	4.1800000000E+00	0.000E+00	0.0
	5	1	9	9	501	0	-7.6513522158E+01	-1.8210282240E+01	2.3802576511E+00	7.8797661633E+01	4.1800000000E+00	0.000E+00	0.0
</event>
<event>
    11  -1  1.0000000E+00  1.0000000E+00  -1.0000000E+00  -1.0000000E+00
	2212	-1	0	0	0	0	0.0000000000E+00	0.0000000000E+00	6.5000000000E+03	6.5000000000E+03	9.3827000000E-01	0.000E+00	0.0
	2212	-1	0	0	0	0	0.0000000000E+00	0.0000000000E+00	-6.5000000000E+03	6.5000000000E+03	9.3827000000E-01	0.000E+00	0.0
	2212	1	0	0	0	0	0.0000000000E+00	0.0000000000E+00	6.2980917400E+03	6.2980917400E+03	9.3827000000E-01	0.000E+00	0.0
	2212	1	0	0	0	0	0.0000000000E+00	0.0000000000E+00	-5.1205846647E+03	5.1205846647E+03	9.3827000000E-01	0.000E+00	0.0
	51	2	1	2	0	0	-1.0368456909E+02	6.3067261037E+01	-1.3361129788E+03	1.7070404981E+03	1.0554910709E+03	0.000E+00	0.0
	1000022	2	5	5	0	0	1.0368456909E+02	-6.3067261037E+01	-8.0884978050E+02	1.1735198770E+03	8.4153607463E+02	0.000E+00	0.0
	14	1	6	6	0	0	-7.0603033036E+01	1.5987938520E+02	-1.7843400589E+02	4.0989010789E+02	3.2500000000E+02	0.000E+00	0.0
	-14	1	6	6	0	0	1.7428760213E+02	-2.2294664624E+02	-6.3041577461E+02	7.6362976906E+02	3.2500000000E+02	0.000E+00	0.0
	25	2	5	5	0	0	-1.0368456909E+02	6.3067261037E+01	-3.6865729475E+02	4.0780371833E+02	1.2517069316E+02	0.000E+00	0.0
	-5	1	9	9	0	501	8.9069535939E+00	-2.2466266104E+00	5.5953606382E+00	1.1539567328E+01	4.1800000000E+00	0.000E+00	0.0
	5	1	9	9	501	0	-1.1259152269E+02	6.5313887647E+01	-3.7425265539E+02	3.9626415100E+02	4.1800000000E+00	0.000E+00	0.0
</event>
<event>
    11  -1  1.0000000E+00  1.0000000E+00  -1.0000000E+00  -1.0000000E+00
	2212	-1	0	0	0	0	0.0000000000E+00	0.0000000000E+00	6.5000000000E+03	6.5000000000E+03	9.3827000000E-01	0.000E+00	0.0
	2212	-1	0	0	0	0	0.0000000000E+00	0.0000000000E+00	-6.5000000000E+03	6.5000000000E+03	9.3827000000E-01	0.000E+00	0.0
	2212	1	0	0	0	0	0.0000000000E+00	0.0000000000E+00	6.1163197973E+03	6.1163197973E+03	9.3827000000E-01	0.000E+00	0.0
	2212	1	0	0	0	0	0.0000000000E+00	0.0000000000E+00	-5.7903290960E+03	5.7903290960E+03	9.3827000000E-01	0.000E+00	0.0
	51	2	1	2	0	0	7.1401189712E+01	-3.8914958611E+01	-2.1954532535E+02	1.0695603578E+03	1.0436219168E+03	0.000E+00	0.0
	1000022	2	5	5	0	0	-7.1401189712E+01	3.8914958611E+01	-3.7819289614E+02	9.3521383772E+02	8.5145907223E+02	0.000E+00	0.0
	14	1	6	6	0	0	-1.2664153621E+02	1.8547321333E+02	2.2936030934E+01	3.9571385251E+02	3.2500000000E+02	0.000E+00	0.0
	-14	1	6	6	0	0	5.5240346496E+01	-1.4655825472E+02	-4.0112892707E+02	5.3949998521E+02	3.2500000000E+02	0.000E+00	0.0
	25	2	5	5	0	0	7.1401189712E+01	-3.8914958611E+01	5.2202194810E+01	1.5813726903E+02	1.2517916288E+02	0.000E+00	0.0
	-5	1	9	9	0	501	-7.7226130103E-01	2.8334430196E+01	-2.0747628753E+01	3.5374748352E+01	4.1800000000E+00	0.000E+00	0.0
	5	1	9	9	501	0	7.2173451013E+01	-6.7249388807E+01	7.2949823563E+01	1.2276252068E+02	4.1800000000E+00	0.000E+00	0.0
</event>
<event>
    11  -1  1.0000000E+00  1.0000000E+00  -1.0000000E+00  -1.0000000E+00
	2212	-1	0	0	0	0	0.0000000000E+00	0.0000000000E+00	6.5000000000E+03	6.5000000000E+03	9.3827000000E-01	0.000E+00	0.0
	2212	-1	0	0	0	0	0.0000000000E+00	0.0000000000E+00	-6.5000000000E+03	6.5000000000E+03	9.3827000000E-01	0.000E+00	0.0
	2212	1	0	0	0	0	0.0000000000E+00	0.0000000000E+00	6.1548853522E+03	6.1548853522E+03	9.3827000000E-01	0.000E+00	0.0
	2212	1	0	0	0	0	0.0000000000E+00	0.0000000000E+00	-5.7441625407E+03	5.7441625407E+03	9.3827000000E-01	0.000E+00	0.0
	51	2	1	2	0	0	1.0800376342E+02	-1.7046109402E+01	-3.2687712104E+02	1.0780567467E+03	1.0214706624E+03	0.000E+00	0.0
	1000022	2	5	5	0	0	-1.0800376342E+02	1.7046109402E+01	-4.2383729893E+02	9.3425082270E+02	8.2536728854E+02	0.000E+00	0.0
	14	1	6	6	0	0	-1.6183869075E+01	5.7365543006E+01	-4.8680535261E+02	5.8835123394E+02	3.2500000000E+02	0.000E+00	0.0
	-14	1	6	6	0	0	-9.1819894347E+01	-4.0319433603E+01	6.2968053680E+01	3.4589958877E+02	3.2500000000E+02	0.000E+00	0.0
	25	2	5	5	0	0	1.0800376342E+02	-1.7046109402E+01	1.3114487458E+01	1.6670128436E+02	1.2514769541E+02	0.000E+00	0.0
	-5	1	9	9	0	501	-7.2267117706E+00	-9.5789211602E+00	-3.8210142857E+01	4.0267462184E+01	4.1800000000E+00	0.000E+00	0.0
	5	1	9	9	501	0	1.1523047519E+02	-7.4671882423E+00	5.1324630315E+01	1.2643382218E+02	4.1800000000E+00	0.000E+00	0.0
</event>
<event>
    11  -1  1.0000000E+00  1.0000000E+00  -1.0000000E+00  -1.0000000E+00
	2212	-1	0	0	0	0	0.0000000000E+00	0.0000000000E+00	6.5000000000E+03	6.5000000000E+03	9.3827000000E-01	0.000E+00	0.0
	2212	-1	0	0	0	0	0.0000000000E+00	0.0000000000E+00	-6.5000000000E+03	6.5000000000E+03	9.3827000000E-01	0.000E+00	0.0
	2212	1	0	0	0	0	0.0000000000E+00	0.0000000000E+00	6.2617519709E+03	6.2617519709E+03	9.3827000000E-01	0.000E+00	0.0
	2212	1	0	0	0	0	0.0000000000E+00	0.0000000000E+00	-5.3420492973E+03	5.3420492973E+03	9.3827000000E-01	0.000E+00	0.0
	51	2	1	2	0	0	1.0004313084E+02	-3.4317515382E+00	-8.1537591754E+02	1.3335577163E+03	1.0504845982E+03	0.000E+00	0.0
	1000022	2	5	5	0	0	-1.0004313084E+02	3.4317515382E+00	-8.7242513897E+02	1.2286895864E+03	8.5937888714E+02	0.000E+00	0.0
	14	1	6	6	0	0	-1.2897727295E+02	1.7879264484E+02	-7.3548192392E+02	8.3376292026E+02	3.2500000000E+02	0.000E+00	0.0
	-14	1	6	6	0	0	2.8934142104E+01	-1.7536089330E+02	-1.3694321506E+02	3.9492666614E+02	3.2500000000E+02	0.000E+00	0.0
	25	2	5	5	0	0	1.0004313084E+02	-3.4317515382E+00	-4.7277534590E+01	1.6750914542E+02	1.2571294115E+02	0.000E+00	0.0
	-5	1	9	9	0	501	-2.0069536700E+01	-2.2276192171E+01	1.1520175316E+01	3.2391385897E+01	4.1800000000E+00	0.000E+00	0.0
	5	1	9	9	501	0	1.2011266754E+02	1.8844440633E+01	-5.8797709906E+01	1.3511775952E+02	4.1800000000E+00	0.000E+00	0.0
</event>
<event>
    11  -1  1.0000000E+00  1.0000000E+00  -1.0000000E+00  -1.0000000E+00
	2212	-1	0	0	0	0	0.0000000000E+00	0.0000000000E+00	6.5000000000E+03	6.5000000000E+03	9.3827000000E-01	0.000E+00	0.0
	2212	-1	0	0	0	0	0.0000000000E+00	0.0000000000E+00	-6.5000000000E+03	6.5000000000E+03	9.3827000000E-01	0.000E+00	0.0
	2212	1	0	0	0	0	0.0000000000E+00	0.0000000000E+00	6.3259395549E+03	6.3259395549E+03	9.3827000000E-01	0.000E+00	0.0
	2212	1	0	0	0	0	0.0000000000E+00	0.0000000000E+00	-4.9325290212E+03	4.9325290212E+03	9.3827000000E-01	0.000E+00	0.0
	51	2	1	2	0	0	-5.2468533113E+01	-1.1782269781E+02	-1.4771541130E+03	1.8138241904E+03	1.0446716159E+03	0.000E+00	0.0
	1000022	2	5	5	0	0	5.2468533113E+01	1.1782269781E+02	-1.0748751826E+03	1.3757879917E+03	8.4899988518E+02	0.000E+00	0.0
	14	1	6	6	0	0	2.9935665382E+01	1.6011370027E+02	-1.4815906713E+02	3.9256674623E+02	3.2500000000E+02	0.000E+00	0.0
	-14	1	6	6	0	0	2.2532867731E+01	-4.2291002453E+01	-9.2671611542E+02	9.8322124550E+02	3.2500000000E+02	0.000E+00	0.0
	25	2	5	5	0	0	-5.2468533113E+01	-1.1782269781E+02	-3.1853535111E+02	3.6574343218E+02	1.2517329262E+02	0.000E+00	0.0
	-5	1	9	9	0	501	-8.1310274372E+01	-5.3048178011E+01	-1.1719648075E+02	1.5224308658E+02	4.1800000000E+00	0.000E+00	0.0
	5	1	9	9	501	0	2.8841741260E+01	-6.4774519801E+01	-2.0133887036E+02	2.1350034560E+02	4.1800000000E+00	0.000E+00	0.0
</event>
<event>
    11  -1  1.0000000E+00  1.0000000E+00  -1.0000000E+00  -1.0000000E+00
	2212	-1	0	0	0	0	0.0000000000E+00	0.0000000000E+00	6.5000000000E+03	6.5000000000E+03	9.3827000000E-01	0.000E+00	0.0
	2212	-1	0	0	0	0	0.0000000000E+00	0.0000000000E+00	-6.5000000000E+03	6.5000000000E+03	9.3827000000E-01	0.000E+00	0.0
	2212	1	0	0	0	0	0.0000000000E+00	0.0000000000E+00	6.2411309864E+03	6.2411309864E+03	9.3827000000E-01	0.000E+00	0.0
	2212	1	0	0	0	0	0.0000000000E+00	0.0000000000E+00	-5.4589845766E+03	5.4589845766E+03	9.3827000000E-01	0.000E+00	0.0
	51	2	1	2	0	0	-1.1901451821E+02	-6.9462795266E+01	-9.0465627094E+02	1.3839577476E+03	1.0382420446E+03	0.000E+00	0.0
	1000022	2	5	5	0	0	1.1901451821E+02	6.9462795266E+01	-5.1361238324E+02	9.7312697187E+02	8.1497784491E+02	0.000E+00	0.0
	14	1	6	6	0	0	-1.8500903320E+02	4.7569105990E+01	-1.8800725971E+02	4.2126344716E+02	3.2500000000E+02	0.000E+00	0.0
	-14	1	6	6	0	0	3.0402355141E+02	2.1893689276E+01	-3.2560512354E+02	5.5186352472E+02	3.2500000000E+02	0.000E+00	0.0
	25	2	5	5	0	0	-1.1901451821E+02	-6.9462795266E+01	-2.6853402661E+02	3.2675746512E+02	1.2518139676E+02	0.000E+00	0.0
	-5	1	9	9	0	501	-2.5444754829E+01	-6.1194715004E+01	-3.5129359368E+01	7.5125048967E+01	4.1800000000E+00	0.000E+00	0.0
	5	1	9	9	501	0	-9.3569763379E+01	-8.2680802623E+00	-2.3340466724E+02	2.5163241616E+02	4.1800000000E+00	0.000E+00	0.0
</event>
<event>
    11  -1  1.0000000E+00  1.0000000E+00  -1.0000000E+00  -1.0000000E+00
	2212	-1	0	0	0	0	0.0000000000E+00	0.0000000000E+00	6.5000000000E+03	6.5000000000E+03	9.3827000000E-01	0.000E+00	0.0
	2212	-1	0	0	0	0	0.0000000000E+00	0.0000000000E+00	-6.5000000000E+03	6.5000000000E+03	9.3827000000E-01	0.000E+00	0.0
	2212	1	0	0	0	0	0.0000000000E+00	0.0000000000E+00	5.1266601283E+03	5.1266601283E+03	9.3827000000E-01	0.000E+00	0.0
	2212	1	0	0	0	0	0.0000000000E+00	0.0000000000E+00	-6.2188676665E+03	6.2188676665E+03	9.3827000000E-01	0.000E+00	0.0
	51	2	1	2	0	0	7.1121748792E+01	1.8080477530E+02	1.4615409337E+03	1.9282664604E+03	1.2427232079E+03	0.000E+00	0.0
	1000022	2	5	5	0	0	-7.1121748792E+01	-1.8080477530E+02	4.5802418438E+02	9.7948414836E+02	8.4371462799E+02	0.000E+00	0.0
	14	1	6	6	0	0	1.0236665168E+02	-2.4613239671E+02	4.3457039623E+02	6.0459616056E+02	3.2500000000E+02	0.000E+00	0.0
	-14	1	6	6	0	0	-1.7348840047E+02	6.5327621406E+01	2.3453788147E+01	3.7488798780E+02	3.2500000000E+02	0.000E+00	0.0
	25	2	5	5	0	0	7.1121748792E+01	1.8080477530E+02	6.3418335382E+02	6.7498805690E+02	1.2518658381E+02	0.000E+00	0.0
	-5	1	9	9	0	501	1.5124564284E+01	3.7228023831E+01	2.7128883862E+01	4.8663404553E+01	4.1800000000E+00	0.000E+00	0.0
	5	1	9	9	501	0	5.5997184507E+01	1.4357675147E+02	6.0705446996E+02	6.2632465234E+02	4.1800000000E+00	0.000E+00	0.0
</event>
<event>
    11  -1  1.0000000E+00  1.0000000E+00  -1.0000000E+00  -1.0000000E+00
	2212	-1	0	0	0	0	0.0000000000E+00	0.0000000000E+00	6.5000000000E+03	6.5000000000E+03	9.3827000000E-01	0.000E+00	0.0
	2212	-1	0	0	0	0	0.0000000000E+00	0.0000000000E+00	-6.5000000000E+03	6.5000000000E+03	9.3827000000E-01	0.000E+00	0.0
	2212	1	0	0	0	0	0.0000000000E+00	0.0000000000E+00	5.0402416400E+03	5.0402416400E+03	9.3827000000E-01	0.000E+00	0.0
	2212	1	0	0	0	0	0.0000000000E+00	0.0000000000E+00	-6.3089664242E+03	6.3089664242E+03	9.3827000000E-01	0.000E+00	0.0
	51	2	1	2	0	0	-5.8409404222E+00	1.8401209184E+01	1.0296431379E+03	1.4751234354E+03	1.0561493441E+03	0.000E+00	0.0
	1000022	2	5	5	0	0	5.8409404222E+00	-1.8401209184E+01	1.2753191881E+03	1.5239613679E+03	8.3405425383E+02	0.000E+00	0.0
	14	1	6	6	0	0	1.4569276061E+02	1.6166975985E+02	8.8331304324E+02	9.6603852103E+02	3.2500000000E+02	0.000E+00	0.0
	-14	1	6	6	0	0	-1.3985182019E+02	-1.8007096903E+02	3.9200614487E+02	5.5792284692E+02	3.2500000000E+02	0.000E+00	0.0
	25	2	5	5	0	0	-5.8409404222E+00	1.8401209184E+01	-6.5944038570E+00	1.2683056785E+02	1.2517901459E+02	0.000E+00	0.0
	-5	1	9	9	0	501	-1.6357704187E+00	-2.4452098795E+00	-6.4654974764E+01	6.4856710971E+01	4.1800000000E+00	0.000E+00	0.0
	5	1	9	9	501	0	-4.2051700035E+00	2.0846419063E+01	5.8060570907E+01	6.1973856880E+01	4.1800000000E+00	0.000E+00	0.0
</event>
<event>
    11  -1  1.0000000E+00  1.0000000E+00  -1.0000000E+00  -1.0000000E+00
	2212	-1	0	0	0	0	0.0000000000E+00	0.0000000000E+00	6.5000000000E+03	6.5000000000E+03	9.3827000000E-01	0.000E+00	0.0
	2212	-1	0	0	0	0	0.0000000000E+00	0.0000000000E+00	-6.5000000000E+03	6.5000000000E+03	9.3827000000E-01	0.000E+00	0.0
	2212	1	0	0	0	0	0.0000000000E+00	0.0000000000E+00	5.1693133745E+03	5.1693133745E+03	9.3827000000E-01	0.000E+00	0.0
	2212	1	0	0	0	0	0.0000000000E+00	0.0000000000E+00	-6.2874522573E+03	6.2874522573E+03	9.3827000000E-01	0.000E+00	0.0
	51	2	1	2	0	0	-9.1590107307E+01	-9.1403886939E+01	9.8663251627E+02	1.4565455347E+03	1.0636436218E+03	0.000E+00	0.0
	1000022	2	5	5	0	0	9.1590107307E+01	9.1403886939E+01	1.0464160756E+03	1.3494300982E+03	8.4215887356E+02	0.000E+00	0.0
	14	1	6	6	0	0	-1.8678018038E+02	1.7718573380E+02	5.4237612050E+02	6.8269940394E+02	3.2500000000E+02	0.000E+00	0.0
	-14	1	6	6	0	0	2.7837028769E+02	-8.5781846863E+01	5.0403995505E+02	6.6673069422E+02	3.2500000000E+02	0.000E+00	0.0
	25	2	5	5	0	0	-9.1590107307E+01	-9.1403886939E+01	7.1722807240E+01	1.9380427012E+02	1.2518991866E+02	0.000E+00	0.0
	-5	1	9	9	0	501	-2.6147723083E+01	-1.0373440169E+02	1.8932744921E+01	1.0872189635E+02	4.1800000000E+00	0.000E+00	0.0
	5	1	9	9	501	0	-6.5442384225E+01	1.2330514748E+01	5.2790062319E+01	8.5082373771E+01	4.1800000000E+00	0.000E+00	0.0
</event>
<event>
    11  -1  1.0000000E+00  1.0000000E+00  -1.0000000E+00  -1.0000000E+00
	2212	-1	0	0	0	0	0.0000000000E+00	0.0000000000E+00	6.5000000000E+03	6.5000000000E+03	9.3827000000E-01	0.000E+00	0.0
	2212	-1	0	0	0	0	0.0000000000E+00	0.0000000000E+00	-6.5000000000E+03	6.5000000000E+03	9.3827000000E-01	0.000E+00	0.0
	2212	1	0	0	0	0	0.0000000000E+00	0.0000000000E+00	5.0324477264E+03	5.0324477264E+03	9.3827000000E-01	0.000E+00	0.0
	2212	1	0	0	0	0	0.0000000000E+00	0.0000000000E+00	-6.3118830183E+03	6.3118830183E+03	9.3827000000E-01	0.000E+00	0.0
	51	2	1	2	0	0	7.7431776468E+01	-1.2233861741E+02	1.2164511457E+03	1.6140018043E+03	1.0508501401E+03	0.000E+00	0.0
	1000022	2	5	5	0	0	-7.7431776468E+01	1.2233861741E+02	1.1154622331E+03	1.4036398943E+03	8.3963476704E+02	0.000E+00	0.0
	14	1	6	6	0	0	-1.3513696907E+02	3.1138971616E+02	6.6018636415E+02	8.1036818246E+02	3.2500000000E+02	0.000E+00	0.0
	-14	1	6	6	0	0	5.7705192602E+01	-1.8905109875E+02	4.5527586894E+02	5.9327171180E+02	3.2500000000E+02	0.000E+00	0.0
	25	2	5	5	0	0	7.7431776468E+01	-1.2233861741E+02	1.6397305880E+02	2.5202936104E+02	1.2517674503E+02	0.000E+00	0.0
	-5	1	9	9	0	501	8.8972257623E+01	-1.4213005047E+02	1.4889359344E+02	2.2428506067E+02	4.1800000000E+00	0.000E+00	0.0
	5	1	9	9	501	0	-1.1540481155E+01	1.9791433053E+01	1.5079465360E+01	2.7744300372E+01	4.1800000000E+00	0.000E+00	0.0
</event>
<event>
    11  -1  1.0000000E+00  1.0000000E+00  -1.0000000E+00  -1.0000000E+00
	2212	-1	0	0	0	0	0.0000000000E+00	0.0000000000E+00	6.5000000000E+03	6.5000000000E+03	9.3827000000E-01	0.000E+00	0.0
	2212	-1	0	0	0	0	0.0000000000E+00	0.0000000000E+00	-6.5000000000E+03	6.5000000000E+03	9.3827000000E-01	0.000E+00	0.0
	2212	1	0	0	0	0	0.0000000000E+00	0.0000000000E+00	5.9136645922E+03	5.9136645922E+03	9.3827000000E-01	0.000E+00	0.0
	2212	1	0	0	0	0	0.0000000000E+00	0.0000000000E+00	-6.0279372770E+03	6.0279372770E+03	9.3827000000E-01	0.000E+00	0.0
	51	2	1	2	0	0	9.0668863271E+01	-1.1886413925E+02	1.0460863040E+02	1.0679142516E+03	1.0522111750E+03	0.000E+00	0.0
	1000022	2	5	5	0	0	-9.0668863271E+01	1.1886413925E+02	1.0388207232E+02	8.6313489163E+02	8.4371845412E+02	0.000E+00	0.0
	14	1	6	6	0	0	-1.3927779534E+02	1.0163382233E+02	3.0464345541E+02	4.7766135812E+02	3.2500000000E+02	0.000E+00	0.0
	-14	1	6	6	0	0	4.8608932071E+01	1.7230316919E+01	-2.0076138308E+02	3.8547353351E+02	3.2500000000E+02	0.000E+00	0.0
	25	2	5	5	0	0	9.0668863271E+01	-1.1886413925E+02	1.0390612470E+01	1.9526323920E+02	1.2518083475E+02	0.000E+00	0.0
	-5	1	9	9	0	501	1.8633344746E+01	-1.2126182258E+02	8.2975214017E+00	1.2303638654E+02	4.1800000000E+00	0.000E+00	0.0
	5	1	9	9	501	0	7.2035518525E+01	2.3976833276E+00	2.0930910680E+00	7.2226852657E+01	4.1800000000E+00	0.000E+00	0.0
</event>
<event>
    11  -1  1.0000000E+00  1.0000000E+00  -1.0000000E+00  -1.0000000E+00
	2212	-1	0	0	0	0	0.0000000000E+00	0.0000000000E+00	6.5000000000E+03	6.5000000000E+03	9.3827000000E-01	0.000E+00	0.0
	2212	-1	0	0	0	0	0.0000000000E+00	0.0000000000E+00	-6.5000000000E+03	6.5000000000E+03	9.3827000000E-01	0.000E+00	0.0
	2212	1	0	0	0	0	0.0000000000E+00	0.0000000000E+00	6.0595723950E+03	6.0595723950E+03	9.3827000000E-01	0.000E+00	0.0
	2212	1	0	0	0	0	0.0000000000E+00	0.0000000000E+00	-5.8760774485E+03	5.8760774485E+03	9.3827000000E-01	0.000E+00	0.0
	51	2	1	2	0	0	2.0870729041E+01	1.2874888163E+02	-2.2973816271E+02	1.0811856202E+03	1.0484134967E+03	0.000E+00	0.0
	1000022	2	5	5	0	0	-2.0870729041E+01	-1.2874888163E+02	-1.0626155775E+02	8.6775827137E+02	8.5129374309E+02	0.000E+00	0.0
	14	1	6	6	0	0	-9.4643656706E+01	-2.3560159919E+02	1.4473464648E+02	4.3707968746E+02	3.2500000000E+02	0.000E+00	0.0
	-14	1	6	6	0	0	7.3772927665E+01	1.0685271756E+02	-2.5099620423E+02	4.3067858392E+02	3.2500000000E+02	0.000E+00	0.0
	25	2	5	5	0	0	2.0870729041E+01	1.2874888163E+02	-7.7233388707E+01	1.9659188508E+02	1.2518590614E+02	0.000E+00	0.0
	-5	1	9	9	0	501	-1.0654981291E+01	-2.2987043114E+01	-1.2960097159E+01	2.8764027809E+01	4.1800000000E+00	0.000E+00	0.0
	5	1	9	9	501	0	3.1525710332E+01	1.5173592474E+02	-6.4273291548E+01	1.6782785727E+02	4.1800000000E+00	0.000E+00	0.0
</event>
<event>
    11  -1  1.0000000E+00  1.0000000E+00  -1.0000000E+00  -1.0000000E+00
	2212	-1	0	0	0	0	0.0000000000E+00	0.0000000000E+00	6.5000000000E+03	6.5000000000E+03	9.3827000000E-01	0.000E+00	0.0
	2212	-1	0	0	0	0	0.0000000000E+00	0.0000000000E+00	-6.5000000000E+03	6.5000000000E+03	9.3827000000E-01	0.000E+00	0.0
	2212	1	0	0	0	0	0.0000000000E+00	0.0000000000E+00	6.3003865526E+03	6.3003865526E+03	9.3827000000E-01	0.000E+00	0.0
	2212	1	0	0	0	0	0.0000000000E+00	0.0000000000E+00	-5.0338659372E+03	5.0338659372E+03	9.3827000000E-01	0.000E+00	0.0
	51	2	1	2	0	0	-1.4599017324E+02	9.2294923446E+01	-1.3201757082E+03	1.7156152490E+03	1.0819613202E+03	0.000E+00	0.0
	1000022	2	5	5	0	0	1.4599017324E+02	-9.2294923446E+01	-9.7791499374E+02	1.3068692004E+03	8.4956335160E+02	0.000E+00	0.0
	14	1	6	6	0	0	2.3091857097E+02	-1.8389934637E+01	-1.7968487384E+02	4.3769079269E+02	3.2500000000E+02	0.000E+00	0.0
	-14	1	6	6	0	0	-8.4928397737E+01	-7.3904988809E+01	-7.9823011990E+02	8.6917840771E+02	3.2500000000E+02	0.000E+00	0.0
	25	2	5	5	0	0	-1.4599017324E+02	9.2294923446E+01	-2.8860562169E+02	3.5887830982E+02	1.2517568776E+02	0.000E+00	0.0
	-5	1	9	9	0	501	1.8542507954E+01	-1.6177728760E+00	-5.4194419351E+01	5.7453888285E+01	4.1800000000E+00	0.000E+00	0.0
	5	1	9	9	501	0	-1.6453268119E+02	9.3912696322E+01	-2.3441120234E+02	3.0142442153E+02	4.1800000000E+00	0.000E+00	0.0
</event>
<event>
    11  -1  1.0000000E+00  1.0000000E+00  -1.0000000E+00  -1.0000000E+00
	2212	-1	0	0	0	0	0.0000000000E+00	0.0000000000E+00	6.5000000000E+03	6.5000000000E+03	9.3827000000E-01	0.000E+00	0.0
	2212	-1	0	0	0	0	0.0000000000E+00	0.0000000000E+00	-6.5000000000E+03	6.5000000000E+03	9.3827000000E-01	0.000E+00	0.0
	2212	1	0	0	0	0	0.0000000000E+00	0.0000000000E+00	5.9057888650E+03	5.9057888650E+03	9.3827000000E-01	0.000E+00	0.0
	2212	1	0	0	0	0	0.0000000000E+00	0.0000000000E+00	-6.0512949755E+03	6.0512949755E+03	9.3827000000E-01	0.000E+00	0.0
	51	2	1	2	0	0	-7.3391220944E+01	-6.3171849181E+01	2.1186141578E+02	1.0586615611E+03	1.0327158794E+03	0.000E+00	0.0
	1000022	2	5	5	0	0	7.3391220944E+01	6.3171849181E+01	5.5979159771E+01	8.6108781195E+02	8.5379248048E+02	0.000E+00	0.0
	14	1	6	6	0	0	-2.0576016672E+02	-8.3999893407E+01	9.9203966775E+01	4.0602913113E+02	3.2500000000E+02	0.000E+00	0.0
	-14	1	6	6	0	0	2.7915138767E+02	1.4717174259E+02	-4.3224807004E+01	4.5505868082E+02	3.2500000000E+02	0.000E+00	0.0
	25	2	5	5	0	0	-7.3391220944E+01	-6.3171849181E+01	8.9526950737E+01	1.8182834758E+02	1.2517795027E+02	0.000E+00	0.0
	-5	1	9	9	0	501	2.4561478503E+01	-5.4260603607E+01	3.0564414580E+01	6.7075592943E+01	4.1800000000E+00	0.000E+00	0.0
	5	1	9	9	501	0	-9.7952699447E+01	-8.9112455747E+00	5.8962536158E+01	1.1475275464E+02	4.1800000000E+00	0.000E+00	0.0
</event>
<event>
    11  -1  1.0000000E+00  1.0000000E+00  -1.0000000E+00  -1.0000000E+00
	2212	-1	0	0	0	0	0.0000000000E+00	0.0000000000E+00	6.5000000000E+03	6.5000000000E+03	9.3827000000E-01	0.000E+00	0.0
	2212	-1	0	0	0	0	0.0000000000E+00	0.0000000000E+00	-6.5000000000E+03	6.5000000000E+03	9.3827000000E-01	0.000E+00	0.0
	2212	1	0	0	0	0	0.0000000000E+00	0.0000000000E+00	5.6590413748E+03	5.6590413748E+03	9.3827000000E-01	0.000E+00	0.0
	2212	1	0	0	0	0	0.0000000000E+00	0.0000000000E+00	-6.1657385164E+03	6.1657385164E+03	9.3827000000E-01	0.000E+00	0.0
	51	2	1	2	0	0	7.3141891146E+01	-1.0730403369E+02	5.9155750241E+02	1.2211488368E+03	1.0603774380E+03	0.000E+00	0.0
	1000022	2	5	5	0	0	-7.3141891146E+01	1.0730403369E+02	3.3396425172E+02	9.2548213350E+02	8.5330016180E+02	0.000E+00	0.0
	14	1	6	6	0	0	-2.9324020444E+02	1.1105679270E+02	8.1863836235E+01	4.5896635649E+02	3.2500000000E+02	0.000E+00	0.0
	-14	1	6	6	0	0	2.2009831330E+02	-3.7527590073E+00	2.5210041549E+02	4.6651577701E+02	3.2500000000E+02	0.000E+00	0.0
	25	2	5	5	0	0	7.3141891146E+01	-1.0730403369E+02	1.7273288985E+02	2.4973797534E+02	1.2517393182E+02	0.000E+00	0.0
	-5	1	9	9	0	501	4.7005894917E+01	-1.1650338738E+02	1.8114176233E+02	2.2048220764E+02	4.1800000000E+00	0.000E+00	0.0
	5	1	9	9	501	0	2.6135996229E+01	9.1993536861E+00	-8.4088724842E+00	2.9255767697E+01	4.1800000000E+00	0.000E+00	0.0
</event>
<event>
    11  -1  1.0000000E+00  1.0000000E+00  -1.0000000E+00  -1.0000000E+00
	2212	-1	0	0	0	0	0.0000000000E+00	0.0000000000E+00	6.5000000000E+03	6.5000000000E+03	9.3827000000E-01	0.000E+00	0.0
	2212	-1	0	0	0	0	0.0000000000E+00	0.0000000000E+00	-6.5000000000E+03	6.5000000000E+03	9.3827000000E-01	0.000E+00	0.0
	2212	1	0	0	0	0	0.0000000000E+00	0.0000000000E+00	5.9417621695E+03	5.9417621695E+03	9.3827000000E-01	0.000E+00	0.0
	2212	1	0	0	0	0	0.0000000000E+00	0.0000000000E+00	-5.9997019530E+03	5.9997019530E+03	9.3827000000E-01	0.000E+00	0.0
	51	2	1	2	0	0	-3.9409441541E+01	-5.5494204819E+00	-6.8795834006E+01	1.0599329943E+03	1.0569489985E+03	0.000E+00	0.0
	1000022	2	5	5	0	0	3.9409441541E+01	5.5494204819E+00	1.7511701172E+02	8.8251094443E+02	8.6404612093E+02	0.000E+00	0.0
	14	1	6	6	0	0	-5.7715473530E+01	2.6012264338E+02	1.8289343632E+02	4.5833380252E+02	3.2500000000E+02	0.000E+00	0.0
	-14	1	6	6	0	0	9.7124915071E+01	-2.5457322289E+02	-7.7764246007E+00	4.2417714191E+02	3.2500000000E+02	0.000E+00	0.0
	25	2	5	5	0	0	-3.9409441541E+01	-5.5494204819E+00	-1.1717722828E+02	1.7602493306E+02	1.2518136476E+02	0.000E+00	0.0
	-5	1	9	9	0	501	1.8332976462E+01	4.7816920002E+01	-3.4717454361E+01	6.2010724087E+01	4.1800000000E+00	0.000E+00	0.0
	5	1	9	9	501	0	-5.7742418003E+01	-5.3366340484E+01	-8.2459773922E+01	1.1401420898E+02	4.1800000000E+00	0.000E+00	0.0
</event>
<event>
    11  -1  1.0000000E+00  1.0000000E+00  -1.0000000E+00  -1.0000000E+00
	2212	-1	0	0	0	0	0.0000000000E+00	0.0000000000E+00	6.5000000000E+03	6.5000000000E+03	9.3827000000E-01	0.000E+00	0.0
	2212	-1	0	0	0	0	0.0000000000E+00	0.0000000000E+00	-6.5000000000E+03	6.5000000000E+03	9.3827000000E-01	0.000E+00	0.0
	2212	1	0	0	0	0	0.0000000000E+00	0.0000000000E+00	5.8886527293E+03	5.8886527293E+03	9.3827000000E-01	0.000E+00	0.0
	2212	1	0	0	0	0	0.0000000000E+00	0.0000000000E+00	-6.0481622968E+03	6.0481622968E+03	9.3827000000E-01	0.000E+00	0.0
	51	2	1	2	0	0	-1.0493507934E+02	-6.5577479342E+01	2.4796271346E+02	1.0870677396E+03	1.0511512672E+03	0.000E+00	0.0
	1000022	2	5	5	0	0	1.0493507934E+02	6.5577479342E+01	4.2967427899E+01	8.5207960749E+02	8.4195111554E+02	0.000E+00	0.0
	14	1	6	6	0	0	2.7401297178E+02	1.5811811527E+02	1.1386957873E+02	4.6762776655E+02	3.2500000000E+02	0.000E+00	0.0
	-14	1	6	6	0	0	-1.6907789244E+02	-9.2540635932E+01	-7.0902150835E+01	3.8445184094E+02	3.2500000000E+02	0.000E+00	0.0
	25	2	5	5	0	0	-1.0493507934E+02	-6.5577479342E+01	1.1654213964E+02	2.1110536636E+02	1.2518637593E+02	0.000E+00	0.0
	-5	1	9	9	0	501	2.8219003373E+01	-1.6396133878E+01	1.3093316585E+01	3.5412606466E+01	4.1800000000E+00	0.000E+00	0.0
	5	1	9	9	501	0	-1.3315408272E+02	-4.9181345464E+01	1.0344882306E+02	1.7569275989E+02	4.1800000000E+00	0.000E+00	0.0
</event>
<event>
    11  -1  1.0000000E+00  1.0000000E+00  -1.0000000E+00  -1.0000000E+00
	2212	-1	0	0	0	0	0.0000000000E+00	0.0000000000E+00	6.5000000000E+03	6.5000000000E+03	9.3827000000E-01	0.000E+00	0.0
	2212	-1	0	0	0	0	0.0000000000E+00	0.0000000000E+00	-6.5000000000E+03	6.5000000000E+03	9.3827000000E-01	0.000E+00	0.0
	2212	1	0	0	0	0	0.0000000000E+00	0.0000000000E+00	6.2771688511E+03	6.2771688511E+03	9.3827000000E-01	0.000E+00	0.0
	2212	1	0	0	0	0	0.0000000000E+00	0.0000000000E+00	-5.2649912522E+03	5.2649912522E+03	9.3827000000E-01	0.000E+00	0.0
	51	2	1	2	0	0	1.0580738487E+02	2.0595525177E+01	-9.9389113861E+02	1.4492179431E+03	1.0491871486E+03	0.000E+00	0.0
	1000022	2	5	5	0	0	-1.0580738487E+02	-2.0595525177E+01	-8.7571254698E+02	1.2435731708E+03	8.7634604338E+02	0.000E+00	0.0
	14	1	6	6	0	0	-7.3872015708E+01	-1.8986007662E+02	-7.7098229117E+02	8.6112868765E+02	3.2500000000E+02	0.000E+00	0.0
	-14	1	6	6	0	0	-3.1935369158E+01	1.6926455145E+02	-1.0473025582E+02	3.8244448311E+02	3.2500000000E+02	0.000E+00	0.0
	25	2	5	5	0	0	1.0580738487E+02	2.0595525177E+01	-1.3646505191E+02	2.1426672597E+02	1.2517244552E+02	0.000E+00	0.0
	-5	1	9	9	0	501	-3.1706674077E+00	4.6305568801E+01	-6.9673743426E+01	8.3822203245E+01	4.1800000000E+00	0.000E+00	0.0
	5	1	9	9	501	0	1.0897805227E+02	-2.5710043624E+01	-6.6791308484E+01	1.3044452273E+02	4.1800000000E+00	0.000E+00	0.0
</event>
<event>
    11  -1  1.0000000E+00  1.0000000E+00  -1.0000000E+00  -1.0000000E+00
	2212	-1	0	0	0	0	0.0000000000E+00	0.0000000000E+00	6.5000000000E+03	6.5000000000E+03	9.3827000000E-01	0.000E+00	0.0
	2212	-1	0	0	0	0	0.0000000000E+00	0.0000000000E+00	-6.5000000000E+03	6.5000000000E+03	9.3827000000E-01	0.000E+00	0.0
	2212	1	0	0	0	0	0.0000000000E+00	0.0000000000E+00	5.4835724453E+03	5.4835724453E+03	9.3827000000E-01	0.000E+00	0.0
	2212	1	0	0	0	0	0.0000000000E+00	0.0000000000E+00	-6.2250353736E+03	6.2250353736E+03	9.3827000000E-01	0.000E+00	0.0
	51	2	1	2	0	0	1.0977130415E+02	6.2594019927E+01	8.4965520911E+02	1.3622805204E+03	1.0573204298E+03	0.000E+00	0.0
	1000022	2	5	5	0	0	-1.0977130415E+02	-6.2594019927E+01	5.0329527349E+02	9.9412815230E+02	8.4794864251E+02	0.000E+00	0.0
	14	1	6	6	0	0	2.0077735004E+02	1.0999779528E+01	3.3600527405E+02	5.0887826013E+02	3.2500000000E+02	0.000E+00	0.0
	-14	1	6	6	0	0	-3.1054865420E+02	-7.3593799454E+01	1.6728999944E+02	4.8524989217E+02	3.2500000000E+02	0.000E+00	0.0
	25	2	5	5	0	0	1.0977130415E+02	6.2594019927E+01	2.3816765475E+02	2.9726402877E+02	1.2519712649E+02	0.000E+00	0.0
	-5	1	9	9	0	501	8.6191422456E+01	1.0051893532E+02	1.8773635656E+02	2.2977256067E+02	4.1800000000E+00	0.000E+00	0.0
	5	1	9	9	501	0	2.3579881696E+01	-3.7924915393E+01	5.0431298194E+01	6.7491468097E+01	4.1800000000E+00	0.000E+00	0.0
</event>
<event>
    11  -1  1.0000000E+00  1.0000000E+00  -1.0000000E+00  -1.0000000E+00
	2212	-1	0	0	0	0	0.0000000000E+00	0.0000000000E+00	6.5000000000E+03	6.5000000000E+03	9.3827000000E-01	0.000E+00	0.0
	2212	-1	0	0	0	0	0.0000000000E+00	0.0000000000E+00	-6.5000000000E+03	6.5000000000E+03	9.3827000000E-01	0.000E+00	0.0
	2212	1	0	0	0	0	0.0000000000E+00	0.0000000000E+00	4.8545007041E+03	4.8545007041E+03	9.3827000000E-01	0.000E+00	0.0
	2212	1	0	0	0	0	0.0000000000E+00	0.0000000000E+00	-6.3341508045E+03	6.3341508045E+03	9.3827000000E-01	0.000E+00	0.0
	51	2	1	2	0	0	-5.2690749591E+01	1.1166426291E+02	1.5789137178E+03	1.8973225052E+03	1.0448056937E+03	0.000E+00	0.0
	1000022	2	5	5	0	0	5.2690749591E+01	-1.1166426291E+02	1.1333928114E+03	1.4230113620E+03	8.5154967475E+02	0.000E+00	0.0
	14	1	6	6	0	0	-5.5986338197E+01	9.1036538232E+01	8.9686637184E+02	9.5990437560E+02	3.2500000000E+02	0.000E+00	0.0
	-14	1	6	6	0	0	1.0867708779E+02	-2.0270080114E+02	2.3652643960E+02	4.6310698637E+02	3.2500000000E+02	0.000E+00	0.0
	25	2	5	5	0	0	-5.2690749591E+01	1.1166426291E+02	3.4625728902E+02	3.8833712946E+02	1.2516546333E+02	0.000E+00	0.0
	-5	1	9	9	0	501	-7.3769928324E+01	1.0897359184E+02	3.4172401138E+02	3.6621034720E+02	4.1800000000E+00	0.000E+00	0.0
	5	1	9	9	501	0	2.1079178733E+01	2.6906710641E+00	4.5332776428E+00	2.2126782256E+01	4.1800000000E+00	0.000E+00	0.0
</event>
<event>
    11  -1  1.0000000E+00  1.0000000E+00  -1.0000000E+00  -1.0000000E+00
	2212	-1	0	0	0	0	0.0000000000E+00	0.0000000000E+00	6.5000000000E+03	6.5000000000E+03	9.3827000000E-01	0.000E+00	0.0
	2212	-1	0	0	0	0	0.0000000000E+00	0.0000000000E+00	-6.5000000000E+03	6.5000000000E+03	9.3827000000E-01	0.000E+00	0.0
	2212	1	0	0	0	0	0.0000000000E+00	0.0000000000E+00	5.5424055331E+03	5.5424055331E+03	9.3827000000E-01	0.000E+00	0.0
	2212	1	0	0	0	0	0.0000000000E+00	0.0000000000E+00	-6.2094171152E+03	6.2094171152E+03	9.3827000000E-01	0.000E+00	0.0
	51	2	1	2	0	0	-1.4791983170E+02	4.1567983223E+01	6.0865654445E+02	1.2276453941E+03	1.0550081756E+03	0.000E+00	0.0
	1000022	2	5	5	0	0	1.4791983170E+02	-4.1567983223E+01	6.0311664134E+02	1.0399431854E+03	8.3314102769E+02	0.000E+00	0.0
	14	1	6	6	0	0	1.5925241206E+02	2.2485992729E+02	2.8237839877E+02	5.1116130306E+02	3.2500000000E+02	0.000E+00	0.0
	-14	1	6	6	0	0	-1.1332580360E+01	-2.6642791052E+02	3.2073824257E+02	5.2878188237E+02	3.2500000000E+02	0.000E+00	0.0
	25	2	5	5	0	0	-1.4791983170E+02	4.1567983223E+01	6.3894940720E+01	2.0823416624E+02	1.2518278915E+02	0.000E+00	0.0
	-5	1	9	9	0	501	1.8659031379E+01	7.8658183126E+00	2.7450796081E+01	3.4366395726E+01	4.1800000000E+00	0.000E+00	0.0
	5	1	9	9	501	0	-1.6657886308E+02	3.3702164910E+01	3.6444144639E+01	1.7386777051E+02	4.1800000000E+00	0.000E+00	0.0
</event>
<event>
    11  -1  1.0000000E+00  1.0000000E+00  -1.0000000E+00  -1.0000000E+00
	2212	-1	0	0	0	0	0.0000000000E+00	0.0000000000E+00	6.5000000000E+03	6.5000000000E+03	9.3827000000E-01	0.000E+00	0.0
	2212	-1	0	0	0	0	0.0000000000E+00	0.0000000000E+00	-6.5000000000E+03	6.5000000000E+03	9.3827000000E-01	0.000E+00	0.0
	2212	1	0	0	0	0	0.0000000000E+00	0.0000000000E+00	5.5829545762E+03	5.5829545762E+03	9.3827000000E-01	0.000E+00	0.0
	2212	1	0	0	0	0	0.0000000000E+00	0.0000000000E+00	-6.2020678920E+03	6.2020678920E+03	9.3827000000E-01	0.000E+00	0.0
	51	2	1	2	0	0	-2.9630160760E+01	1.1785775355E+02	6.8329808608E+02	1.2548042779E+03	1.0454038000E+03	0.000E+00	0.0
	1000022	2	5	5	0	0	2.9630160760E+01	-1.1785775355E+02	4.5219079288E+02	9.7353331439E+02	8.5353512205E+02	0.000E+00	0.0
	14	1	6	6	0	0	-6.5255629444E+01	1.8847033947E+02	9.2727856476E+01	3.9243193219E+02	3.2500000000E+02	0.000E+00	0.0
	-14	1	6	6	0	0	9.4885790203E+01	-3.0632809301E+02	3.5946293641E+02	5.8110138221E+02	3.2500000000E+02	0.000E+00	0.0
	25	2	5	5	0	0	-2.9630160760E+01	1.1785775355E+02	1.6692252295E+02	2.4144421742E+02	1.2515504370E+02	0.000E+00	0.0
	-5	1	9	9	0	501	-1.3453554650E+01	3.7730270469E+01	-1.4184816273E+01	4.2699565046E+01	4.1800000000E+00	0.000E+00	0.0
	5	1	9	9	501	0	-1.6176606110E+01	8.0127483078E+01	1.8110733922E+02	1.9874465238E+02	4.1800000000E+00	0.000E+00	0.0
</event>
<event>
    11  -1  1.0000000E+00  1.0000000E+00  -1.0000000E+00  -1.0000000E+00
	2212	-1	0	0	0	0	0.0000000000E+00	0.0000000000E+00	6.5000000000E+03	6.5000000000E+03	9.3827000000E-01	0.000E+00	0.0
	2212	-1	0	0	0	0	0.0000000000E+00	0.0000000000E+00	-6.5000000000E+03	6.5000000000E+03	9.3827000000E-01	0.000E+00	0.0
	2212	1	0	0	0	0	0.0000000000E+00	0.0000000000E+00	5.1770897189E+03	5.1770897189E+03	9.3827000000E-01	0.000E+00	0.0
	2212	1	0	0	0	0	0.0000000000E+00	0.0000000000E+00	-6.2908035708E+03	6.2908035708E+03	9.3827000000E-01	0.000E+00	0.0
	51	2	1	2	0	0	6.1583125421E+01	-5.1046786813E+01	1.0691313306E+03	1.5021426316E+03	1.0521370765E+03	0.000E+00	0.0
	1000022	2	5	5	0	0	-6.1583125421E+01	5.1046786813E+01	1.0013340390E+03	1.3461418544E+03	8.9611928826E+02	0.000E+00	0.0
	14	1	6	6	0	0	-3.2482761305E+02	-3.8277095996E+00	3.8609960942E+02	6.0018791887E+02	3.2500000000E+02	0.000E+00	0.0
	-14	1	6	6	0	0	2.6324448763E+02	5.4874496413E+01	6.1523442959E+02	7.4595393556E+02	3.2500000000E+02	0.000E+00	0.0
	25	2	5	5	0	0	6.1583125421E+01	-5.1046786813E+01	1.1237981289E+02	1.8596485587E+02	1.2472148770E+02	0.000E+00	0.0
	-5	1	9	9	0	501	5.1671176156E+01	-2.9596714664E+01	-1.0632990538E+01	6.0633397167E+01	4.1800000000E+00	0.000E+00	0.0
	5	1	9	9	501	0	9.9119492651E+00	-2.1450072149E+01	1.2301280343E+02	1.2533145871E+02	4.1800000000E+00	0.000E+00	0.0
</event>
<event>
    11  -1  1.0000000E+00  1.0000000E+00  -1.0000000E+00  -1.0000000E+00
	2212	-1	0	0	0	0	0.0000000000E+00	0.0000000000E+00	6.5000000000E+03	6.5000000000E+03	9.3827000000E-01	0.000E+00	0.0
	2212	-1	0	0	0	0	0.0000000000E+00	0.0000000000E+00	-6.5000000000E+03	6.5000000000E+03	9.3827000000E-01	0.000E+00	0.0
	2212	1	0	0	0	0	0.0000000000E+00	0.0000000000E+00	4.8654857289E+03	4.8654857289E+03	9.3827000000E-01	0.000E+00	0.0
	2212	1	0	0	0	0	0.0000000000E+00	0.0000000000E+00	-6.3409985736E+03	6.3409985736E+03	9.3827000000E-01	0.000E+00	0.0
	51	2	1	2	0	0	8.3419832067E+01	-4.7414626327E+01	1.5468449535E+03	1.8551271459E+03	1.0195883493E+03	0.000E+00	0.0
	1000022	2	5	5	0	0	-8.3419832067E+01	4.7414626327E+01	1.1774046640E+03	1.4562533481E+03	8.5157798002E+02	0.000E+00	0.0
	14	1	6	6	0	0	2.0028731737E+02	-1.0871184704E+02	5.8530158649E+02	7.0720309836E+02	3.2500000000E+02	0.000E+00	0.0
	-14	1	6	6	0	0	-2.8370714944E+02	1.5612647337E+02	5.9210307747E+02	7.4905024977E+02	3.2500000000E+02	0.000E+00	0.0
	25	2	5	5	0	0	8.3419832067E+01	-4.7414626327E+01	2.9810818078E+02	3.3726234935E+02	1.2518142701E+02	0.000E+00	0.0
	-5	1	9	9	0	501	5.6515011274E+01	3.4780147860E+01	1.7092517966E+02	1.8340254804E+02	4.1800000000E+00	0.000E+00	0.0
	5	1	9	9	501	0	2.6904820793E+01	-8.2194774187E+01	1.2718300112E+02	1.5385980131E+02	4.1800000000E+00	0.000E+00	0.0
</event>
<event>
    11  -1  1.0000000E+00  1.0000000E+00  -1.0000000E+00  -1.0000000E+00
	2212	-1	0	0	0	0	0.0000000000E+00	0.0000000000E+00	6.5000000000E+03	6.5000000000E+03	9.3827000000E-01	0.000E+00	0.0
	2212	-1	0	0	0	0	0.0000000000E+00	0.0000000000E+00	-6.5000000000E+03	6.5000000000E+03	9.3827000000E-01	0.000E+00	0.0
	2212	1	0	0	0	0	0.0000000000E+00	0.0000000000E+00	6.1829006784E+03	6.1829006784E+03	9.3827000000E-01	0.000E+00	0.0
	2212	1	0	0	0	0	0.0000000000E+00	0.0000000000E+00	-5.6366899685E+03	5.6366899685E+03	9.3827000000E-01	0.000E+00	0.0
	51	2	1	2	0	0	5.9595722767E+01	-8.3412519308E+01	-4.4255059804E+02	1.1407806237E+03	1.0464320815E+03	0.000E+00	0.0
	1000022	2	5	5	0	0	-5.9595722767E+01	8.3412519308E+01	-5.5651141984E+02	1.0182802088E+03	8.4656974002E+02	0.000E+00	0.0
	14	1	6	6	0	0	-2.9695473857E+02	9.0913960992E+01	-2.7281704476E+02	5.2583419913E+02	3.2500000000E+02	0.000E+00	0.0
	-14	1	6	6	0	0	2.3735901580E+02	-7.5014416840E+00	-2.8369437508E+02	4.9244600969E+02	3.2500000000E+02	0.000E+00	0.0
	25	2	5	5	0	0	5.9595722767E+01	-8.3412519308E+01	1.0300709883E+01	1.6212914424E+02	1.2518169291E+02	0.000E+00	0.0
	-5	1	9	9	0	501	3.3042971359E+00	-1.0081994909E+02	-5.0852516471E+00	1.0108863783E+02	4.1800000000E+00	0.000E+00	0.0
	5	1	9	9	501	0	5.6291425631E+01	1.7407429780E+01	1.5385961530E+01	6.1040506415E+01	4.1800000000E+00	0.000E+00	0.0
</event>
<event>
    11  -1  1.0000000E+00  1.0000000E+00  -1.0000000E+00  -1.0000000E+00
	2212	-1	0	0	0	0	0.0000000000E+00	0.0000000000E+00	6.5000000000E+03	6.5000000000E+03	9.3827000000E-01	0.000E+00	0.0
	2212	-1	0	0	0	0	0.0000000000E+00	0.0000000000E+00	-6.5000000000E+03	6.5000000000E+03	9.3827000000E-01	0.000E+00	0.0
	2212	1	0	0	0	0	0.0000000000E+00	0.0000000000E+00	5.7050977439E+03	5.7050977439E+03	9.3827000000E-01	0.000E+00	0.0
	2212	1	0	0	0	0	0.0000000000E+00	0.0000000000E+00	-6.1509526914E+03	6.1509526914E+03	9.3827000000E-01	0.000E+00	0.0
	51	2	1	2	0	0	-4.1299579053E+01	1.3205381745E+02	5.0598969885E+02	1.1768616799E+03	1.0534865791E+03	0.000E+00	0.0
	1000022	2	5	5	0	0	4.1299579053E+01	-1.3205381745E+02	3.0816982472E+02	9.1206306551E+02	8.4719922608E+02	0.000E+00	0.0
	14	1	6	6	0	0	3.1446488766E+01	-3.3048571637E+02	9.0408852987E+01	4.7329531065E+02	3.2500000000E+02	0.000E+00	0.0
	-14	1	6	6	0	0	9.8530902861E+00	1.9843189892E+02	2.1776097174E+02	4.3876775487E+02	3.2500000000E+02	0.000E+00	0.0
	25	2	5	5	0	0	-4.1299579053E+01	1.3205381745E+02	1.3768512271E+02	2.3188649916E+02	1.2518102710E+02	0.000E+00	0.0
	-5	1	9	9	0	501	3.0297249387E+01	1.0565682579E+02	8.6067979310E+01	1.3966552051E+02	4.1800000000E+00	0.000E+00	0.0
	5	1	9	9	501	0	-7.1596828440E+01	2.6396991660E+01	5.1617143404E+01	9.2220978657E+01	4.1800000000E+00	0.000E+00	0.0
</event>
<event>
    11  -1  1.0000000E+00  1.0000000E+00  -1.0000000E+00  -1.0000000E+00
	2212	-1	0	0	0	0	0.0000000000E+00	0.0000000000E+00	6.5000000000E+03	6.5000000000E+03	9.3827000000E-01	0.000E+00	0.0
	2212	-1	0	0	0	0	0.0000000000E+00	0.0000000000E+00	-6.5000000000E+03	6.5000000000E+03	9.3827000000E-01	0.000E+00	0.0
	2212	1	0	0	0	0	0.0000000000E+00	0.0000000000E+00	5.5633793144E+03	5.5633793144E+03	9.3827000000E-01	0.000E+00	0.0
	2212	1	0	0	0	0	0.0000000000E+00	0.0000000000E+00	-6.2053742857E+03	6.2053742857E+03	9.3827000000E-01	0.000E+00	0.0
	51	2	1	2	0	0	-8.9465964783E+01	-8.8840739060E+01	7.0918802703E+02	1.2738346233E+03	1.0506236976E+03	0.000E+00	0.0
	1000022	2	5	5	0	0	8.9465964783E+01	8.8840739060E+01	4.6697524898E+02	9.8186341790E+02	8.5445482764E+02	0.000E+00	0.0
	14	1	6	6	0	0	1.8388604054E+02	-4.7962151921E+01	-1.5560949985E+01	3.7680444144E+02	3.2500000000E+02	0.000E+00	0.0
	-14	1	6	6	0	0	-9.4420075755E+01	1.3680289098E+02	4.8253619896E+02	6.0505897646E+02	3.2500000000E+02	0.000E+00	0.0
	25	2	5	5	0	0	-8.9465964783E+01	-8.8840739060E+01	1.7501972234E+02	2.4938298196E+02	1.2515243790E+02	0.000E+00	0.0
	-5	1	9	9	0	501	-9.4788998251E-02	-3.0079570454E+00	1.0861326764E+02	1.0873532590E+02	4.1800000000E+00	0.000E+00	0.0
	5	1	9	9	501	0	-8.9371175785E+01	-8.5832782015E+01	6.6406454696E+01	1.4064765606E+02	4.1800000000E+00	0.000E+00	0.0
</event>
<event>
    11  -1  1.0000000E+00  1.0000000E+00  -1.0000000E+00  -1.0000000E+00
	2212	-1	0	0	0	0	0.0000000000E+00	0.0000000000E+00	6.5000000000E+03	6.5000000000E+03	9.3827000000E-01	0.000E+00	0.0
	2212	-1	0	0	0	0	0.0000000000E+00	0.0000000000E+00	-6.5000000000E+03	6.5000000000E+03	9.3827000000E-01	0.000E+00	0.0
	2212	1	0	0	0	0	0.0000000000E+00	0.0000000000E+00	5.9250009080E+03	5.9250009080E+03	9.3827000000E-01	0.000E+00	0.0
	2212	1	0	0	0	0	0.0000000000E+00	0.0000000000E+00	-6.0320470225E+03	6.0320470225E+03	9.3827000000E-01	0.000E+00	0.0
	51	2	1	2	0	0	-7.2028590140E+01	8.9393184107E+01	4.5412334976E+01	1.0447639389E+03	1.0374440460E+03	0.000E+00	0.0
	1000022	2	5	5	0	0	7.2028590140E+01	-8.9393184107E+01	1.5086316418E+02	8.6755150546E+02	8.4658529467E+02	0.000E+00	0.0
	14	1	6	6	0	0	1.6924772721E+02	-2.2076865357E+02	-8.2056359644E+01	4.3559366125E+02	3.2500000000E+02	0.000E+00	0.0
	-14	1	6	6	0	0	-9.7219137073E+01	1.3137546946E+02	2.3291952383E+02	4.3195784421E+02	3.2500000000E+02	0.000E+00	0.0
	25	2	5	5	0	0	-7.2028590140E+01	8.9393184107E+01	-4.3817049671E+01	1.7540056402E+02	1.2516455111E+02	0.000E+00	0.0
	-5	1	9	9	0	501	2.3321536788E+01	4.4808786069E+01	1.7366487404E+01	5.3579741245E+01	4.1800000000E+00	0.000E+00	0.0
	5	1	9	9	501	0	-9.5350126927E+01	4.4584398038E+01	-6.1183537075E+01	1.2182082278E+02	4.1800000000E+00	0.000E+00	0.0
</event>
<event>
    11  -1  1.0000000E+00  1.0000000E+00  -1.0000000E+00  -1.0000000E+00
	2212	-1	0	0	0	0	0.0000000000E+00	0.0000000000E+00	6.5000000000E+03	6.5000000000E+03	9.3827000000E-01	0.000E+00	0.0
	2212	-1	0	0	0	0	0.0000000000E+00	0.0000000000E+00	-6.5000000000E+03	6.5000000000E+03	9.3827000000E-01	0.000E+00	0.0
	2212	1	0	0	0	0	0.0000000000E+00	0.0000000000E+00	6.1653685074E+03	6.1653685074E+03	9.3827000000E-01	0.000E+00	0.0
	2212	1	0	0	0	0	0.0000000000E+00	0.0000000000E+00	-4.7090844212E+03	4.7090844212E+03	9.3827000000E-01	0.000E+00	0.0
	51	2	1	2	0	0	-1.8075235695E+02	2.9160138522E+02	-9.9653162786E+02	1.8729562409E+03	1.5482851846E+03	0.000E+00	0.0
	1000022	2	5	5	0	0	1.8075235695E+02	-2.9160138522E+02	-1.4916004349E+03	1.7586441242E+03	8.6617233594E+02	0.000E+00	0.0
	14	1	6	6	0	0	-1.9184030391E+02	-4.8699847551E+01	-6.2961692397E+02	7.3567441732E+02	3.2500000000E+02	0.000E+00	0.0
	-14	1	6	6	0	0	3.7259266086E+02	-2.4290153767E+02	-8.6198351098E+02	1.0229697068E+03	3.2500000000E+02	0.000E+00	0.0
	25	2	5	5	0	0	-1.8075235695E+02	2.9160138522E+02	3.5316348725E+01	3.6690294717E+02	1.2517086622E+02	0.000E+00	0.0
	-5	1	9	9	0	501	-6.4123324450E+01	2.1720751996E+02	2.8970663417E+01	2.2835866352E+02	4.1800000000E+00	0.000E+00	0.0
	5	1	9	9	501	0	-1.1662903250E+02	7.4393865265E+01	6.3456853080E+00	1.3854428366E+02	4.1800000000E+00	0.000E+00	0.0
</event>
<event>
    11  -1  1.0000000E+00  1.0000000E+00  -1.0000000E+00  -1.0000000E+00
	2212	-1	0	0	0	0	0.0000000000E+00	0.0000000000E+00	6.5000000000E+03	6.5000000000E+03	9.3827000000E-01	0.000E+00	0.0
	2212	-1	0	0	0	0	0.0000000000E+00	0.0000000000E+00	-6.5000000000E+03	6.5000000000E+03	9.3827000000E-01	0.000E+00	0.0
	2212	1	0	0	0	0	0.0000000000E+00	0.0000000000E+00	6.1424608154E+03	6.1424608154E+03	9.3827000000E-01	0.000E+00	0.0
	2212	1	0	0	0	0	0.0000000000E+00	0.0000000000E+00	-5.7271718322E+03	5.7271718322E+03	9.3827000000E-01	0.000E+00	0.0
	51	2	1	2	0	0	1.1661724401E+02	-1.6787589082E-01	-3.3648642365E+02	1.1099946554E+03	1.0513160380E+03	0.000E+00	0.0
	1000022	2	5	5	0	0	-1.1661724401E+02	1.6787589082E-01	-4.2367599700E+02	9.5907728658E+02	8.5248359598E+02	0.000E+00	0.0
	14	1	6	6	0	0	4.6870004458E+01	5.3924123853E+01	-4.8303904066E+02	5.8656314515E+02	3.2500000000E+02	0.000E+00	0.0
	-14	1	6	6	0	0	-1.6348724847E+02	-5.3756247963E+01	5.9363043661E+01	3.7251414142E+02	3.2500000000E+02	0.000E+00	0.0
	25	2	5	5	0	0	1.1661724401E+02	-1.6787589082E-01	8.3870138527E+00	1.7129006582E+02	1.2518120811E+02	0.000E+00	0.0
	-5	1	9	9	0	501	-1.6662793775E+01	2.0544382117E+01	-1.9959714725E+01	3.3400343485E+01	4.1800000000E+00	0.000E+00	0.0
	5	1	9	9	501	0	1.3328003779E+02	-2.0712258008E+01	2.8346728578E+01	1.3788972233E+02	4.1800000000E+00	0.000E+00	0.0
</event>
<event>
    11  -1  1.0000000E+00  1.0000000E+00  -1.0000000E+00  -1.0000000E+00
	2212	-1	0	0	0	0	0.0000000000E+00	0.0000000000E+00	6.5000000000E+03	6.5000000000E+03	9.3827000000E-01	0.000E+00	0.0
	2212	-1	0	0	0	0	0.0000000000E+00	0.0000000000E+00	-6.5000000000E+03	6.5000000000E+03	9.3827000000E-01	0.000E+00	0.0
	2212	1	0	0	0	0	0.0000000000E+00	0.0000000000E+00	6.3092868983E+03	6.3092868983E+03	9.3827000000E-01	0.000E+00	0.0
	2212	1	0	0	0	0	0.0000000000E+00	0.0000000000E+00	-5.0511904455E+03	5.0511904455E+03	9.3827000000E-01	0.000E+00	0.0
	51	2	1	2	0	0	-4.2725251312E+01	-1.3803748349E+02	-1.2616333234E+03	1.6485831166E+03	1.0512981763E+03	0.000E+00	0.0
	1000022	2	5	5	0	0	4.2725251312E+01	1.3803748349E+02	-1.0375274232E+03	1.3476308270E+03	8.4780062400E+02	0.000E+00	0.0
	14	1	6	6	0	0	2.8854585779E+02	1.2097789250E+02	-5.7796549361E+02	7.3318720278E+02	3.2500000000E+02	0.000E+00	0.0
	-14	1	6	6	0	0	-2.4582060648E+02	1.7059590993E+01	-4.5956192960E+02	6.1444362422E+02	3.2500000000E+02	0.000E+00	0.0
	25	2	5	5	0	0	-4.2725251312E+01	-1.3803748349E+02	-2.2056902960E+02	2.9189182914E+02	1.2518126518E+02	0.000E+00	0.0
	-5	1	9	9	0	501	-3.3538716894E+01	-8.9063382987E+01	-2.2230799843E+02	2.4185832689E+02	4.1800000000E+00	0.000E+00	0.0
	5	1	9	9	501	0	-9.1865344181E+00	-4.8974100506E+01	1.7389688312E+00	5.0033502252E+01	4.1800000000E+00	0.000E+00	0.0
</event>
<event>
    11  -1  1.0000000E+00  1.0000000E+00  -1.0000000E+00  -1.0000000E+00
	2212	-1	0	0	0	0	0.0000000000E+00	0.0000000000E+00	6.5000000000E+03	6.5000000000E+03	9.3827000000E-01	0.000E+00	0.0
	2212	-1	0	0	0	0	0.0000000000E+00	0.0000000000E+00	-6.5000000000E+03	6.5000000000E+03	9.3827000000E-01	0.000E+00	0.0
	2212	1	0	0	0	0	0.0000000000E+00	0.0000000000E+00	6.2997032373E+03	6.2997032373E+03	9.3827000000E-01	0.000E+00	0.0
	2212	1	0	0	0	0	0.0000000000E+00	0.0000000000E+00	-5.1167909549E+03	5.1167909549E+03	9.3827000000E-01	0.000E+00	0.0
	51	2	1	2	0	0	7.7045392858E+00	8.4838673638E+01	-1.3192026089E+03	1.6898998961E+03	1.0527151444E+03	0.000E+00	0.0
	1000022	2	5	5	0	0	-7.7045392858E+00	-8.4838673638E+01	-8.5899392547E+02	1.2259434118E+03	8.7052267309E+02	0.000E+00	0.0
	14	1	6	6	0	0	3.5901842416E+01	2.4373243217E+02	-3.5428091315E+02	5.4021699918E+02	3.2500000000E+02	0.000E+00	0.0
	-14	1	6	6	0	0	-4.3606381701E+01	-3.2857110581E+02	-5.0471301232E+02	6.8572641257E+02	3.2500000000E+02	0.000E+00	0.0
	25	2	5	5	0	0	7.7045392858E+00	8.4838673638E+01	-3.2391835695E+02	3.5756239598E+02	1.2518308424E+02	0.000E+00	0.0
	-5	1	9	9	0	501	-1.5058045244E+01	1.1302610044E+02	-2.2831825845E+02	2.5524173571E+02	4.1800000000E+00	0.000E+00	0.0
	5	1	9	9	501	0	2.2762584530E+01	-2.8187426805E+01	-9.5600098500E+01	1.0232066027E+02	4.1800000000E+00	0.000E+00	0.0
</event>
<event>
    11  -1  1.0000000E+00  1.0000000E+00  -1.0000000E+00  -1.0000000E+00
	2212	-1	0	0	0	0	0.0000000000E+00	0.0000000000E+00	6.5000000000E+03	6.5000000000E+03	9.3827000000E-01	0.000E+00	0.0
	2212	-1	0	0	0	0	0.0000000000E+00	0.0000000000E+00	-6.5000000000E+03	6.5000000000E+03	9.3827000000E-01	0.000E+00	0.0
	2212	1	0	0	0	0	0.0000000000E+00	0.0000000000E+00	6.2231557141E+03	6.2231557141E+03	9.3827000000E-01	0.000E+00	0.0
	2212	1	0	0	0	0	0.0000000000E+00	0.0000000000E+00	-5.5038725708E+03	5.5038725708E+03	9.3827000000E-01	0.000E+00	0.0
	51	2	1	2	0	0	3.9782314730E+01	9.9137114012E+01	-6.4176927578E+02	1.2354624035E+03	1.0502803183E+03	0.000E+00	0.0
	1000022	2	5	5	0	0	-3.9782314730E+01	-9.9137114012E+01	-6.7999986272E+02	1.1037759658E+03	8.6285037485E+02	0.000E+00	0.0
	14	1	6	6	0	0	1.3249513242E+02	-2.7161884274E+02	-4.7008782327E+02	6.4648226382E+02	3.2500000000E+02	0.000E+00	0.0
	-14	1	6	6	0	0	-1.7227744715E+02	1.7248172873E+02	-2.0991203945E+02	4.5729370195E+02	3.2500000000E+02	0.000E+00	0.0
	25	2	5	5	0	0	3.9782314730E+01	9.9137114012E+01	-3.9283280573E+01	1.6919574926E+02	1.2519275337E+02	0.000E+00	0.0
	-5	1	9	9	0	501	4.9666133670E+01	1.5919222156E+01	-6.3103066955E+01	8.1973263488E+01	4.1800000000E+00	0.000E+00	0.0
	5	1	9	9	501	0	-9.8838189406E+00	8.3217891855E+01	2.3819786382E+01	8.7222485776E+01	4.1800000000E+00	0.000E+00	0.0
</event>
<event>
    11  -1  1.0000000E+00  1.0000000E+00  -1.0000000E+00  -1.0000000E+00
	2212	-1	0	0	0	0	0.0000000000E+00	0.0000000000E+00	6.5000000000E+03	6.5000000000E+03	9.3827000000E-01	0.000E+00	0.0
	2212	-1	0	0	0	0	0.0000000000E+00	0.0000000000E+00	-6.5000000000E+03	6.5000000000E+03	9.3827000000E-01	0.000E+00	0.0
	2212	1	0	0	0	0	0.0000000000E+00	0.0000000000E+00	6.0469216851E+03	6.0469216851E+03	9.3827000000E-01	0.000E+00	0.0
	2212	1	0	0	0	0	0.0000000000E+00	0.0000000000E+00	-5.8994825310E+03	5.8994825310E+03	9.3827000000E-01	0.000E+00	0.0
	51	2	1	2	0	0	2.2788072206E+01	-7.4243252085E+01	-2.6350463998E+02	1.0787918351E+03	1.0432285327E+03	0.000E+00	0.0
	1000022	2	5	5	0	0	-2.2788072206E+01	7.4243252085E+01	-6.3523464393E+00	8.4959811571E+02	8.4601728659E+02	0.000E+00	0.0
	14	1	6	6	0	0	2.0557575263E+02	1.7670880048E+02	-8.5636910705E+01	4.3179401421E+02	3.2500000000E+02	0.000E+00	0.0
	-14	1	6	6	0	0	-2.2836382483E+02	-1.0246554839E+02	7.9284564266E+01	4.1780410150E+02	3.2500000000E+02	0.000E+00	0.0
	25	2	5	5	0	0	2.2788072206E+01	-7.4243252085E+01	-1.4108680766E+02	2.0399766809E+02	1.2521263744E+02	0.000E+00	0.0
	-5	1	9	9	0	501	-5.1711751550E+00	-7.8012361917E+01	-2.1693167875E+01	8.1244911206E+01	4.1800000000E+00	0.000E+00	0.0
	5	1	9	9	501	0	2.7959247361E+01	3.7691098319E+00	-1.1939363978E+02	1.2275275688E+02	4.1800000000E+00	0.000E+00	0.0
</event>
<event>
    11  -1  1.0000000E+00  1.0000000E+00  -1.0000000E+00  -1.0000000E+00
	2212	-1	0	0	0	0	0.0000000000E+00	0.0000000000E+00	6.5000000000E+03	6.5000000000E+03	9.3827000000E-01	0.000E+00	0.0
	2212	-1	0	0	0	0	0.0000000000E+00	0.0000000000E+00	-6.5000000000E+03	6.5000000000E+03	9.3827000000E-01	0.000E+00	0.0
	2212	1	0	0	0	0	0.0000000000E+00	0.0000000000E+00	5.5775518030E+03	5.5775518030E+03	9.3827000000E-01	0.000E+00	0.0
	2212	1	0	0	0	0	0.0000000000E+00	0.0000000000E+00	-6.1979255957E+03	6.1979255957E+03	9.3827000000E-01	0.000E+00	0.0
	51	2	1	2	0	0	1.2392746843E+02	5.6617095626E+01	5.8669469616E+02	1.2154695134E+03	1.0557423732E+03	0.000E+00	0.0
	1000022	2	5	5	0	0	-1.2392746843E+02	-5.6617095626E+01	5.4899752796E+02	1.0262125385E+03	8.5624200761E+02	0.000E+00	0.0
	14	1	6	6	0	0	-2.9875093305E+02	-1.5431747123E+02	4.0355127291E+02	6.1769299153E+02	3.2500000000E+02	0.000E+00	0.0
	-14	1	6	6	0	0	1.7482346462E+02	9.7700375599E+01	1.4544625506E+02	4.0851954700E+02	3.2500000000E+02	0.000E+00	0.0
	25	2	5	5	0	0	1.2392746843E+02	5.6617095626E+01	7.1376264749E+01	1.9831006279E+02	1.2517506496E+02	0.000E+00	0.0
	-5	1	9	9	0	501	8.1765120191E+01	6.0652344162E+00	-2.1059112859E+01	8.4754236371E+01	4.1800000000E+00	0.000E+00	0.0
	5	1	9	9	501	0	4.2162348239E+01	5.0551861210E+01	9.2435377608E+01	1.1355582642E+02	4.1800000000E+00	0.000E+00	0.0
</event>
<event>
    11  -1  1.0000000E+00  1.0000000E+00  -1.0000000E+00  -1.0000000E+00
	2212	-1	0	0	0	0	0.0000000000E+00	0.0000000000E+00	6.5000000000E+03	6.5000000000E+03	9.3827000000E-01	0.000E+00	0.0
	2212	-1	0	0	0	0	0.0000000000E+00	0.0000000000E+00	-6.5000000000E+03	6.5000000000E+03	9.3827000000E-01	0.000E+00	0.0
	2212	1	0	0	0	0	0.0000000000E+00	0.0000000000E+00	4.9038280932E+03	4.9038280932E+03	9.3827000000E-01	0.000E+00	0.0
	2212	1	0	0	0	0	0.0000000000E+00	0.0000000000E+00	-6.3273387550E+03	6.3273387550E+03	9.3827000000E-01	0.000E+00	0.0
	51	2	1	2	0	0	9.8764180133E+01	4.7938916214E+01	1.2904671316E+03	1.6672570394E+03	1.0499467200E+03	0.000E+00	0.0
	1000022	2	5	5	0	0	-9.8764180133E+01	-4.7938916214E+01	1.3147623619E+03	1.5699623365E+03	8.5095779378E+02	0.000E+00	0.0
	14	1	6	6	0	0	7.7003279274E+01	-2.6140088470E+02	5.5416554781E+02	6.9784266273E+02	3.2500000000E+02	0.000E+00	0.0
	-14	1	6	6	0	0	-1.7576745941E+02	2.1346196849E+02	7.6059681409E+02	8.7211967377E+02	3.2500000000E+02	0.000E+00	0.0
	25	2	5	5	0	0	9.8764180133E+01	4.7938916214E+01	1.0874829991E+02	1.9887081534E+02	1.2518348731E+02	0.000E+00	0.0
	-5	1	9	9	0	501	2.1017236158E+01	1.5662467679E+01	-2.7780134000E+01	3.8421938454E+01	4.1800000000E+00	0.000E+00	0.0
	5	1	9	9	501	0	7.7746943975E+01	3.2276448535E+01	1.3652843391E+02	1.6044887689E+02	4.1800000000E+00	0.000E+00	0.0
</event>
<event>
    11  -1  1.0000000E+00  1.0000000E+00  -1.0000000E+00  -1.0000000E+00
	2212	-1	0	0	0	0	0.0000000000E+00	0.0000000000E+00	6.5000000000E+03	6.5000000000E+03	9.3827000000E-01	0.000E+00	0.0
	2212	-1	0	0	0	0	0.0000000000E+00	0.0000000000E+00	-6.5000000000E+03	6.5000000000E+03	9.3827000000E-01	0.000E+00	0.0
	2212	1	0	0	0	0	0.0000000000E+00	0.0000000000E+00	5.6149501056E+03	5.6149501056E+03	9.3827000000E-01	0.000E+00	0.0
	2212	1	0	0	0	0	0.0000000000E+00	0.0000000000E+00	-6.1846527231E+03	6.1846527231E+03	9.3827000000E-01	0.000E+00	0.0
	51	2	1	2	0	0	1.2199103530E+03	-8.8217458699E+02	-1.9017057512E+03	2.6456171930E+03	1.0565946699E+03	0.000E+00	0.0
	1000022	2	5	5	0	0	-1.2199103530E+03	8.8217458699E+02	6.7434978228E+03	7.5563255878E+03	3.0589018016E+03	0.000E+00	0.0
	14	1	6	6	0	0	-9.6290196809E+02	-8.7177665660E+02	4.4046147913E+03	4.6036323918E+03	3.2500000000E+02	0.000E+00	0.0
	-14	1	6	6	0	0	-2.5700838490E+02	1.7539512436E+03	2.3388830315E+03	2.9526931960E+03	3.2500000000E+02	0.000E+00	0.0
	25	2	5	5	0	0	1.2199103530E+03	-8.8217458699E+02	-1.9766121277E+03	2.4877850195E+03	1.2516201049E+02	0.000E+00	0.0
	-5	1	9	9	0	501	2.3250965402E+02	-1.5240576549E+02	-4.4593299642E+02	5.2551114761E+02	4.1800000000E+00	0.000E+00	0.0
	5	1	9	9	501	0	9.8740069898E+02	-7.2976882151E+02	-1.5306791312E+03	1.9622738719E+03	4.1800000001E+00	0.000E+00	0.0
</event>
<event>
    11  -1  1.0000000E+00  1.0000000E+00  -1.0000000E+00  -1.0000000E+00
	2212	-1	0	0	0	0	0.0000000000E+00	0.0000000000E+00	6.5000000000E+03	6.5000000000E+03	9.3827000000E-01	0.000E+00	0.0
	2212	-1	0	0	0	0	0.0000000000E+00	0.0000000000E+00	-6.5000000000E+03	6.5000000000E+03	9.3827000000E-01	0.000E+00	0.0
	2212	1	0	0	0	0	0.0000000000E+00	0.0000000000E+00	5.6636946067E+03	5.6636946067E+03	9.3827000000E-01	0.000E+00	0.0
	2212	1	0	0	0	0	0.0000000000E+00	0.0000000000E+00	-6.1823355831E+03	6.1823355831E+03	9.3827000000E-01	0.000E+00	0.0
	51	2	1	2	0	0	2.1784686294E+01	1.1799784242E+02	4.9361119410E+02	1.1492205772E+03	1.0308529772E+03	0.000E+00	0.0
	1000022	2	5	5	0	0	-2.1784686294E+01	-1.1799784242E+02	4.5914215283E+02	9.7064393229E+02	8.4672313267E+02	0.000E+00	0.0
	14	1	6	6	0	0	-7.2497551961E+00	-3.1823307671E+02	1.4934082043E+02	4.7880322755E+02	3.2500000000E+02	0.000E+00	0.0
	-14	1	6	6	0	0	-1.4534931098E+01	2.0023523430E+02	3.0980133241E+02	4.9184070474E+02	3.2500000000E+02	0.000E+00	0.0
	25	2	5	5	0	0	2.1784686294E+01	1.1799784242E+02	5.9498823565E+01	1.8332587801E+02	1.2518068609E+02	0.000E+00	0.0
	-5	1	9	9	0	501	3.5564369953E+01	-1.8614358584E+00	5.0949198655E+01	6.2302348248E+01	4.1800000000E+00	0.000E+00	0.0
	5	1	9	9	501	0	-1.3779683659E+01	1.1985927827E+02	8.5496249093E+00	1.2102352976E+02	4.1800000000E+00	0.000E+00	0.0
</event>
<event>
    11  -1  1.0000000E+00  1.0000000E+00  -1.0000000E+00  -1.0000000E+00
	2212	-1	0	0	0	0	0.0000000000E+00	0.0000000000E+00	6.5000000000E+03	6.5000000000E+03	9.3827000000E-01	0.000E+00	0.0
	2212	-1	0	0	0	0	0.0000000000E+00	0.0000000000E+00	-6.5000000000E+03	6.5000000000E+03	9.3827000000E-01	0.000E+00	0.0
	2212	1	0	0	0	0	0.0000000000E+00	0.0000000000E+00	6.1867160911E+03	6.1867160911E+03	9.3827000000E-01	0.000E+00	0.0
	2212	1	0	0	0	0	0.0000000000E+00	0.0000000000E+00	-5.6246306782E+03	5.6246306782E+03	9.3827000000E-01	0.000E+00	0.0
	51	2	1	2	0	0	-5.3839750550E+01	3.2610771869E+01	-7.1819803375E+02	1.2715058349E+03	1.0473569073E+03	0.000E+00	0.0
	1000022	2	5	5	0	0	5.3839750550E+01	-3.2610771869E+01	-3.0790581892E+02	8.9841644284E+02	8.4165547005E+02	0.000E+00	0.0
	14	1	6	6	0	0	2.2893605750E+02	-3.0534906418E+01	-3.4517754575E+02	5.2736764882E+02	3.2500000000E+02	0.000E+00	0.0
	-14	1	6	6	0	0	-1.7509630695E+02	-2.0758654512E+00	3.7271726832E+01	3.7104879402E+02	3.2500000000E+02	0.000E+00	0.0
	25	2	5	5	0	0	-5.3839750550E+01	3.2610771869E+01	-2.5417959399E+02	2.9023678782E+02	1.2517166541E+02	0.000E+00	0.0
	-5	1	9	9	0	501	-6.6156402907E+01	5.0802855729E+00	-2.5096225620E+02	2.5961896191E+02	4.1800000000E+00	0.000E+00	0.0
	5	1	9	9	501	0	1.2316652357E+01	2.7530486296E+01	-3.2173377918E+00	3.0617825910E+01	4.1800000000E+00	0.000E+00	0.0
</event>
<event>
    11  -1  1.0000000E+00  1.0000000E+00  -1.0000000E+00  -1.0000000E+00
	2212	-1	0	0	0	0	0.0000000000E+00	0.0000000000E+00	6.5000000000E+03	6.5000000000E+03	9.3827000000E-01	0.000E+00	0.0
	2212	-1	0	0	0	0	0.0000000000E+00	0.0000000000E+00	-6.5000000000E+03	6.5000000000E+03	9.3827000000E-01	0.000E+00	0.0
	2212	1	0	0	0	0	0.0000000000E+00	0.0000000000E+00	5.9605006207E+03	5.9605006207E+03	9.3827000000E-01	0.000E+00	0.0
	2212	1	0	0	0	0	0.0000000000E+00	0.0000000000E+00	-5.9702713018E+03	5.9702713018E+03	9.3827000000E-01	0.000E+00	0.0
	51	2	1	2	0	0	4.1481768801E+01	1.4960998686E+02	-2.5023695007E+01	1.0806864884E+03	1.0691834340E+03	0.000E+00	0.0
	1000022	2	5	5	0	0	-4.1481768801E+01	-1.4960998686E+02	4.2822545756E+01	8.6708262579E+02	8.5199449776E+02	0.000E+00	0.0
	14	1	6	6	0	0	1.8120043838E+02	-1.4673250592E+02	-1.5158688795E+02	4.2774713530E+02	3.2500000000E+02	0.000E+00	0.0
	-14	1	6	6	0	0	-2.2268220718E+02	-2.8774809451E+00	1.9440943371E+02	4.3933549049E+02	3.2500000000E+02	0.000E+00	0.0
	25	2	5	5	0	0	4.1481768801E+01	1.4960998686E+02	-3.3051864606E+01	2.0214545170E+02	1.2516578038E+02	0.000E+00	0.0
	-5	1	9	9	0	501	-7.2729420962E+00	1.1830493944E+02	-6.5623503215E+01	1.3554656380E+02	4.1800000000E+00	0.000E+00	0.0
	5	1	9	9	501	0	4.8754710897E+01	3.1305047418E+01	3.2571638609E+01	6.6598887905E+01	4.1800000000E+00	0.000E+00	0.0
</event>
<event>
    11  -1  1.0000000E+00  1.0000000E+00  -1.0000000E+00  -1.0000000E+00
	2212	-1	0	0	0	0	0.0000000000E+00	0.0000000000E+00	6.5000000000E+03	6.5000000000E+03	9.3827000000E-01	0.000E+00	0.0
	2212	-1	0	0	0	0	0.0000000000E+00	0.0000000000E+00	-6.5000000000E+03	6.5000000000E+03	9.3827000000E-01	0.000E+00	0.0
	2212	1	0	0	0	0	0.0000000000E+00	0.0000000000E+00	5.2408633158E+03	5.2408633158E+03	9.3827000000E-01	0.000E+00	0.0
	2212	1	0	0	0	0	0.0000000000E+00	0.0000000000E+00	-6.2901553966E+03	6.2901553966E+03	9.3827000000E-01	0.000E+00	0.0
	51	2	1	2	0	0	-6.8925672893E+01	-8.1793997129E+01	9.8789120397E+02	1.4297769721E+03	1.0280526021E+03	0.000E+00	0.0
	1000022	2	5	5	0	0	6.8925672893E+01	8.1793997129E+01	9.4249934056E+02	1.2727189675E+03	8.4856794476E+02	0.000E+00	0.0
	14	1	6	6	0	0	-1.6642281066E+02	2.9988187615E+01	7.2751172183E+02	8.1455150157E+02	3.2500000000E+02	0.000E+00	0.0
	-14	1	6	6	0	0	2.3534848355E+02	5.1805809515E+01	2.1498761873E+02	4.5816746591E+02	3.2500000000E+02	0.000E+00	0.0
	25	2	5	5	0	0	-6.8925672893E+01	-8.1793997129E+01	1.0679274025E+02	1.9626232018E+02	1.2519266193E+02	0.000E+00	0.0
	-5	1	9	9	0	501	1.8710144508E+01	-5.9582099785E+01	9.3692678111E+00	6.3287847978E+01	4.1800000000E+00	0.000E+00	0.0
	5	1	9	9	501	0	-8.7635817401E+01	-2.2211897344E+01	9.7423472437E+01	1.3297447220E+02	4.1800000000E+00	0.000E+00	0.0
</event>
<event>
    11  -1  1.0000000E+00  1.0000000E+00  -1.0000000E+00  -1.0000000E+00
	2212	-1	0	0	0	0	0.0000000000E+00	0.0000000000E+00	6.5000000000E+03	6.5000000000E+03	9.3827000000E-01	0.000E+00	0.0
	2212	-1	0	0	0	0	0.0000000000E+00	0.0000000000E+00	-6.5000000000E+03	6.5000000000E+03	9.3827000000E-01	0.000E+00	0.0
	2212	1	0	0	0	0	0.0000000000E+00	0.0000000000E+00	4.8948632767E+03	4.8948632767E+03	9.3827000000E-01	0.000E+00	0.0
	2212	1	0	0	0	0	0.0000000000E+00	0.0000000000E+00	-6.3309767397E+03	6.3309767397E+03	9.3827000000E-01	0.000E+00	0.0
	51	2	1	2	0	0	-4.8857528175E+01	1.7625146979E+00	1.6071560639E+03	1.9158712241E+03	1.0417397799E+03	0.000E+00	0.0
	1000022	2	5	5	0	0	4.8857528175E+01	-1.7625146979E+00	1.0450960595E+03	1.3606941066E+03	8.6998420318E+02	0.000E+00	0.0
	14	1	6	6	0	0	5.0616223917E+01	-2.5374417975E+02	7.4001078357E+02	8.4863954108E+02	3.2500000000E+02	0.000E+00	0.0
	-14	1	6	6	0	0	-1.7586957417E+00	2.5198166505E+02	3.0508527589E+02	5.1205456555E+02	3.2500000000E+02	0.000E+00	0.0
	25	2	5	5	0	0	-4.8857528175E+01	1.7625146979E+00	3.9101740355E+02	4.1346587703E+02	1.2517690308E+02	0.000E+00	0.0
	-5	1	9	9	0	501	4.0655421545E+01	-5.5992922395E+00	8.4471359081E+01	9.4005841731E+01	4.1800000000E+00	0.000E+00	0.0
	5	1	9	9	501	0	-8.9512949720E+01	7.3618069374E+00	3.0654604447E+02	3.1946003530E+02	4.1800000000E+00	0.000E+00	0.0
</event>
<event>
    11  -1  1.0000000E+00  1.0000000E+00  -1.0000000E+00  -1.0000000E+00
	2212	-1	0	0	0	0	0.0000000000E+00	0.0000000000E+00	6.5000000000E+03	6.5000000000E+03	9.3827000000E-01	0.000E+00	0.0
	2212	-1	0	0	0	0	0.0000000000E+00	0.0000000000E+00	-6.5000000000E+03	6.5000000000E+03	9.3827000000E-01	0.000E+00	0.0
	2212	1	0	0	0	0	0.0000000000E+00	0.0000000000E+00	5.2321790587E+03	5.2321790587E+03	9.3827000000E-01	0.000E+00	0.0
	2212	1	0	0	0	0	0.0000000000E+00	0.0000000000E+00	-6.2749959041E+03	6.2749959041E+03	9.3827000000E-01	0.000E+00	0.0
	51	2	1	2	0	0	-7.0094023784E+01	4.7449568354E+01	1.2190901469E+03	1.6230850373E+03	1.0682039217E+03	0.000E+00	0.0
	1000022	2	5	5	0	0	7.0094023784E+01	-4.7449568354E+01	6.8838473148E+02	1.1075251063E+03	8.6346609017E+02	0.000E+00	0.0
	14	1	6	6	0	0	1.0880967191E+02	-2.1374772279E+02	6.1082748869E+02	7.3229970274E+02	3.2500000000E+02	0.000E+00	0.0
	-14	1	6	6	0	0	-3.8715648126E+01	1.6629815443E+02	7.7557242793E+01	3.7522540357E+02	3.2500000000E+02	0.000E+00	0.0
	25	2	5	5	0	0	-7.0094023784E+01	4.7449568354E+01	3.5443211399E+02	3.8529993086E+02	1.2517699305E+02	0.000E+00	0.0
	-5	1	9	9	0	501	-6.6366881415E+01	3.7691040839E+01	8.0033471048E+01	1.1067071156E+02	4.1800000000E+00	0.000E+00	0.0
	5	1	9	9	501	0	-3.7271423692E+00	9.7585275154E+00	2.7439864294E+02	2.7462921930E+02	4.1800000000E+00	0.000E+00	0.0
</event>
<event>
    11  -1  1.0000000E+00  1.0000000E+00  -1.0000000E+00  -1.0000000E+00
	2212	-1	0	0	0	0	0.0000000000E+00	0.0000000000E+00	6.5000000000E+03	6.5000000000E+03	9.3827000000E-01	0.000E+00	0.0
	2212	-1	0	0	0	0	0.0000000000E+00	0.0000000000E+00	-6.5000000000E+03	6.5000000000E+03	9.3827000000E-01	0.000E+00	0.0
	2212	1	0	0	0	0	0.0000000000E+00	0.0000000000E+00	6.1320945754E+03	6.1320945754E+03	9.3827000000E-01	0.000E+00	0.0
	2212	1	0	0	0	0	0.0000000000E+00	0.0000000000E+00	-5.7828038813E+03	5.7828038813E+03	9.3827000000E-01	0.000E+00	0.0
	51	2	1	2	0	0	1.2130069650E+02	4.2675445939E+01	-3.7626754141E+02	1.1016141274E+03	1.0273467625E+03	0.000E+00	0.0
	1000022	2	5	5	0	0	-1.2130069650E+02	-4.2675445939E+01	-2.6361702371E+02	8.8624223660E+02	8.3629917738E+02	0.000E+00	0.0
	14	1	6	6	0	0	-1.2569327363E+02	-1.8754443316E+02	-3.4064808577E+02	5.2214732766E+02	3.2500000000E+02	0.000E+00	0.0
	-14	1	6	6	0	0	4.3925771291E+00	1.4486898722E+02	7.7031062056E+01	3.6409490894E+02	3.2500000000E+02	0.000E+00	0.0
	25	2	5	5	0	0	1.2130069650E+02	4.2675445939E+01	-8.5673670396E+01	1.9885930677E+02	1.2517984435E+02	0.000E+00	0.0
	-5	1	9	9	0	501	2.0236904095E+01	-2.5493279023E+01	1.9179373765E+01	3.8010003167E+01	4.1800000000E+00	0.000E+00	0.0
	5	1	9	9	501	0	1.0106379241E+02	6.8168724963E+01	-1.0485304416E+02	1.6084930360E+02	4.1800000000E+00	0.000E+00	0.0
</event>
<event>
    11  -1  1.0000000E+00  1.0000000E+00  -1.0000000E+00  -1.0000000E+00
	2212	-1	0	0	0	0	0.0000000000E+00	0.0000000000E+00	6.5000000000E+03	6.5000000000E+03	9.3827000000E-01	0.000E+00	0.0
	2212	-1	0	0	0	0	0.0000000000E+00	0.0000000000E+00	-6.5000000000E+03	6.5000000000E+03	9.3827000000E-01	0.000E+00	0.0
	2212	1	0	0	0	0	0.0000000000E+00	0.0000000000E+00	5.4190757712E+03	5.4190757712E+03	9.3827000000E-01	0.000E+00	0.0
	2212	1	0	0	0	0	0.0000000000E+00	0.0000000000E+00	-6.2591139928E+03	6.2591139928E+03	9.3827000000E-01	0.000E+00	0.0
	51	2	1	2	0	0	-6.8808655634E+01	-6.7312835384E+01	8.9046237141E+02	1.3578317164E+03	1.0205479343E+03	0.000E+00	0.0
	1000022	2	5	5	0	0	6.8808655634E+01	6.7312835384E+01	6.6058947398E+02	1.0827670006E+03	8.5249063076E+02	0.000E+00	0.0
	14	1	6	6	0	0	-1.4042385142E+02	-1.2736206408E+02	4.8949740880E+02	6.1739182586E+02	3.2500000000E+02	0.000E+00	0.0
	-14	1	6	6	0	0	2.0923250705E+02	1.9467489947E+02	1.7109206518E+02	4.6537517473E+02	3.2500000000E+02	0.000E+00	0.0
	25	2	5	5	0	0	-6.8808655634E+01	-6.7312835384E+01	1.7944874758E+02	2.3904323538E+02	1.2519651143E+02	0.000E+00	0.0
	-5	1	9	9	0	501	-1.0204972598E+02	-3.0397040803E+01	1.3701976931E+02	1.7357999955E+02	4.1800000000E+00	0.000E+00	0.0
	5	1	9	9	501	0	3.3241070350E+01	-3.6915794581E+01	4.2428978273E+01	6.5463235827E+01	4.1800000000E+00	0.000E+00	0.0
</event>
<event>
    11  -1  1.0000000E+00  1.0000000E+00  -1.0000000E+00  -1.0000000E+00
	2212	-1	0	0	0	0	0.0000000000E+00	0.0000000000E+00	6.5000000000E+03	6.5000000000E+03	9.3827000000E-01	0.000E+00	0.0
	2212	-1	0	0	0	0	0.0000000000E+00	0.0000000000E+00	-6.5000000000E+03	6.5000000000E+03	9.3827000000E-01	0.000E+00	0.0
	2212	1	0	0	0	0	0.0000000000E+00	0.0000000000E+00	5.0711800286E+03	5.0711800286E+03	9.3827000000E-01	0.000E+00	0.0
	2212	1	0	0	0	0	0.0000000000E+00	0.0000000000E+00	-6.3096655290E+03	6.3096655290E+03	9.3827000000E-01	0.000E+00	0.0
	51	2	1	2	0	0	4.1373661506E+01	-7.5843378717E+01	1.0364885937E+03	1.4729519261E+03	1.0429835922E+03	0.000E+00	0.0
	1000022	2	5	5	0	0	-4.1373661506E+01	7.5843378717E+01	1.2103362438E+03	1.4644715769E+03	8.1993852112E+02	0.000E+00	0.0
	14	1	6	6	0	0	1.9175104263E+02	1.6953033360E+02	6.0534476731E+02	7.3319593811E+02	3.2500000000E+02	0.000E+00	0.0
	-14	1	6	6	0	0	-2.3312470414E+02	-9.3686954885E+01	6.0499147654E+02	7.3127563879E+02	3.2500000000E+02	0.000E+00	0.0
	25	2	5	5	0	0	4.1373661506E+01	-7.5843378717E+01	2.8149256599E+01	1.5468286553E+02	1.2518150934E+02	0.000E+00	0.0
	-5	1	9	9	0	501	6.5181792757E+00	3.2872421773E+01	2.1935973214E+01	4.0270859131E+01	4.1800000000E+00	0.000E+00	0.0
	5	1	9	9	501	0	3.4855482230E+01	-1.0871580049E+02	6.2132833858E+00	1.1441200640E+02	4.1800000000E+00	0.000E+00	0.0
</event>
<event>
    11  -1  1.0000000E+00  1.0000000E+00  -1.0000000E+00  -1.0000000E+00
	2212	-1	0	0	0	0	0.0000000000E+00	0.0000000000E+00	6.5000000000E+03	6.5000000000E+03	9.3827000000E-01	0.000E+00	0.0
	2212	-1	0	0	0	0	0.0000000000E+00	0.0000000000E+00	-6.5000000000E+03	6.5000000000E+03	9.3827000000E-01	0.000E+00	0.0
	2212	1	0	0	0	0	0.0000000000E+00	0.0000000000E+00	5.0162731794E+03	5.0162731794E+03	9.3827000000E-01	0.000E+00	0.0
	2212	1	0	0	0	0	0.0000000000E+00	0.0000000000E+00	-6.3155140046E+03	6.3155140046E+03	9.3827000000E-01	0.000E+00	0.0
	51	2	1	2	0	0	-9.4584889719E+01	-6.6280223155E+01	1.2207894545E+03	1.6120091621E+03	1.0463781713E+03	0.000E+00	0.0
	1000022	2	5	5	0	0	9.4584889719E+01	6.6280223155E+01	1.1650381361E+03	1.4513706870E+03	8.5780163393E+02	0.000E+00	0.0
	14	1	6	6	0	0	-1.4360460749E+02	-1.1759082913E+02	3.0046618473E+02	4.7995292952E+02	3.2500000000E+02	0.000E+00	0.0
	-14	1	6	6	0	0	2.3818949721E+02	1.8387105228E+02	8.6457195136E+02	9.7141775747E+02	3.2500000000E+02	0.000E+00	0.0
	25	2	5	5	0	0	-9.4584889719E+01	-6.6280223155E+01	1.3420268914E+02	2.1684212894E+02	1.2518297715E+02	0.000E+00	0.0
	-5	1	9	9	0	501	-3.4473044071E+01	-3.8268231282E+01	1.4087938378E+02	1.5005772712E+02	4.1800000000E+00	0.000E+00	0.0
	5	1	9	9	501	0	-6.0111845648E+01	-2.8011991873E+01	-6.6766946397E+00	6.6784401826E+01	4.1800000000E+00	0.000E+00	0.0
</event>
<event>
    11  -1  1.0000000E+00  1.0000000E+00  -1.0000000E+00  -1.0000000E+00
	2212	-1	0	0	0	0	0.0000000000E+00	0.0000000000E+00	6.5000000000E+03	6.5000000000E+03	9.3827000000E-01	0.000E+00	0.0
	2212	-1	0	0	0	0	0.0000000000E+00	0.0000000000E+00	-6.5000000000E+03	6.5000000000E+03	9.3827000000E-01	0.000E+00	0.0
	2212	1	0	0	0	0	0.0000000000E+00	0.0000000000E+00	5.9820667469E+03	5.9820667469E+03	9.3827000000E-01	0.000E+00	0.0
	2212	1	0	0	0	0	0.0000000000E+00	0.0000000000E+00	-5.9760506708E+03	5.9760506708E+03	9.3827000000E-01	0.000E+00	0.0
	51	2	1	2	0	0	-6.7749438366E+01	7.7627896225E+01	7.5501729938E+01	1.0496664756E+03	1.0418652130E+03	0.000E+00	0.0
	1000022	2	5	5	0	0	6.7749438366E+01	-7.7627896225E+01	-8.6533526085E+01	8.6085395497E+02	8.5027372297E+02	0.000E+00	0.0
	14	1	6	6	0	0	3.0531258269E+02	-1.1782587869E+01	-1.2327384449E+01	4.4624160152E+02	3.2500000000E+02	0.000E+00	0.0
	-14	1	6	6	0	0	-2.3756314432E+02	-6.5845308356E+01	-7.4206141636E+01	4.1461235344E+02	3.2500000000E+02	0.000E+00	0.0
	25	2	5	5	0	0	-6.7749438366E+01	7.7627896225E+01	8.0517450008E+01	1.8102862729E+02	1.2518876736E+02	0.000E+00	0.0
	-5	1	9	9	0	501	-9.0670649777E+00	1.5374567807E+01	9.2715665673E+01	9.4510613498E+01	4.1800000000E+00	0.000E+00	0.0
	5	1	9	9	501	0	-5.8682373388E+01	6.2253328417E+01	-1.2198215665E+01	8.6518013794E+01	4.1800000000E+00	0.000E+00	0.0
</event>
<event>
    11  -1  1.0000000E+00  1.0000000E+00  -1.0000000E+00  -1.0000000E+00
	2212	-1	0	0	0	0	0.0000000000E+00	0.0000000000E+00	6.5000000000E+03	6.5000000000E+03	9.3827000000E-01	0.000E+00	0.0
	2212	-1	0	0	0	0	0.0000000000E+00	0.0000000000E+00	-6.5000000000E+03	6.5000000000E+03	9.3827000000E-01	0.000E+00	0.0
	2212	1	0	0	0	0	0.0000000000E+00	0.0000000000E+00	5.2689178696E+03	5.2689178696E+03	9.3827000000E-01	0.000E+00	0.0
	2212	1	0	0	0	0	0.0000000000E+00	0.0000000000E+00	-6.2662453938E+03	6.2662453938E+03	9.3827000000E-01	0.000E+00	0.0
	51	2	1	2	0	0	-1.2905694652E+02	7.0435781802E+01	1.1409449912E+03	1.5730406359E+03	1.0728860491E+03	0.000E+00	0.0
	1000022	2	5	5	0	0	1.2905694652E+02	-7.0435781802E+01	6.6662435780E+02	1.0818484774E+03	8.3928016704E+02	0.000E+00	0.0
	14	1	6	6	0	0	1.7391619404E+02	1.8494583291E+01	6.4264316009E+02	7.4108307454E+02	3.2500000000E+02	0.000E+00	0.0
	-14	1	6	6	0	0	-4.4859247520E+01	-8.8930365092E+01	2.3981197708E+01	3.4076540283E+02	3.2500000000E+02	0.000E+00	0.0
	25	2	5	5	0	0	-1.2905694652E+02	7.0435781802E+01	3.3070316644E+02	3.8298825929E+02	1.2529376542E+02	0.000E+00	0.0
	-5	1	9	9	0	501	-3.3036440499E+00	-2.6717760131E+01	1.9397820099E+01	3.3443991912E+01	4.1800000000E+00	0.000E+00	0.0
	5	1	9	9	501	0	-1.2575330247E+02	9.7153541932E+01	3.1130534634E+02	3.4954426737E+02	4.1800000000E+00	0.000E+00	0.0
</event>
<event>
    11  -1  1.0000000E+00  1.0000000E+00  -1.0000000E+00  -1.0000000E+00
	2212	-1	0	0	0	0	0.0000000000E+00	0.0000000000E+00	6.5000000000E+03	6.5000000000E+03	9.3827000000E-01	0.000E+00	0.0
	2212	-1	0	0	0	0	0.0000000000E+00	0.0000000000E+00	-6.5000000000E+03	6.5000000000E+03	9.3827000000E-01	0.000E+00	0.0
	2212	1	0	0	0	0	0.0000000000E+00	0.0000000000E+00	6.1566237116E+03	6.1566237116E+03	9.3827000000E-01	0.000E+00	0.0
	2212	1	0	0	0	0	0.0000000000E+00	0.0000000000E+00	-5.6986842886E+03	5.6986842886E+03	9.3827000000E-01	0.000E+00	0.0
	51	2	1	2	0	0	-1.0810682853E+02	3.6128826584E+01	-5.5876778168E+02	1.1940791731E+03	1.0491002142E+03	0.000E+00	0.0
	1000022	2	5	5	0	0	1.0810682853E+02	-3.6128826584E+01	-2.7802956585E+02	8.9762811660E+02	8.4583888404E+02	0.000E+00	0.0
	14	1	6	6	0	0	2.1764002178E+02	1.1135832109E+02	-3.2601405030E+02	5.2122741270E+02	3.2500000000E+02	0.000E+00	0.0
	-14	1	6	6	0	0	-1.0953319325E+02	-1.4748714767E+02	4.7984484453E+01	3.7640070391E+02	3.2500000000E+02	0.000E+00	0.0
	25	2	5	5	0	0	-1.0810682853E+02	3.6128826584E+01	-1.7990985708E+02	2.4706388321E+02	1.2522231123E+02	0.000E+00	0.0
	-5	1	9	9	0	501	-8.9239492255E+01	9.5282009691E+00	-3.1733577058E+01	9.5283607743E+01	4.1800000000E+00	0.000E+00	0.0
	5	1	9	9	501	0	-1.8867336271E+01	2.6600625615E+01	-1.4817628002E+02	1.5178027547E+02	4.1800000000E+00	0.000E+00	0.0
</event>
<event>
    11  -1  1.0000000E+00  1.0000000E+00  -1.0000000E+00  -1.0000000E+00
	2212	-1	0	0	0	0	0.0000000000E+00	0.0000000000E+00	6.5000000000E+03	6.5000000000E+03	9.3827000000E-01	0.000E+00	0.0
	2212	-1	0	0	0	0	0.0000000000E+00	0.0000000000E+00	-6.5000000000E+03	6.5000000000E+03	9.3827000000E-01	0.000E+00	0.0
	2212	1	0	0	0	0	0.0000000000E+00	0.0000000000E+00	5.9745405953E+03	5.9745405953E+03	9.3827000000E-01	0.000E+00	0.0
	2212	1	0	0	0	0	0.0000000000E+00	0.0000000000E+00	-5.9570084835E+03	5.9570084835E+03	9.3827000000E-01	0.000E+00	0.0
	51	2	1	2	0	0	-1.5564457080E+02	-2.7105781525E-01	-5.8589796137E+01	1.0811743922E+03	1.0683070702E+03	0.000E+00	0.0
	1000022	2	5	5	0	0	1.5564457080E+02	2.7105781525E-01	2.6662178418E+01	8.6457480615E+02	8.5003142164E+02	0.000E+00	0.0
	14	1	6	6	0	0	1.3219492821E+02	-1.4108479708E+02	-2.1496936986E+02	4.3499109070E+02	3.2500000000E+02	0.000E+00	0.0
	-14	1	6	6	0	0	2.3449642589E+01	1.4135585490E+02	2.4163154828E+02	4.2958371545E+02	3.2500000000E+02	0.000E+00	0.0
	25	2	5	5	0	0	-1.5564457080E+02	-2.7105781525E-01	-4.4194290262E+01	2.0387611510E+02	1.2404446431E+02	0.000E+00	0.0
	-5	1	9	9	0	501	-8.6031332494E+00	-2.0315701148E+01	-5.0515487342E+01	5.5281357402E+01	4.1800000000E+00	0.000E+00	0.0
	5	1	9	9	501	0	-1.4704143755E+02	2.0044643332E+01	6.3211970795E+00	1.4859475770E+02	4.1800000000E+00	0.000E+00	0.0
</event>
<event>
    11  -1  1.0000000E+00  1.0000000E+00  -1.0000000E+00  -1.0000000E+00
	2212	-1	0	0	0	0	0.0000000000E+00	0.0000000000E+00	6.5000000000E+03	6.5000000000E+03	9.3827000000E-01	0.000E+00	0.0
	2212	-1	0	0	0	0	0.0000000000E+00	0.0000000000E+00	-6.5000000000E+03	6.5000000000E+03	9.3827000000E-01	0.000E+00	0.0
	2212	1	0	0	0	0	0.0000000000E+00	0.0000000000E+00	6.2651030695E+03	6.2651030695E+03	9.3827000000E-01	0.000E+00	0.0
	2212	1	0	0	0	0	0.0000000000E+00	0.0000000000E+00	-5.4192888478E+03	5.4192888478E+03	9.3827000000E-01	0.000E+00	0.0
	51	2	1	2	0	0	-7.8851472844E+01	3.4577656650E+01	-8.7057175889E+02	1.3344404393E+03	1.0076819585E+03	0.000E+00	0.0
	1000022	2	5	5	0	0	7.8851472844E+01	-3.4577656650E+01	-6.9597830203E+02	1.1022245742E+03	8.5035289499E+02	0.000E+00	0.0
	14	1	6	6	0	0	-5.1588639913E+01	-1.5668322191E+02	-6.2663825109E+02	7.2492173200E+02	3.2500000000E+02	0.000E+00	0.0
	-14	1	6	6	0	0	1.3044011276E+02	1.2210556526E+02	-6.9340050938E+01	3.7730284222E+02	3.2500000000E+02	0.000E+00	0.0
	25	2	5	5	0	0	-7.8851472844E+01	3.4577656650E+01	-1.4983591974E+02	2.1338350850E+02	1.2517407777E+02	0.000E+00	0.0
	-5	1	9	9	0	501	-9.3140262834E+01	4.8353489670E+01	-1.5945412872E+02	1.9093522485E+02	4.1800000000E+00	0.000E+00	0.0
	5	1	9	9	501	0	1.4288789990E+01	-1.3775833020E+01	9.6182089755E+00	2.2448283646E+01	4.1800000000E+00	0.000E+00	0.0
</event>
<event>
    11  -1  1.0000000E+00  1.0000000E+00  -1.0000000E+00  -1.0000000E+00
	2212	-1	0	0	0	0	0.0000000000E+00	0.0000000000E+00	6.5000000000E+03	6.5000000000E+03	9.3827000000E-01	0.000E+00	0.0
	2212	-1	0	0	0	0	0.0000000000E+00	0.0000000000E+00	-6.5000000000E+03	6.5000000000E+03	9.3827000000E-01	0.000E+00	0.0
	2212	1	0	0	0	0	0.0000000000E+00	0.0000000000E+00	6.2121091281E+03	6.2121091281E+03	9.3827000000E-01	0.000E+00	0.0
	2212	1	0	0	0	0	0.0000000000E+00	0.0000000000E+00	-5.5388055635E+03	5.5388055635E+03	9.3827000000E-01	0.000E+00	0.0
	51	2	1	2	0	0	-1.2820233791E+02	3.8444870719E+01	-6.2159103267E+02	1.2292947885E+03	1.0520819444E+03	0.000E+00	0.0
	1000022	2	5	5	0	0	1.2820233791E+02	-3.8444870719E+01	-6.0979797559E+02	1.0551278704E+03	8.5060414077E+02	0.000E+00	0.0
	14	1	6	6	0	0	-1.8474298499E+02	-1.3403432577E+02	-2.4036297672E+02	4.6421388558E+02	3.2500000000E+02	0.000E+00	0.0
	-14	1	6	6	0	0	3.1294532290E+02	9.5589455050E+01	-3.6943499886E+02	5.9091398479E+02	3.2500000000E+02	0.000E+00	0.0
	25	2	5	5	0	0	-1.2820233791E+02	3.8444870719E+01	-6.3505588957E+01	1.9395743806E+02	1.2519057640E+02	0.000E+00	0.0
	-5	1	9	9	0	501	-7.3696413128E+01	1.9706374594E+01	-9.9823099016E+01	1.2570451863E+02	4.1800000000E+00	0.000E+00	0.0
	5	1	9	9	501	0	-5.4505924780E+01	1.8738496124E+01	3.6317510058E+01	6.8252919425E+01	4.1800000000E+00	0.000E+00	0.0
</event>
<event>
    11  -1  1.0000000E+00  1.0000000E+00  -1.0000000E+00  -1.0000000E+00
	2212	-1	0	0	0	0	0.0000000000E+00	0.0000000000E+00	6.5000000000E+03	6.5000000000E+03	9.3827000000E-01	0.000E+00	0.0
	2212	-1	0	0	0	0	0.0000000000E+00	0.0000000000E+00	-6.5000000000E+03	6.5000000000E+03	9.3827000000E-01	0.000E+00	0.0
	2212	1	0	0	0	0	0.0000000000E+00	0.0000000000E+00	5.4566542658E+03	5.4566542658E+03	9.3827000000E-01	0.000E+00	0.0
	2212	1	0	0	0	0	0.0000000000E+00	0.0000000000E+00	-6.2390395662E+03	6.2390395662E+03	9.3827000000E-01	0.000E+00	0.0
	51	2	1	2	0	0	-1.2504069696E+02	9.2779035873E+01	9.9634877754E+02	1.4512208080E+03	1.0435937053E+03	0.000E+00	0.0
	1000022	2	5	5	0	0	1.2504069696E+02	-9.2779035873E+01	3.9520068437E+02	8.6861641974E+02	7.5767260629E+02	0.000E+00	0.0
	14	1	6	6	0	0	-3.1472690179E+01	2.6689372164E+01	1.0339551666E+01	3.2777241974E+02	3.2500000000E+02	0.000E+00	0.0
	-14	1	6	6	0	0	1.5651338714E+02	-1.1946840804E+02	3.8486113270E+02	5.4084400000E+02	3.2500000000E+02	0.000E+00	0.0
	25	2	5	5	0	0	-1.2504069696E+02	9.2779035873E+01	3.8718461601E+02	4.3568974827E+02	1.2518188557E+02	0.000E+00	0.0
	-5	1	9	9	0	501	-1.4289726941E+02	9.9809350797E+01	3.0622260569E+02	3.5237947265E+02	4.1800000000E+00	0.000E+00	0.0
	5	1	9	9	501	0	1.7856572449E+01	-7.0303149237E+00	8.0962010320E+01	8.3310275613E+01	4.1800000000E+00	0.000E+00	0.0
</event>
<event>
    11  -1  1.0000000E+00  1.0000000E+00  -1.0000000E+00  -1.0000000E+00
	2212	-1	0	0	0	0	0.0000000000E+00	0.0000000000E+00	6.5000000000E+03	6.5000000000E+03	9.3827000000E-01	0.000E+00	0.0
	2212	-1	0	0	0	0	0.0000000000E+00	0.0000000000E+00	-6.5000000000E+03	6.5000000000E+03	9.3827000000E-01	0.000E+00	0.0
	2212	1	0	0	0	0	0.0000000000E+00	0.0000000000E+00	6.0929899998E+03	6.0929899998E+03	9.3827000000E-01	0.000E+00	0.0
	2212	1	0	0	0	0	0.0000000000E+00	0.0000000000E+00	-5.8447575940E+03	5.8447575940E+03	9.3827000000E-01	0.000E+00	0.0
	51	2	1	2	0	0	-9.5806215442E+01	7.6808173426E+01	-2.4086665212E+02	1.0676403503E+03	1.0328411529E+03	0.000E+00	0.0
	1000022	2	5	5	0	0	9.5806215442E+01	-7.6808173426E+01	-2.1515622562E+02	8.8380268334E+02	8.4837294584E+02	0.000E+00	0.0
	14	1	6	6	0	0	3.0189749501E+02	-4.8612008798E+01	-2.2083418532E+02	4.9789352506E+02	3.2500000000E+02	0.000E+00	0.0
	-14	1	6	6	0	0	-2.0609127957E+02	-2.8196164627E+01	5.6779597010E+00	3.8590915827E+02	3.2500000000E+02	0.000E+00	0.0
	25	2	5	5	0	0	-9.5806215442E+01	7.6808173426E+01	-3.3076180249E+01	1.7844972285E+02	1.2518763303E+02	0.000E+00	0.0
	-5	1	9	9	0	501	-7.1167015397E+00	8.1532968817E+01	-3.5953345725E+01	8.9489596679E+01	4.1800000000E+00	0.000E+00	0.0
	5	1	9	9	501	0	-8.8689513903E+01	-4.7247953911E+00	2.8771654766E+00	8.8960126174E+01	4.1800000000E+00	0.000E+00	0.0
</event>
<event>
    11  -1  1.0000000E+00  1.0000000E+00  -1.0000000E+00  -1.0000000E+00
	2212	-1	0	0	0	0	0.0000000000E+00	0.0000000000E+00	6.5000000000E+03	6.5000000000E+03	9.3827000000E-01	0.000E+00	0.0
	2212	-1	0	0	0	0	0.0000000000E+00	0.0000000000E+00	-6.5000000000E+03	6.5000000000E+03	9.3827000000E-01	0.000E+00	0.0
	2212	1	0	0	0	0	0.0000000000E+00	0.0000000000E+00	5.3750485486E+03	5.3750485486E+03	9.3827000000E-01	0.000E+00	0.0
	2212	1	0	0	0	0	0.0000000000E+00	0.0000000000E+00	-6.2826565145E+03	6.2826565145E+03	9.3827000000E-01	0.000E+00	0.0
	51	2	1	2	0	0	-3.3419233204E+01	-2.3230178283E+01	9.7094119774E+02	1.3865016314E+03	9.8894058367E+02	0.000E+00	0.0
	1000022	2	5	5	0	0	3.3419233204E+01	2.3230178283E+01	7.1823460249E+02	1.1116828376E+03	8.4753837722E+02	0.000E+00	0.0
	14	1	6	6	0	0	-1.7526587810E+01	1.8025800797E+02	8.5962830516E+01	3.8185696137E+02	3.2500000000E+02	0.000E+00	0.0
	-14	1	6	6	0	0	5.0945821013E+01	-1.5702782968E+02	6.3227177198E+02	7.2982587623E+02	3.2500000000E+02	0.000E+00	0.0
	25	2	5	5	0	0	-3.3419233204E+01	-2.3230178283E+01	1.8937336338E+02	2.3061209935E+02	1.2515263991E+02	0.000E+00	0.0
	-5	1	9	9	0	501	-4.8981531418E+01	-5.9278385412E+01	6.7170764257E+01	1.0218855791E+02	4.1800000000E+00	0.000E+00	0.0
	5	1	9	9	501	0	1.5562298215E+01	3.6048207129E+01	1.2220259912E+02	1.2842354143E+02	4.1800000000E+00	0.000E+00	0.0
</event>
<event>
    11  -1  1.0000000E+00  1.0000000E+00  -1.0000000E+00  -1.0000000E+00
	2212	-1	0	0	0	0	0.0000000000E+00	0.0000000000E+00	6.5000000000E+03	6.5000000000E+03	9.3827000000E-01	0.000E+00	0.0
	2212	-1	0	0	0	0	0.0000000000E+00	0.0000000000E+00	-6.5000000000E+03	6.5000000000E+03	9.3827000000E-01	0.000E+00	0.0
	2212	1	0	0	0	0	0.0000000000E+00	0.0000000000E+00	6.2702102024E+03	6.2702102024E+03	9.3827000000E-01	0.000E+00	0.0
	2212	1	0	0	0	0	0.0000000000E+00	0.0000000000E+00	-5.3030786799E+03	5.3030786799E+03	9.3827000000E-01	0.000E+00	0.0
	51	2	1	2	0	0	-5.6240385196E+01	6.3786460228E+01	-8.0237651389E+02	1.3233295112E+03	1.0488857095E+03	0.000E+00	0.0
	1000022	2	5	5	0	0	5.6240385196E+01	-6.3786460228E+01	-9.5907725717E+02	1.2751647165E+03	8.3605273484E+02	0.000E+00	0.0
	14	1	6	6	0	0	-1.3937336630E+02	-1.0215766961E+02	-7.6139391037E+02	8.4569900759E+02	3.2500000000E+02	0.000E+00	0.0
	-14	1	6	6	0	0	1.9561375150E+02	3.8371209378E+01	-1.9768334680E+02	4.2946570886E+02	3.2500000000E+02	0.000E+00	0.0
	25	2	5	5	0	0	-5.6240385196E+01	6.3786460228E+01	-8.0542653123E+00	1.5154640127E+02	1.2517886048E+02	0.000E+00	0.0
	-5	1	9	9	0	501	-8.6593058083E+01	7.7155006476E+01	-1.6091551209E+01	1.1716511065E+02	4.1800000000E+00	0.000E+00	0.0
	5	1	9	9	501	0	3.0352672887E+01	-1.3368546248E+01	8.0372858970E+00	3.4381290621E+01	4.1800000000E+00	0.000E+00	0.0
</event>
<event>
    11  -1  1.0000000E+00  1.0000000E+00  -1.0000000E+00  -1.0000000E+00
	2212	-1	0	0	0	0	0.0000000000E+00	0.0000000000E+00	6.5000000000E+03	6.5000000000E+03	9.3827000000E-01	0.000E+00	0.0
	2212	-1	0	0	0	0	0.0000000000E+00	0.0000000000E+00	-6.5000000000E+03	6.5000000000E+03	9.3827000000E-01	0.000E+00	0.0
	2212	1	0	0	0	0	0.0000000000E+00	0.0000000000E+00	6.1394482757E+03	6.1394482757E+03	9.3827000000E-01	0.000E+00	0.0
	2212	1	0	0	0	0	0.0000000000E+00	0.0000000000E+00	-5.2848211064E+03	5.2848211064E+03	9.3827000000E-01	0.000E+00	0.0
	51	2	1	2	0	0	3.1876773103E+02	4.6049711145E+01	-6.5573280654E+02	1.5120378096E+03	1.3238351037E+03	0.000E+00	0.0
	1000022	2	5	5	0	0	-3.1876773103E+02	-4.6049711145E+01	-8.3112921934E+02	1.2293845360E+03	8.4668596053E+02	0.000E+00	0.0
	14	1	6	6	0	0	-3.5323525597E+02	-1.8426525301E+02	-6.5656055346E+02	8.3392181281E+02	3.2500000000E+02	0.000E+00	0.0
	-14	1	6	6	0	0	3.4467524937E+01	1.3821554186E+02	-1.7456866588E+02	3.9546272314E+02	3.2500000000E+02	0.000E+00	0.0
	25	2	5	5	0	0	3.1876773103E+02	4.6049711145E+01	-2.3497949864E+01	3.4634608195E+02	1.2517992087E+02	0.000E+00	0.0
	-5	1	9	9	0	501	2.9976097224E+02	2.4521057821E+01	1.1338928328E+01	3.0100492762E+02	4.1800000000E+00	0.000E+00	0.0
	5	1	9	9	501	0	1.9006758791E+01	2.1528653324E+01	-3.4836878192E+01	4.5341154328E+01	4.1800000000E+00	0.000E+00	0.0
</event>
<event>
    11  -1  1.0000000E+00  1.0000000E+00  -1.0000000E+00  -1.0000000E+00
	2212	-1	0	0	0	0	0.0000000000E+00	0.0000000000E+00	6.5000000000E+03	6.5000000000E+03	9.3827000000E-01	0.000E+00	0.0
	2212	-1	0	0	0	0	0.0000000000E+00	0.0000000000E+00	-6.5000000000E+03	6.5000000000E+03	9.3827000000E-01	0.000E+00	0.0
	2212	1	0	0	0	0	0.0000000000E+00	0.0000000000E+00	5.7766578115E+03	5.7766578115E+03	9.3827000000E-01	0.000E+00	0.0
	2212	1	0	0	0	0	0.0000000000E+00	0.0000000000E+00	-6.1164619717E+03	6.1164619717E+03	9.3827000000E-01	0.000E+00	0.0
	51	2	1	2	0	0	-1.6693307366E+02	-7.2965495619E+00	3.0491641411E+02	1.1093290123E+03	1.0534310358E+03	0.000E+00	0.0
	1000022	2	5	5	0	0	1.6693307366E+02	7.2965495619E+00	3.1073268460E+02	8.9609024901E+02	8.2371296115E+02	0.000E+00	0.0
	14	1	6	6	0	0	-4.4432255622E+01	-1.9741085872E+02	2.4042001020E+02	4.5207527447E+02	3.2500000000E+02	0.000E+00	0.0
	-14	1	6	6	0	0	2.1136532928E+02	2.0470740829E+02	7.0312674401E+01	4.4401497454E+02	3.2500000000E+02	0.000E+00	0.0
	25	2	5	5	0	0	-1.6693307366E+02	-7.2965495619E+00	2.9071475574E+01	2.1078996785E+02	1.2516936181E+02	0.000E+00	0.0
	-5	1	9	9	0	501	-1.4754240023E+02	-2.2198110358E+01	6.8481025315E+01	1.6422131164E+02	4.1800000000E+00	0.000E+00	0.0
	5	1	9	9	501	0	-1.9390673434E+01	1.4901560796E+01	-3.9409549741E+01	4.6568656209E+01	4.1800000000E+00	0.000E+00	0.0
</event>
<event>
    11  -1  1.0000000E+00  1.0000000E+00  -1.0000000E+00  -1.0000000E+00
	2212	-1	0	0	0	0	0.0000000000E+00	0.0000000000E+00	6.5000000000E+03	6.5000000000E+03	9.3827000000E-01	0.000E+00	0.0
	2212	-1	0	0	0	0	0.0000000000E+00	0.0000000000E+00	-6.5000000000E+03	6.5000000000E+03	9.3827000000E-01	0.000E+00	0.0
	2212	1	0	0	0	0	0.0000000000E+00	0.0000000000E+00	5.9710830422E+03	5.9710830422E+03	9.3827000000E-01	0.000E+00	0.0
	2212	1	0	0	0	0	0.0000000000E+00	0.0000000000E+00	-5.9833716917E+03	5.9833716917E+03	9.3827000000E-01	0.000E+00	0.0
	51	2	1	2	0	0	-4.0347885896E+00	2.9427931269E+01	-1.2552324898E+02	1.0534003328E+03	1.0454730473E+03	0.000E+00	0.0
	1000022	2	5	5	0	0	4.0347885896E+00	-2.9427931269E+01	1.4799504053E+02	8.5854899433E+02	8.4517546166E+02	0.000E+00	0.0
	14	1	6	6	0	0	-6.2914045791E+01	-1.4894378419E+02	3.0344074049E+02	4.7312124344E+02	3.2500000000E+02	0.000E+00	0.0
	-14	1	6	6	0	0	6.6948834381E+01	1.1951585292E+02	-1.5544569996E+02	3.8542775089E+02	3.2500000000E+02	0.000E+00	0.0
	25	2	5	5	0	0	-4.0347885896E+00	2.9427931269E+01	-1.3570639096E+02	1.8699627175E+02	1.2517626949E+02	0.000E+00	0.0
	-5	1	9	9	0	501	8.5536225979E+00	-4.0449094658E+01	-9.8107270221E+01	1.0654483839E+02	4.1800000000E+00	0.000E+00	0.0
	5	1	9	9	501	0	-1.2588411187E+01	6.9877025928E+01	-3.7599120741E+01	8.0451433357E+01	4.1800000000E+00	0.000E+00	0.0
</event>
<event>
    11  -1  1.0000000E+00  1.0000000E+00  -1.0000000E+00  -1.0000000E+00
	2212	-1	0	0	0	0	0.0000000000E+00	0.0000000000E+00	6.5000000000E+03	6.5000000000E+03	9.3827000000E-01	0.000E+00	0.0
	2212	-1	0	0	0	0	0.0000000000E+00	0.0000000000E+00	-6.5000000000E+03	6.5000000000E+03	9.3827000000E-01	0.000E+00	0.0
	2212	1	0	0	0	0	0.0000000000E+00	0.0000000000E+00	6.2853382309E+03	6.2853382309E+03	9.3827000000E-01	0.000E+00	0.0
	2212	1	0	0	0	0	0.0000000000E+00	0.0000000000E+00	-5.2207351972E+03	5.2207351972E+03	9.3827000000E-01	0.000E+00	0.0
	51	2	1	2	0	0	-3.1197249865E+01	1.0750353237E+02	-1.1846754555E+03	1.5856932856E+03	1.0480634442E+03	0.000E+00	0.0
	1000022	2	5	5	0	0	3.1197249865E+01	-1.0750353237E+02	-7.6546162568E+02	1.1508775417E+03	8.5208998212E+02	0.000E+00	0.0
	14	1	6	6	0	0	2.3625324723E+02	7.0721424776E+01	-2.3074761060E+02	4.6870734637E+02	3.2500000000E+02	0.000E+00	0.0
	-14	1	6	6	0	0	-2.0505599736E+02	-1.7822495714E+02	-5.3471401508E+02	6.8217019528E+02	3.2500000000E+02	0.000E+00	0.0
	25	2	5	5	0	0	-3.1197249865E+01	1.0750353237E+02	-2.9914140803E+02	3.4304903034E+02	1.2516699783E+02	0.000E+00	0.0
	-5	1	9	9	0	501	-5.5770602639E+01	1.2191183216E+02	-2.0824649910E+02	2.4770331392E+02	4.1800000000E+00	0.000E+00	0.0
	5	1	9	9	501	0	2.4573352774E+01	-1.4408299792E+01	-9.0894908936E+01	9.5345716421E+01	4.1800000000E+00	0.000E+00	0.0
</event>
<event>
    11  -1  1.0000000E+00  1.0000000E+00  -1.0000000E+00  -1.0000000E+00
	2212	-1	0	0	0	0	0.0000000000E+00	0.0000000000E+00	6.5000000000E+03	6.5000000000E+03	9.3827000000E-01	0.000E+00	0.0
	2212	-1	0	0	0	0	0.0000000000E+00	0.0000000000E+00	-6.5000000000E+03	6.5000000000E+03	9.3827000000E-01	0.000E+00	0.0
	2212	1	0	0	0	0	0.0000000000E+00	0.0000000000E+00	5.4242124644E+03	5.4242124644E+03	9.3827000000E-01	0.000E+00	0.0
	2212	1	0	0	0	0	0.0000000000E+00	0.0000000000E+00	-6.2428170944E+03	6.2428170944E+03	9.3827000000E-01	0.000E+00	0.0
	51	2	1	2	0	0	7.4499886098E+01	-1.3107981738E+02	8.7400107534E+02	1.3759748138E+03	1.0519965100E+03	0.000E+00	0.0
	1000022	2	5	5	0	0	-7.4499886098E+01	1.3107981738E+02	6.1692955942E+02	1.0517740571E+03	8.3838799746E+02	0.000E+00	0.0
	14	1	6	6	0	0	-5.2992476357E+00	8.6421006383E+01	-1.4721674296E+01	3.3665768974E+02	3.2500000000E+02	0.000E+00	0.0
	-14	1	6	6	0	0	-6.9200638463E+01	4.4658810995E+01	6.3165123372E+02	7.1511636733E+02	3.2500000000E+02	0.000E+00	0.0
	25	2	5	5	0	0	7.4499886098E+01	-1.3107981738E+02	2.0167507053E+02	2.8119638417E+02	1.2516557372E+02	0.000E+00	0.0
	-5	1	9	9	0	501	2.4721723092E+01	-8.5051941608E+01	1.9341309258E+02	2.1277004758E+02	4.1800000000E+00	0.000E+00	0.0
	5	1	9	9	501	0	4.9778163006E+01	-4.6027875771E+01	8.2619779515E+00	6.8426336596E+01	4.1800000000E+00	0.000E+00	0.0
</event>
<event>
    11  -1  1.0000000E+00  1.0000000E+00  -1.0000000E+00  -1.0000000E+00
	2212	-1	0	0	0	0	0.0000000000E+00	0.0000000000E+00	6.5000000000E+03	6.5000000000E+03	9.3827000000E-01	0.000E+00	0.0
	2212	-1	0	0	0	0	0.0000000000E+00	0.0000000000E+00	-6.5000000000E+03	6.5000000000E+03	9.3827000000E-01	0.000E+00	0.0
	2212	1	0	0	0	0	0.0000000000E+00	0.0000000000E+00	5.7377152224E+03	5.7377152224E+03	9.3827000000E-01	0.000E+00	0.0
	2212	1	0	0	0	0	0.0000000000E+00	0.0000000000E+00	-6.1387075460E+03	6.1387075460E+03	9.3827000000E-01	0.000E+00	0.0
	51	2	1	2	0	0	6.0811059779E+01	-1.0623644864E+02	4.8241954224E+02	1.1616125578E+03	1.0495860859E+03	0.000E+00	0.0
	1000022	2	5	5	0	0	-6.0811059779E+01	1.0623644864E+02	2.5081761734E+02	8.9291200360E+02	8.4817344983E+02	0.000E+00	0.0
	14	1	6	6	0	0	2.0128950692E+02	8.5920979706E+01	2.6773109638E+02	4.7455749948E+02	3.2500000000E+02	0.000E+00	0.0
	-14	1	6	6	0	0	-2.6210056670E+02	2.0315468936E+01	-1.6913479038E+01	4.1835450412E+02	3.2500000000E+02	0.000E+00	0.0
	25	2	5	5	0	0	6.0811059779E+01	-1.0623644864E+02	1.5017470631E+02	2.3066522801E+02	1.2517921948E+02	0.000E+00	0.0
	-5	1	9	9	0	501	8.2820744060E+01	-1.1893411752E+02	1.0626636683E+02	1.7976265762E+02	4.1800000000E+00	0.000E+00	0.0
	5	1	9	9	501	0	-2.2009684281E+01	1.2697668875E+01	4.3908339472E+01	5.0902570389E+01	4.1800000000E+00	0.000E+00	0.0
</event>
<event>
    11  -1  1.0000000E+00  1.0000000E+00  -1.0000000E+00  -1.0000000E+00
	2212	-1	0	0	0	0	0.0000000000E+00	0.0000000000E+00	6.5000000000E+03	6.5000000000E+03	9.3827000000E-01	0.000E+00	0.0
	2212	-1	0	0	0	0	0.0000000000E+00	0.0000000000E+00	-6.5000000000E+03	6.5000000000E+03	9.3827000000E-01	0.000E+00	0.0
	2212	1	0	0	0	0	0.0000000000E+00	0.0000000000E+00	5.9914489167E+03	5.9914489167E+03	9.3827000000E-01	0.000E+00	0.0
	2212	1	0	0	0	0	0.0000000000E+00	0.0000000000E+00	-5.9605255607E+03	5.9605255607E+03	9.3827000000E-01	0.000E+00	0.0
	51	2	1	2	0	0	-9.4531078459E+01	-2.8379276751E+01	-1.2219282561E+02	1.0592798671E+03	1.0475692063E+03	0.000E+00	0.0
	1000022	2	5	5	0	0	9.4531078459E+01	2.8379276751E+01	6.5511100190E+01	8.6172426869E+02	8.5354291213E+02	0.000E+00	0.0
	14	1	6	6	0	0	2.0721450338E+02	1.4819303122E+02	-1.4899864458E+02	4.3900412413E+02	3.2500000000E+02	0.000E+00	0.0
	-14	1	6	6	0	0	-1.1268342492E+02	-1.1981375447E+02	2.1450974477E+02	4.2272014456E+02	3.2500000000E+02	0.000E+00	0.0
	25	2	5	5	0	0	-9.4531078459E+01	-2.8379276751E+01	-9.6434456260E+01	1.8630125389E+02	1.2516806583E+02	0.000E+00	0.0
	-5	1	9	9	0	501	-6.0593149541E+01	2.1550540412E+01	8.6621460992E+00	6.5026615615E+01	4.1800000000E+00	0.000E+00	0.0
	5	1	9	9	501	0	-3.3937928918E+01	-4.9929817162E+01	-1.0509660236E+02	1.2127463827E+02	4.1800000000E+00	0.000E+00	0.0
</event>
<event>
    11  -1  1.0000000E+00  1.0000000E+00  -1.0000000E+00  -1.0000000E+00
	2212	-1	0	0	0	0	0.0000000000E+00	0.0000000000E+00	6.5000000000E+03	6.5000000000E+03	9.3827000000E-01	0.000E+00	0.0
	2212	-1	0	0	0	0	0.0000000000E+00	0.0000000000E+00	-6.5000000000E+03	6.5000000000E+03	9.3827000000E-01	0.000E+00	0.0
	2212	1	0	0	0	0	0.0000000000E+00	0.0000000000E+00	6.1277572032E+03	6.1277572032E+03	9.3827000000E-01	0.000E+00	0.0
	2212	1	0	0	0	0	0.0000000000E+00	0.0000000000E+00	-5.7546543541E+03	5.7546543541E+03	9.3827000000E-01	0.000E+00	0.0
	51	2	1	2	0	0	-8.7043399415E+01	5.1046189222E+01	-2.6303931691E+02	1.0904907796E+03	1.0534695967E+03	0.000E+00	0.0
	1000022	2	5	5	0	0	8.7043399415E+01	-5.1046189222E+01	-4.1835620302E+02	9.5055436332E+02	8.4755496471E+02	0.000E+00	0.0
	14	1	6	6	0	0	2.5114607913E+02	-2.1148848565E+01	-2.2487351408E+01	4.1188870807E+02	3.2500000000E+02	0.000E+00	0.0
	-14	1	6	6	0	0	-1.6410267972E+02	-2.9897340657E+01	-3.9586885161E+02	5.3866565525E+02	3.2500000000E+02	0.000E+00	0.0
	25	2	5	5	0	0	-8.7043399415E+01	5.1046189222E+01	4.5253353905E+01	1.6703407938E+02	1.2518087242E+02	0.000E+00	0.0
	-5	1	9	9	0	501	-6.0276073345E+01	8.5699620261E+01	5.9792018954E+01	1.2070703319E+02	4.1800000000E+00	0.000E+00	0.0
	5	1	9	9	501	0	-2.6767326069E+01	-3.4653431038E+01	-1.4538665049E+01	4.6327046193E+01	4.1800000000E+00	0.000E+00	0.0
</event>
<event>
    11  -1  1.0000000E+00  1.0000000E+00  -1.0000000E+00  -1.0000000E+00
	2212	-1	0	0	0	0	0.0000000000E+00	0.0000000000E+00	6.5000000000E+03	6.5000000000E+03	9.3827000000E-01	0.000E+00	0.0
	2212	-1	0	0	0	0	0.0000000000E+00	0.0000000000E+00	-6.5000000000E+03	6.5000000000E+03	9.3827000000E-01	0.000E+00	0.0
	2212	1	0	0	0	0	0.0000000000E+00	0.0000000000E+00	5.1306393735E+03	5.1306393735E+03	9.3827000000E-01	0.000E+00	0.0
	2212	1	0	0	0	0	0.0000000000E+00	0.0000000000E+00	-6.2997323716E+03	6.2997323716E+03	9.3827000000E-01	0.000E+00	0.0
	51	2	1	2	0	0	3.4403468626E+01	5.8956915515E+01	1.3425797494E+03	1.7041520825E+03	1.0473559186E+03	0.000E+00	0.0
	1000022	2	5	5	0	0	-3.4403468626E+01	-5.8956915515E+01	8.0358788060E+02	1.1772999125E+03	8.5768414086E+02	0.000E+00	0.0
	14	1	6	6	0	0	-1.1009521803E+02	-2.2963168204E+02	1.8149202181E+02	4.5101665203E+02	3.2500000000E+02	0.000E+00	0.0
	-14	1	6	6	0	0	7.5691749409E+01	1.7067476652E+02	6.2209585879E+02	7.2628326043E+02	3.2500000000E+02	0.000E+00	0.0
	25	2	5	5	0	0	3.4403468626E+01	5.8956915515E+01	3.6550511754E+02	3.9232834241E+02	1.2517196481E+02	0.000E+00	0.0
	-5	1	9	9	0	501	7.2030376479E+01	4.1135965149E+01	1.3845878950E+02	1.6145851342E+02	4.1800000000E+00	0.000E+00	0.0
	5	1	9	9	501	0	-3.7626907853E+01	1.7820950365E+01	2.2704632804E+02	2.3086982900E+02	4.1800000000E+00	0.000E+00	0.0
</event>
<event>
    11  -1  1.0000000E+00  1.0000000E+00  -1.0000000E+00  -1.0000000E+00
	2212	-1	0	0	0	0	0.0000000000E+00	0.0000000000E+00	6.5000000000E+03	6.5000000000E+03	9.3827000000E-01	0.000E+00	0.0
	2212	-1	0	0	0	0	0.0000000000E+00	0.0000000000E+00	-6.5000000000E+03	6.5000000000E+03	9.3827000000E-01	0.000E+00	0.0
	2212	1	0	0	0	0	0.0000000000E+00	0.0000000000E+00	5.8673368781E+03	5.8673368781E+03	9.3827000000E-01	0.000E+00	0.0
	2212	1	0	0	0	0	0.0000000000E+00	0.0000000000E+00	-6.0585438132E+03	6.0585438132E+03	9.3827000000E-01	0.000E+00	0.0
	51	2	1	2	0	0	9.7218865339E+01	-1.0823316890E+02	2.1182357012E+02	1.0877533492E+03	1.0569636688E+03	0.000E+00	0.0
	1000022	2	5	5	0	0	-9.7218865339E+01	1.0823316890E+02	1.3754189528E+02	8.7483337377E+02	8.5161595352E+02	0.000E+00	0.0
	14	1	6	6	0	0	1.0316314562E+02	-2.4838557685E+01	-1.5538827737E+02	3.7553975196E+02	3.2500000000E+02	0.000E+00	0.0
	-14	1	6	6	0	0	-2.0038201096E+02	1.3307172658E+02	2.9293017265E+02	4.9929362181E+02	3.2500000000E+02	0.000E+00	0.0
	25	2	5	5	0	0	9.7218865339E+01	-1.0823316890E+02	5.3665039815E+01	1.9928593486E+02	1.2517595898E+02	0.000E+00	0.0
	-5	1	9	9	0	501	3.1248875078E+01	-4.8884609292E+01	8.6785731926E+01	1.0447694906E+02	4.1800000000E+00	0.000E+00	0.0
	5	1	9	9	501	0	6.5969990261E+01	-5.9348559604E+01	-3.3120692111E+01	9.4808985797E+01	4.1800000000E+00	0.000E+00	0.0
</event>
<event>
    11  -1  1.0000000E+00  1.0000000E+00  -1.0000000E+00  -1.0000000E+00
	2212	-1	0	0	0	0	0.0000000000E+00	0.0000000000E+00	6.5000000000E+03	6.5000000000E+03	9.3827000000E-01	0.000E+00	0.0
	2212	-1	0	0	0	0	0.0000000000E+00	0.0000000000E+00	-6.5000000000E+03	6.5000000000E+03	9.3827000000E-01	0.000E+00	0.0
	2212	1	0	0	0	0	0.0000000000E+00	0.0000000000E+00	5.9297431467E+03	5.9297431467E+03	9.3827000000E-01	0.000E+00	0.0
	2212	1	0	0	0	0	0.0000000000E+00	0.0000000000E+00	-6.0182676140E+03	6.0182676140E+03	9.3827000000E-01	0.000E+00	0.0
	51	2	1	2	0	0	-2.8020493948E+01	-1.1991041371E+02	1.3306770667E+02	1.0638211543E+03	1.0482579732E+03	0.000E+00	0.0
	1000022	2	5	5	0	0	2.8020493948E+01	1.1991041371E+02	2.9385839629E+01	8.6671158755E+02	8.5741576439E+02	0.000E+00	0.0
	14	1	6	6	0	0	-1.3937465516E+02	-1.3517988598E+01	-2.0836514056E+02	4.1066904231E+02	3.2500000000E+02	0.000E+00	0.0
	-14	1	6	6	0	0	1.6739514910E+02	1.3342840231E+02	2.3775098019E+02	4.5604254524E+02	3.2500000000E+02	0.000E+00	0.0
	25	2	5	5	0	0	-2.8020493948E+01	-1.1991041371E+02	5.9138627682E+01	1.8527765178E+02	1.2516699073E+02	0.000E+00	0.0
	-5	1	9	9	0	501	3.7372600776E+00	-2.9241324769E+01	-3.8211687249E+01	4.8442002741E+01	4.1800000000E+00	0.000E+00	0.0
	5	1	9	9	501	0	-3.1757754026E+01	-9.0669088940E+01	9.7350314932E+01	1.3683564904E+02	4.1800000000E+00	0.000E+00	0.0
</event>
<event>
    11  -1  1.0000000E+00  1.0000000E+00  -1.0000000E+00  -1.0000000E+00
	2212	-1	0	0	0	0	0.0000000000E+00	0.0000000000E+00	6.5000000000E+03	6.5000000000E+03	9.3827000000E-01	0.000E+00	0.0
	2212	-1	0	0	0	0	0.0000000000E+00	0.0000000000E+00	-6.5000000000E+03	6.5000000000E+03	9.3827000000E-01	0.000E+00	0.0
	2212	1	0	0	0	0	0.0000000000E+00	0.0000000000E+00	6.2487649941E+03	6.2487649941E+03	9.3827000000E-01	0.000E+00	0.0
	2212	1	0	0	0	0	0.0000000000E+00	0.0000000000E+00	-5.4059877105E+03	5.4059877105E+03	9.3827000000E-01	0.000E+00	0.0
	51	2	1	2	0	0	-2.2062975338E+01	1.3674872631E+02	-7.5191285078E+02	1.2976812629E+03	1.0485307510E+03	0.000E+00	0.0
	1000022	2	5	5	0	0	2.2062975338E+01	-1.3674872631E+02	-7.8055011812E+02	1.1484473932E+03	8.3095483568E+02	0.000E+00	0.0
	14	1	6	6	0	0	2.3033822362E+02	-1.1511517248E+02	-5.7982092536E+02	7.1282852474E+02	3.2500000000E+02	0.000E+00	0.0
	-14	1	6	6	0	0	-2.0827524828E+02	-2.1633553831E+01	-2.0072919276E+02	4.3561886842E+02	3.2500000000E+02	0.000E+00	0.0
	25	2	5	5	0	0	-2.2062975338E+01	1.3674872631E+02	-6.2227165509E+01	1.9679990220E+02	1.2518383423E+02	0.000E+00	0.0
	-5	1	9	9	0	501	-2.2127346740E+01	1.5579169901E+02	-3.1688953172E+01	1.6056878622E+02	4.1800000000E+00	0.000E+00	0.0
	5	1	9	9	501	0	6.4371402197E-02	-1.9042972700E+01	-3.0538212337E+01	3.6231115987E+01	4.1800000000E+00	0.000E+00	0.0
</event>
<event>
    11  -1  1.0000000E+00  1.0000000E+00  -1.0000000E+00  -1.0000000E+00
	2212	-1	0	0	0	0	0.0000000000E+00	0.0000000000E+00	6.5000000000E+03	6.5000000000E+03	9.3827000000E-01	0.000E+00	0.0
	2212	-1	0	0	0	0	0.0000000000E+00	0.0000000000E+00	-6.5000000000E+03	6.5000000000E+03	9.3827000000E-01	0.000E+00	0.0
	2212	1	0	0	0	0	0.0000000000E+00	0.0000000000E+00	6.0978427992E+03	6.0978427992E+03	9.3827000000E-01	0.000E+00	0.0
	2212	1	0	0	0	0	0.0000000000E+00	0.0000000000E+00	-5.8170082077E+03	5.8170082077E+03	9.3827000000E-01	0.000E+00	0.0
	51	2	1	2	0	0	-7.9131061415E+01	2.6682947012E+01	-1.6906771920E+02	1.0650060412E+03	1.0481795026E+03	0.000E+00	0.0
	1000022	2	5	5	0	0	7.9131061415E+01	-2.6682947012E+01	-3.4504717673E+02	9.2154148039E+02	8.5041604016E+02	0.000E+00	0.0
	14	1	6	6	0	0	1.0260228436E+02	2.4304997441E+02	-9.1876522624E+01	4.2856366415E+02	3.2500000000E+02	0.000E+00	0.0
	-14	1	6	6	0	0	-2.3471222942E+01	-2.6973292142E+02	-2.5317065411E+02	4.9297781624E+02	3.2500000000E+02	0.000E+00	0.0
	25	2	5	5	0	0	-7.9131061415E+01	2.6682947012E+01	6.4212585248E+01	1.6360751278E+02	1.2518169831E+02	0.000E+00	0.0
	-5	1	9	9	0	501	-3.6470816454E+00	5.9524105090E+01	1.0952353526E+00	5.9792074991E+01	4.1800000000E+00	0.000E+00	0.0
	5	1	9	9	501	0	-7.5483979770E+01	-3.2841158077E+01	6.3117349896E+01	1.0381543779E+02	4.1800000000E+00	0.000E+00	0.0
</event>
<event>
    11  -1  1.0000000E+00  1.0000000E+00  -1.0000000E+00  -1.0000000E+00
	2212	-1	0	0	0	0	0.0000000000E+00	0.0000000000E+00	6.5000000000E+03	6.5000000000E+03	9.3827000000E-01	0.000E+00	0.0
	2212	-1	0	0	0	0	0.0000000000E+00	0.0000000000E+00	-6.5000000000E+03	6.5000000000E+03	9.3827000000E-01	0.000E+00	0.0
	2212	1	0	0	0	0	0.0000000000E+00	0.0000000000E+00	6.0664872027E+03	6.0664872027E+03	9.3827000000E-01	0.000E+00	0.0
	2212	1	0	0	0	0	0.0000000000E+00	0.0000000000E+00	-5.8675472991E+03	5.8675472991E+03	9.3827000000E-01	0.000E+00	0.0
	51	2	1	2	0	0	-1.0053915974E+02	8.8467358043E+00	-1.0317062316E+02	1.0571357164E+03	1.0472370114E+03	0.000E+00	0.0
	1000022	2	5	5	0	0	1.0053915974E+02	-8.8467358043E+00	-2.6089397183E+02	8.9360563952E+02	8.4869251621E+02	0.000E+00	0.0
	14	1	6	6	0	0	-2.0472599638E+01	-1.9148505381E+02	6.5674088019E+01	3.8343674707E+02	3.2500000000E+02	0.000E+00	0.0
	-14	1	6	6	0	0	1.2101175937E+02	1.8263831801E+02	-3.2656805985E+02	5.1016889245E+02	3.2500000000E+02	0.000E+00	0.0
	25	2	5	5	0	0	-1.0053915974E+02	8.8467358043E+00	6.1954068189E+01	1.7235985867E+02	1.2523269119E+02	0.000E+00	0.0
	-5	1	9	9	0	501	-1.2604207259E+02	-5.2611450806E+00	6.6338044920E+01	1.4259204856E+02	4.1800000000E+00	0.000E+00	0.0
	5	1	9	9	501	0	2.5502912850E+01	1.4107880885E+01	-4.3839767309E+00	2.9767810112E+01	4.1800000000E+00	0.000E+00	0.0
</event>
<event>
    11  -1  1.0000000E+00  1.0000000E+00  -1.0000000E+00  -1.0000000E+00
	2212	-1	0	0	0	0	0.0000000000E+00	0.0000000000E+00	6.5000000000E+03	6.5000000000E+03	9.3827000000E-01	0.000E+00	0.0
	2212	-1	0	0	0	0	0.0000000000E+00	0.0000000000E+00	-6.5000000000E+03	6.5000000000E+03	9.3827000000E-01	0.000E+00	0.0
	2212	1	0	0	0	0	0.0000000000E+00	0.0000000000E+00	5.1922870057E+03	5.1922870057E+03	9.3827000000E-01	0.000E+00	0.0
	2212	1	0	0	0	0	0.0000000000E+00	0.0000000000E+00	-6.2917064619E+03	6.2917064619E+03	9.3827000000E-01	0.000E+00	0.0
	51	2	1	2	0	0	1.4142982385E+02	1.7999352586E+01	1.1618224222E+03	1.5683463834E+03	1.0438163946E+03	0.000E+00	0.0
	1000022	2	5	5	0	0	-1.4142982385E+02	-1.7999352586E+01	8.4455155538E+02	1.1982737991E+03	8.3801336277E+02	0.000E+00	0.0
	14	1	6	6	0	0	3.9535000096E+01	9.1512291242E+01	9.2768442368E+01	3.5237550934E+02	3.2500000000E+02	0.000E+00	0.0
	-14	1	6	6	0	0	-1.8096482395E+02	-1.0951164383E+02	7.5178311301E+02	8.4589828978E+02	3.2500000000E+02	0.000E+00	0.0
	25	2	5	5	0	0	1.4142982385E+02	1.7999352586E+01	2.5486790083E+02	3.1773273333E+02	1.2518015492E+02	0.000E+00	0.0
	-5	1	9	9	0	501	2.0336480962E+00	-2.2854469852E+01	1.1034335927E+02	1.1278116798E+02	4.1800000000E+00	0.000E+00	0.0
	5	1	9	9	501	0	1.3939617576E+02	4.0853822438E+01	1.4452454156E+02	2.0495156535E+02	4.1800000000E+00	0.000E+00	0.0
</event>
<event>
    11  -1  1.0000000E+00  1.0000000E+00  -1.0000000E+00  -1.0000000E+00
	2212	-1	0	0	0	0	0.0000000000E+00	0.0000000000E+00	6.5000000000E+03	6.5000000000E+03	9.3827000000E-01	0.000E+00	0.0
	2212	-1	0	0	0	0	0.0000000000E+00	0.0000000000E+00	-6.5000000000E+03	6.5000000000E+03	9.3827000000E-01	0.000E+00	0.0
	2212	1	0	0	0	0	0.0000000000E+00	0.0000000000E+00	6.1411351417E+03	6.1411351417E+03	9.3827000000E-01	0.000E+00	0.0
	2212	1	0	0	0	0	0.0000000000E+00	0.0000000000E+00	-5.7101078606E+03	5.7101078606E+03	9.3827000000E-01	0.000E+00	0.0
	51	2	1	2	0	0	8.1518199881E+01	-3.9823706597E+01	-5.7516226311E+02	1.2136312851E+03	1.0648277432E+03	0.000E+00	0.0
	1000022	2	5	5	0	0	-8.1518199881E+01	3.9823706597E+01	-2.1004107575E+02	8.7906184523E+02	8.4876459028E+02	0.000E+00	0.0
	14	1	6	6	0	0	-1.5874423926E+02	-2.1146675151E+02	-1.8858311855E+01	4.1940261852E+02	3.2500000000E+02	0.000E+00	0.0
	-14	1	6	6	0	0	7.7226039377E+01	2.5129045811E+02	-1.9118276389E+02	4.5965922671E+02	3.2500000000E+02	0.000E+00	0.0
	25	2	5	5	0	0	8.1518199881E+01	-3.9823706597E+01	-2.2098620535E+02	2.6969515249E+02	1.2517758506E+02	0.000E+00	0.0
	-5	1	9	9	0	501	1.7105777635E+01	-5.4319728318E+01	-2.4079204528E+01	6.1971937227E+01	4.1800000000E+00	0.000E+00	0.0
	5	1	9	9	501	0	6.4412422246E+01	1.4496021721E+01	-1.9690700082E+02	2.0772321526E+02	4.1800000000E+00	0.000E+00	0.0
</event>
<event>
    11  -1  1.0000000E+00  1.0000000E+00  -1.0000000E+00  -1.0000000E+00
	2212	-1	0	0	0	0	0.0000000000E+00	0.0000000000E+00	6.5000000000E+03	6.5000000000E+03	9.3827000000E-01	0.000E+00	0.0
	2212	-1	0	0	0	0	0.0000000000E+00	0.0000000000E+00	-6.5000000000E+03	6.5000000000E+03	9.3827000000E-01	0.000E+00	0.0
	2212	1	0	0	0	0	0.0000000000E+00	0.0000000000E+00	6.1672540277E+03	6.1672540277E+03	9.3827000000E-01	0.000E+00	0.0
	2212	1	0	0	0	0	0.0000000000E+00	0.0000000000E+00	-5.6727496712E+03	5.6727496712E+03	9.3827000000E-01	0.000E+00	0.0
	51	2	1	2	0	0	1.2877962307E+02	2.0783656480E+01	-4.5367617573E+02	1.1506063984E+03	1.0493125654E+03	0.000E+00	0.0
	1000022	2	5	5	0	0	-1.2877962307E+02	-2.0783656480E+01	-4.5217315857E+02	9.7431295420E+02	8.5311723444E+02	0.000E+00	0.0
	14	1	6	6	0	0	2.4810018845E+01	-1.7128436185E+02	1.1794741627E+01	3.6839922038E+02	3.2500000000E+02	0.000E+00	0.0
	-14	1	6	6	0	0	-1.5358964192E+02	1.5050070537E+02	-4.6396790020E+02	6.0591373382E+02	3.2500000000E+02	0.000E+00	0.0
	25	2	5	5	0	0	1.2877962307E+02	2.0783656480E+01	-4.2331197954E+01	1.8568334686E+02	1.2518076244E+02	0.000E+00	0.0
	-5	1	9	9	0	501	6.4652067513E+01	-4.7170556120E+01	6.0764218368E+00	8.0370059728E+01	4.1800000000E+00	0.000E+00	0.0
	5	1	9	9	501	0	6.4127555562E+01	6.7954212600E+01	-4.8407619791E+01	1.0531328713E+02	4.1800000000E+00	0.000E+00	0.0
</event>
<event>
    11  -1  1.0000000E+00  1.0000000E+00  -1.0000000E+00  -1.0000000E+00
	2212	-1	0	0	0	0	0.0000000000E+00	0.0000000000E+00	6.5000000000E+03	6.5000000000E+03	9.3827000000E-01	0.000E+00	0.0
	2212	-1	0	0	0	0	0.0000000000E+00	0.0000000000E+00	-6.5000000000E+03	6.5000000000E+03	9.3827000000E-01	0.000E+00	0.0
	2212	1	0	0	0	0	0.0000000000E+00	0.0000000000E+00	6.2083848818E+03	6.2083848818E+03	9.3827000000E-01	0.000E+00	0.0
	2212	1	0	0	0	0	0.0000000000E+00	0.0000000000E+00	-5.5581184905E+03	5.5581184905E+03	9.3827000000E-01	0.000E+00	0.0
	51	2	1	2	0	0	-9.4764845265E+00	2.9444575993E+01	-5.0187086257E+02	1.1625397630E+03	1.0481734355E+03	0.000E+00	0.0
	1000022	2	5	5	0	0	9.4764845265E+00	-2.9444575993E+01	-6.9010804354E+02	1.0985365910E+03	8.5415264629E+02	0.000E+00	0.0
	14	1	6	6	0	0	1.9587304649E+02	-2.1537828662E+02	-3.6191402726E+02	5.6688695506E+02	3.2500000000E+02	0.000E+00	0.0
	-14	1	6	6	0	0	-1.8639656197E+02	1.8593371063E+02	-3.2819401628E+02	5.3164963593E+02	3.2500000000E+02	0.000E+00	0.0
	25	2	5	5	0	0	-9.4764845265E+00	2.9444575993E+01	3.9841652315E+01	1.3496003671E+02	1.2518013994E+02	0.000E+00	0.0
	-5	1	9	9	0	501	-5.7145760443E+01	-7.4749791814E+00	-7.3900886794E+00	5.8254605492E+01	4.1800000000E+00	0.000E+00	0.0
	5	1	9	9	501	0	4.7669275916E+01	3.6919555175E+01	4.7231740994E+01	7.6705431216E+01	4.1800000000E+00	0.000E+00	0.0
</event>
<event>
    11  -1  1.0000000E+00  1.0000000E+00  -1.0000000E+00  -1.0000000E+00
	2212	-1	0	0	0	0	0.0000000000E+00	0.0000000000E+00	6.5000000000E+03	6.5000000000E+03	9.3827000000E-01	0.000E+00	0.0
	2212	-1	0	0	0	0	0.0000000000E+00	0.0000000000E+00	-6.5000000000E+03	6.5000000000E+03	9.3827000000E-01	0.000E+00	0.0
	2212	1	0	0	0	0	0.0000000000E+00	0.0000000000E+00	5.3729558701E+03	5.3729558701E+03	9.3827000000E-01	0.000E+00	0.0
	2212	1	0	0	0	0	0.0000000000E+00	0.0000000000E+00	-6.2545436278E+03	6.2545436278E+03	9.3827000000E-01	0.000E+00	0.0
	51	2	1	2	0	0	-6.1390789365E+00	1.3496264004E+02	9.4320355763E+02	1.4193118780E+03	1.0519318673E+03	0.000E+00	0.0
	1000022	2	5	5	0	0	6.1390789365E+00	-1.3496264004E+02	6.6972345852E+02	1.0917746474E+03	8.5158074620E+02	0.000E+00	0.0
	14	1	6	6	0	0	7.2208386892E+01	-3.3695336118E+02	3.8054004978E+02	6.0760789020E+02	3.2500000000E+02	0.000E+00	0.0
	-14	1	6	6	0	0	-6.6069307955E+01	2.0199072114E+02	2.8918340874E+02	4.8416675719E+02	3.2500000000E+02	0.000E+00	0.0
	25	2	5	5	0	0	-6.1390789365E+00	1.3496264004E+02	2.1186429921E+02	2.8072585465E+02	1.2517156903E+02	0.000E+00	0.0
	-5	1	9	9	0	501	-3.3584026891E+01	-9.2699608031E+00	5.9614895866E+01	6.9175336968E+01	4.1800000000E+00	0.000E+00	0.0
	5	1	9	9	501	0	2.7444947955E+01	1.4423260084E+02	1.5224940334E+02	2.1155051768E+02	4.1800000000E+00	0.000E+00	0.0
</event>
<event>
    11  -1  1.0000000E+00  1.0000000E+00  -1.0000000E+00  -1.0000000E+00
	2212	-1	0	0	0	0	0.0000000000E+00	0.0000000000E+00	6.5000000000E+03	6.5000000000E+03	9.3827000000E-01	0.000E+00	0.0
	2212	-1	0	0	0	0	0.0000000000E+00	0.0000000000E+00	-6.5000000000E+03	6.5000000000E+03	9.3827000000E-01	0.000E+00	0.0
	2212	1	0	0	0	0	0.0000000000E+00	0.0000000000E+00	5.7164135286E+03	5.7164135286E+03	9.3827000000E-01	0.000E+00	0.0
	2212	1	0	0	0	0	0.0000000000E+00	0.0000000000E+00	-6.1428899161E+03	6.1428899161E+03	9.3827000000E-01	0.000E+00	0.0
	51	2	1	2	0	0	-5.9789036478E+00	3.2842588343E+02	3.7917429589E+02	1.1708881147E+03	1.0579728362E+03	0.000E+00	0.0
	1000022	2	5	5	0	0	5.9789036478E+00	-3.2842588343E+02	3.5061493889E+02	7.8107942809E+02	6.1583677174E+02	0.000E+00	0.0
	14	1	6	6	0	0	0.0000000000E+00	0.0000000000E+00	0.0000000000E+00	0.0000000000E+00	0.0000000000E+00	0.000E+00	0.0
	-14	1	6	6	0	0	0.0000000000E+00	0.0000000000E+00	0.0000000000E+00	0.0000000000E+00	0.0000000000E+00	0.000E+00	0.0
	25	2	5	5	0	0	-5.9789036478E+00	3.2842588343E+02	7.5861448646E+01	3.5961712723E+02	1.2518071182E+02	0.000E+00	0.0
	-5	1	9	9	0	501	2.7341606822E+01	1.3495271657E+02	-2.3169337648E+01	1.3969284084E+02	4.1800000000E+00	0.000E+00	0.0
	5	1	9	9	501	0	-3.3320510469E+01	1.9347316685E+02	9.9030786294E+01	2.1992428639E+02	4.1800000000E+00	0.000E+00	0.0
</event>
<event>
    11  -1  1.0000000E+00  1.0000000E+00  -1.0000000E+00  -1.0000000E+00
	2212	-1	0	0	0	0	0.0000000000E+00	0.0000000000E+00	6.5000000000E+03	6.5000000000E+03	9.3827000000E-01	0.000E+00	0.0
	2212	-1	0	0	0	0	0.0000000000E+00	0.0000000000E+00	-6.5000000000E+03	6.5000000000E+03	9.3827000000E-01	0.000E+00	0.0
	2212	1	0	0	0	0	0.0000000000E+00	0.0000000000E+00	5.7949802280E+03	5.7949802280E+03	9.3827000000E-01	0.000E+00	0.0
	2212	1	0	0	0	0	0.0000000000E+00	0.0000000000E+00	-6.1089990459E+03	6.1089990459E+03	9.3827000000E-01	0.000E+00	0.0
	51	2	1	2	0	0	-1.4202041774E+02	-1.4535883237E+01	2.5237824131E+02	1.0893711405E+03	1.0500731471E+03	0.000E+00	0.0
	1000022	2	5	5	0	0	1.4202041774E+02	1.4535883237E+01	3.1933543550E+02	9.0608264627E+02	8.3584062509E+02	0.000E+00	0.0
	14	1	6	6	0	0	1.0689148914E+02	2.2231012741E+02	6.2884779021E+00	4.0805897632E+02	3.2500000000E+02	0.000E+00	0.0
	-14	1	6	6	0	0	3.5128928595E+01	-2.0777424418E+02	3.1304695760E+02	4.9802366995E+02	3.2500000000E+02	0.000E+00	0.0
	25	2	5	5	0	0	-1.4202041774E+02	-1.4535883237E+01	-5.3166176478E+00	1.8993807987E+02	1.2516835386E+02	0.000E+00	0.0
	-5	1	9	9	0	501	-7.5587310152E+01	-6.9761559425E+01	-9.2372570019E+00	1.0335819245E+02	4.1800000000E+00	0.000E+00	0.0
	5	1	9	9	501	0	-6.6433107584E+01	5.5225676188E+01	3.9206393541E+00	8.6579887426E+01	4.1800000000E+00	0.000E+00	0.0
</event>
<event>
    11  -1  1.0000000E+00  1.0000000E+00  -1.0000000E+00  -1.0000000E+00
	2212	-1	0	0	0	0	0.0000000000E+00	0.0000000000E+00	6.5000000000E+03	6.5000000000E+03	9.3827000000E-01	0.000E+00	0.0
	2212	-1	0	0	0	0	0.0000000000E+00	0.0000000000E+00	-6.5000000000E+03	6.5000000000E+03	9.3827000000E-01	0.000E+00	0.0
	2212	1	0	0	0	0	0.0000000000E+00	0.0000000000E+00	5.4266229122E+03	5.4266229122E+03	9.3827000000E-01	0.000E+00	0.0
	2212	1	0	0	0	0	0.0000000000E+00	0.0000000000E+00	-6.2428987526E+03	6.2428987526E+03	9.3827000000E-01	0.000E+00	0.0
	51	2	1	2	0	0	-4.6946739167E+01	-1.0563007989E+02	8.8621063699E+02	1.3793467136E+03	1.0506504428E+03	0.000E+00	0.0
	1000022	2	5	5	0	0	4.6946739167E+01	1.0563007989E+02	6.1412148004E+02	1.0661003751E+03	8.6374944712E+02	0.000E+00	0.0
	14	1	6	6	0	0	-6.2025726281E+01	1.9954776739E+01	6.3057832149E+02	7.1238992368E+02	3.2500000000E+02	0.000E+00	0.0
	-14	1	6	6	0	0	1.0897246545E+02	8.5675303155E+01	-1.6456841450E+01	3.5371045140E+02	3.2500000000E+02	0.000E+00	0.0
	25	2	5	5	0	0	-4.6946739167E+01	-1.0563007989E+02	2.0215436035E+02	2.6437796019E+02	1.2517032527E+02	0.000E+00	0.0
	-5	1	9	9	0	501	1.5776280140E+01	2.2172761422E+01	3.9951541907E+01	4.8519279311E+01	4.1800000000E+00	0.000E+00	0.0
	5	1	9	9	501	0	-6.2723019306E+01	-1.2780284132E+02	1.6220281845E+02	2.1585868088E+02	4.1800000000E+00	0.000E+00	0.0
</event>
<event>
    11  -1  1.0000000E+00  1.0000000E+00  -1.0000000E+00  -1.0000000E+00
	2212	-1	0	0	0	0	0.0000000000E+00	0.0000000000E+00	6.5000000000E+03	6.5000000000E+03	9.3827000000E-01	0.000E+00	0.0
	2212	-1	0	0	0	0	0.0000000000E+00	0.0000000000E+00	-6.5000000000E+03	6.5000000000E+03	9.3827000000E-01	0.000E+00	0.0
	2212	1	0	0	0	0	0.0000000000E+00	0.0000000000E+00	5.0265192102E+03	5.0265192102E+03	9.3827000000E-01	0.000E+00	0.0
	2212	1	0	0	0	0	0.0000000000E+00	0.0000000000E+00	-6.3116368338E+03	6.3116368338E+03	9.3827000000E-01	0.000E+00	0.0
	51	2	1	2	0	0	1.4266862000E+02	-1.5975572031E+01	1.3730157663E+03	1.7366576739E+03	1.0536593509E+03	0.000E+00	0.0
	1000022	2	5	5	0	0	-1.4266862000E+02	1.5975572031E+01	9.7099305271E+02	1.2944865710E+03	8.4395403904E+02	0.000E+00	0.0
	14	1	6	6	0	0	6.4331193447E+01	1.7419750394E+02	2.1587582590E+02	4.3210027197E+02	3.2500000000E+02	0.000E+00	0.0
	-14	1	6	6	0	0	-2.0699981345E+02	-1.5822193191E+02	7.5511722681E+02	8.6238629901E+02	3.2500000000E+02	0.000E+00	0.0
	25	2	5	5	0	0	1.4266862000E+02	-1.5975572031E+01	3.1412457092E+02	3.6735738508E+02	1.2517047688E+02	0.000E+00	0.0
	-5	1	9	9	0	501	1.2364666497E+01	-4.8376887126E+01	4.8702185127E+01	6.9875485126E+01	4.1800000000E+00	0.000E+00	0.0
	5	1	9	9	501	0	1.3030395350E+02	3.2401315095E+01	2.6542238579E+02	2.9748189995E+02	4.1800000000E+00	0.000E+00	0.0
</event>
<event>
    11  -1  1.0000000E+00  1.0000000E+00  -1.0000000E+00  -1.0000000E+00
	2212	-1	0	0	0	0	0.0000000000E+00	0.0000000000E+00	6.5000000000E+03	6.5000000000E+03	9.3827000000E-01	0.000E+00	0.0
	2212	-1	0	0	0	0	0.0000000000E+00	0.0000000000E+00	-6.5000000000E+03	6.5000000000E+03	9.3827000000E-01	0.000E+00	0.0
	2212	1	0	0	0	0	0.0000000000E+00	0.0000000000E+00	5.7147544152E+03	5.7147544152E+03	9.3827000000E-01	0.000E+00	0.0
	2212	1	0	0	0	0	0.0000000000E+00	0.0000000000E+00	-6.1469265099E+03	6.1469265099E+03	9.3827000000E-01	0.000E+00	0.0
	51	2	1	2	0	0	-2.9415599686E+01	-1.1596820193E+02	4.9126260630E+02	1.1681825400E+03	1.0530895484E+03	0.000E+00	0.0
	1000022	2	5	5	0	0	2.9415599686E+01	1.1596820193E+02	3.0222011066E+02	9.2181013523E+02	8.6260247435E+02	0.000E+00	0.0
	14	1	6	6	0	0	-1.9357050122E+02	2.5023165581E+02	1.3634417819E+02	4.7360337355E+02	3.2500000000E+02	0.000E+00	0.0
	-14	1	6	6	0	0	2.2298610090E+02	-1.3426345388E+02	1.6587593247E+02	4.4820676168E+02	3.2500000000E+02	0.000E+00	0.0
	25	2	5	5	0	0	-2.9415599686E+01	-1.1596820193E+02	1.2995198405E+02	2.1650893972E+02	1.2519864799E+02	0.000E+00	0.0
	-5	1	9	9	0	501	-6.3746670537E+01	-9.6608928368E+01	4.7801394023E+01	1.2529712174E+02	4.1800000000E+00	0.000E+00	0.0
	5	1	9	9	501	0	3.4331070851E+01	-1.9359273561E+01	8.2150590025E+01	9.1211817985E+01	4.1800000000E+00	0.000E+00	0.0
</event>
<event>
    11  -1  1.0000000E+00  1.0000000E+00  -1.0000000E+00  -1.0000000E+00
	2212	-1	0	0	0	0	0.0000000000E+00	0.0000000000E+00	6.5000000000E+03	6.5000000000E+03	9.3827000000E-01	0.000E+00	0.0
	2212	-1	0	0	0	0	0.0000000000E+00	0.0000000000E+00	-6.5000000000E+03	6.5000000000E+03	9.3827000000E-01	0.000E+00	0.0
	2212	1	0	0	0	0	0.0000000000E+00	0.0000000000E+00	5.3276923794E+03	5.3276923794E+03	9.3827000000E-01	0.000E+00	0.0
	2212	1	0	0	0	0	0.0000000000E+00	0.0000000000E+00	-6.2671094911E+03	6.2671094911E+03	9.3827000000E-01	0.000E+00	0.0
	51	2	1	2	0	0	-1.1683760892E+02	-4.2497188697E+01	8.7165991933E+02	1.3665011256E+03	1.0450250109E+03	0.000E+00	0.0
	1000022	2	5	5	0	0	1.1683760892E+02	4.2497188697E+01	8.4867097417E+02	1.2068028131E+03	8.4892494929E+02	0.000E+00	0.0
	14	1	6	6	0	0	-5.7053952946E+01	1.3735476445E+02	1.0685931284E+02	3.7304878716E+02	3.2500000000E+02	0.000E+00	0.0
	-14	1	6	6	0	0	1.7389156187E+02	-9.4857575753E+01	7.4181166133E+02	8.3375402599E+02	3.2500000000E+02	0.000E+00	0.0
	25	2	5	5	0	0	-1.1683760892E+02	-4.2497188697E+01	9.0746137522E+01	1.9839531633E+02	1.2517508602E+02	0.000E+00	0.0
	-5	1	9	9	0	501	-1.1800533025E+02	1.1189632658E+01	4.2222647023E+01	1.2589952410E+02	4.1800000000E+00	0.000E+00	0.0
	5	1	9	9	501	0	1.1677213318E+00	-5.3686821355E+01	4.8523490499E+01	7.2495792226E+01	4.1800000000E+00	0.000E+00	0.0
</event>
<event>
    11  -1  1.0000000E+00  1.0000000E+00  -1.0000000E+00  -1.0000000E+00
	2212	-1	0	0	0	0	0.0000000000E+00	0.0000000000E+00	6.5000000000E+03	6.5000000000E+03	9.3827000000E-01	0.000E+00	0.0
	2212	-1	0	0	0	0	0.0000000000E+00	0.0000000000E+00	-6.5000000000E+03	6.5000000000E+03	9.3827000000E-01	0.000E+00	0.0
	2212	1	0	0	0	0	0.0000000000E+00	0.0000000000E+00	5.9153921305E+03	5.9153921305E+03	9.3827000000E-01	0.000E+00	0.0
	2212	1	0	0	0	0	0.0000000000E+00	0.0000000000E+00	-5.8331436844E+03	5.8331436844E+03	9.3827000000E-01	0.000E+00	0.0
	51	2	1	2	0	0	2.4667158098E+01	-3.0000938987E+02	1.0568966485E+01	1.2845713704E+03	1.2487585034E+03	0.000E+00	0.0
	1000022	2	5	5	0	0	-2.4667158098E+01	3.0000938987E+02	-1.5528393925E+02	9.1736209018E+02	8.5254090812E+02	0.000E+00	0.0
	14	1	6	6	0	0	6.2294147360E+01	-1.0597873694E+02	5.0962351686E+01	3.5118971336E+02	3.2500000000E+02	0.000E+00	0.0
	-14	1	6	6	0	0	-8.6961305459E+01	4.0598812681E+02	-2.0624629094E+02	5.6617237683E+02	3.2500000000E+02	0.000E+00	0.0
	25	2	5	5	0	0	2.4667158098E+01	-3.0000938987E+02	7.3035493186E+01	3.3410209496E+02	1.2520352986E+02	0.000E+00	0.0
	-5	1	9	9	0	501	5.4272044760E+01	-2.8602150004E+02	7.6144460206E+01	3.0094717900E+02	4.1800000000E+00	0.000E+00	0.0
	5	1	9	9	501	0	-2.9604886662E+01	-1.3987889834E+01	-3.1089670208E+00	3.3154915958E+01	4.1800000000E+00	0.000E+00	0.0
</event>
<event>
    11  -1  1.0000000E+00  1.0000000E+00  -1.0000000E+00  -1.0000000E+00
	2212	-1	0	0	0	0	0.0000000000E+00	0.0000000000E+00	6.5000000000E+03	6.5000000000E+03	9.3827000000E-01	0.000E+00	0.0
	2212	-1	0	0	0	0	0.0000000000E+00	0.0000000000E+00	-6.5000000000E+03	6.5000000000E+03	9.3827000000E-01	0.000E+00	0.0
	2212	1	0	0	0	0	0.0000000000E+00	0.0000000000E+00	5.9009592239E+03	5.9009592239E+03	9.3827000000E-01	0.000E+00	0.0
	2212	1	0	0	0	0	0.0000000000E+00	0.0000000000E+00	-6.0364829152E+03	6.0364829152E+03	9.3827000000E-01	0.000E+00	0.0
	51	2	1	2	0	0	-6.7941157504E+01	-1.2123497233E+02	1.0868714051E+02	1.0685454370E+03	1.0538797545E+03	0.000E+00	0.0
	1000022	2	5	5	0	0	6.7941157504E+01	1.2123497233E+02	1.3926294025E+02	8.7547855535E+02	8.5308535033E+02	0.000E+00	0.0
	14	1	6	6	0	0	1.3389306003E+02	-3.9207828384E+01	-1.7191268439E+02	3.9324747473E+02	3.2500000000E+02	0.000E+00	0.0
	-14	1	6	6	0	0	-6.5951902528E+01	1.6044280071E+02	3.1117562463E+02	4.8223108062E+02	3.2500000000E+02	0.000E+00	0.0
	25	2	5	5	0	0	-6.7941157504E+01	-1.2123497233E+02	-3.7392489414E+00	1.8707930558E+02	1.2518292694E+02	0.000E+00	0.0
	-5	1	9	9	0	501	-1.7141694963E+01	-8.8522802908E+01	5.2506739111E+01	1.0442487440E+02	4.1800000000E+00	0.000E+00	0.0
	5	1	9	9	501	0	-5.0799462542E+01	-3.2712169417E+01	-5.6245988052E+01	8.2654431184E+01	4.1800000000E+00	0.000E+00	0.0
</event>
<event>
    11  -1  1.0000000E+00  1.0000000E+00  -1.0000000E+00  -1.0000000E+00
	2212	-1	0	0	0	0	0.0000000000E+00	0.0000000000E+00	6.5000000000E+03	6.5000000000E+03	9.3827000000E-01	0.000E+00	0.0
	2212	-1	0	0	0	0	0.0000000000E+00	0.0000000000E+00	-6.5000000000E+03	6.5000000000E+03	9.3827000000E-01	0.000E+00	0.0
	2212	1	0	0	0	0	0.0000000000E+00	0.0000000000E+00	5.7018542296E+03	5.7018542296E+03	9.3827000000E-01	0.000E+00	0.0
	2212	1	0	0	0	0	0.0000000000E+00	0.0000000000E+00	-6.1440620321E+03	6.1440620321E+03	9.3827000000E-01	0.000E+00	0.0
	51	2	1	2	0	0	-1.3946485507E+02	6.7023331147E+01	3.7631671995E+02	1.1410163806E+03	1.0660025958E+03	0.000E+00	0.0
	1000022	2	5	5	0	0	1.3946485507E+02	-6.7023331147E+01	4.2659238378E+02	9.5443361958E+02	8.3965463112E+02	0.000E+00	0.0
	14	1	6	6	0	0	1.6558155899E+02	1.0547289784E+02	-1.3833785017E+01	3.7994494136E+02	3.2500000000E+02	0.000E+00	0.0
	-14	1	6	6	0	0	-2.6116703916E+01	-1.7249622899E+02	4.4042616880E+02	5.7448867822E+02	3.2500000000E+02	0.000E+00	0.0
	25	2	5	5	0	0	-1.3946485507E+02	6.7023331147E+01	1.5615418772E+01	1.9965011869E+02	1.2519487159E+02	0.000E+00	0.0
	-5	1	9	9	0	501	1.2779980241E+01	4.2651544272E+01	5.8430427455E+00	4.5100949794E+01	4.1800000000E+00	0.000E+00	0.0
	5	1	9	9	501	0	-1.5224483531E+02	2.4371786874E+01	9.7723760267E+00	1.5454916890E+02	4.1800000000E+00	0.000E+00	0.0
</event>
<event>
    11  -1  1.0000000E+00  1.0000000E+00  -1.0000000E+00  -1.0000000E+00
	2212	-1	0	0	0	0	0.0000000000E+00	0.0000000000E+00	6.5000000000E+03	6.5000000000E+03	9.3827000000E-01	0.000E+00	0.0
	2212	-1	0	0	0	0	0.0000000000E+00	0.0000000000E+00	-6.5000000000E+03	6.5000000000E+03	9.3827000000E-01	0.000E+00	0.0
	2212	1	0	0	0	0	0.0000000000E+00	0.0000000000E+00	6.3067392795E+03	6.3067392795E+03	9.3827000000E-01	0.000E+00	0.0
	2212	1	0	0	0	0	0.0000000000E+00	0.0000000000E+00	-5.0526687177E+03	5.0526687177E+03	9.3827000000E-01	0.000E+00	0.0
	51	2	1	2	0	0	-4.4870005053E+01	-6.5183013179E+01	-1.5147322559E+03	1.8491957969E+03	1.0577566571E+03	0.000E+00	0.0
	1000022	2	5	5	0	0	4.4870005053E+01	6.5183013179E+01	-7.5475378889E+02	1.1197764196E+03	8.2339772007E+02	0.000E+00	0.0
	14	1	6	6	0	0	2.6218449469E+02	4.0709067333E+01	-4.9906186262E+02	6.5198595088E+02	3.2500000000E+02	0.000E+00	0.0
	-14	1	6	6	0	0	-2.1731448964E+02	2.4473945846E+01	-2.5569192627E+02	4.6779046868E+02	3.2500000000E+02	0.000E+00	0.0
	25	2	5	5	0	0	-4.4870005053E+01	-6.5183013179E+01	-4.9931677296E+02	5.2081558324E+02	1.2517783120E+02	0.000E+00	0.0
	-5	1	9	9	0	501	2.0524742033E+01	-1.2441231291E+01	-1.3665142025E+01	2.7933094675E+01	4.1800000000E+00	0.000E+00	0.0
	5	1	9	9	501	0	-6.5394747085E+01	-5.2741781888E+01	-4.8565163093E+02	4.9288248856E+02	4.1800000000E+00	0.000E+00	0.0
</event>
<event>
    11  -1  1.0000000E+00  1.0000000E+00  -1.0000000E+00  -1.0000000E+00
	2212	-1	0	0	0	0	0.0000000000E+00	0.0000000000E+00	6.5000000000E+03	6.5000000000E+03	9.3827000000E-01	0.000E+00	0.0
	2212	-1	0	0	0	0	0.0000000000E+00	0.0000000000E+00	-6.5000000000E+03	6.5000000000E+03	9.3827000000E-01	0.000E+00	0.0
	2212	1	0	0	0	0	0.0000000000E+00	0.0000000000E+00	6.1865666075E+03	6.1865666075E+03	9.3827000000E-01	0.000E+00	0.0
	2212	1	0	0	0	0	0.0000000000E+00	0.0000000000E+00	-5.6493328614E+03	5.6493328614E+03	9.3827000000E-01	0.000E+00	0.0
	51	2	1	2	0	0	1.0076901326E+02	-4.5729166999E+01	-5.7706420373E+02	1.1881744799E+03	1.0327196854E+03	0.000E+00	0.0
	1000022	2	5	5	0	0	-1.0076901326E+02	4.5729166999E+01	-4.1222217497E+02	9.5545258593E+02	8.5481984750E+02	0.000E+00	0.0
	14	1	6	6	0	0	1.9762171289E+02	-4.5428173030E+01	-6.9352778486E+01	3.8929791702E+02	3.2500000000E+02	0.000E+00	0.0
	-14	1	6	6	0	0	-2.9839072615E+02	9.1157340029E+01	-3.4286939648E+02	5.6615466892E+02	3.2500000000E+02	0.000E+00	0.0
	25	2	5	5	0	0	1.0076901326E+02	-4.5729166999E+01	-1.2501157118E+02	2.0864794522E+02	1.2514200480E+02	0.000E+00	0.0
	-5	1	9	9	0	501	4.8699768897E+01	-8.6312694778E+01	-8.9338230234E+01	1.3349284832E+02	4.1800000000E+00	0.000E+00	0.0
	5	1	9	9	501	0	5.2069244363E+01	4.0583527779E+01	-3.5673340946E+01	7.5155096898E+01	4.1800000000E+00	0.000E+00	0.0
</event>
<event>
    11  -1  1.0000000E+00  1.0000000E+00  -1.0000000E+00  -1.0000000E+00
	2212	-1	0	0	0	0	0.0000000000E+00	0.0000000000E+00	6.5000000000E+03	6.5000000000E+03	9.3827000000E-01	0.000E+00	0.0
	2212	-1	0	0	0	0	0.0000000000E+00	0.0000000000E+00	-6.5000000000E+03	6.5000000000E+03	9.3827000000E-01	0.000E+00	0.0
	2212	1	0	0	0	0	0.0000000000E+00	0.0000000000E+00	5.1907560509E+03	5.1907560509E+03	9.3827000000E-01	0.000E+00	0.0
	2212	1	0	0	0	0	0.0000000000E+00	0.0000000000E+00	-6.2911690986E+03	6.2911690986E+03	9.3827000000E-01	0.000E+00	0.0
	51	2	1	2	0	0	8.0476074557E+01	1.1319851421E+02	1.1170453612E+03	1.5364644537E+03	1.0457735779E+03	0.000E+00	0.0
	1000022	2	5	5	0	0	-8.0476074557E+01	-1.1319851421E+02	8.9663488077E+02	1.2415081801E+03	8.4740672032E+02	0.000E+00	0.0
	14	1	6	6	0	0	-2.6406479878E+02	9.7091493597E+01	4.6850478428E+02	6.3582915077E+02	3.2500000000E+02	0.000E+00	0.0
	-14	1	6	6	0	0	1.8358872422E+02	-2.1029000781E+02	4.2813009650E+02	6.0567902933E+02	3.2500000000E+02	0.000E+00	0.0
	25	2	5	5	0	0	8.0476074557E+01	1.1319851421E+02	2.0377816693E+02	2.7656667043E+02	1.2519296977E+02	0.000E+00	0.0
	-5	1	9	9	0	501	-2.3880725504E+01	4.1034029125E+01	1.6737832927E+01	5.0514434055E+01	4.1800000000E+00	0.000E+00	0.0
	5	1	9	9	501	0	1.0435680006E+02	7.2164485084E+01	1.8704033401E+02	2.2605223638E+02	4.1800000000E+00	0.000E+00	0.0
</event>
<event>
    11  -1  1.0000000E+00  1.0000000E+00  -1.0000000E+00  -1.0000000E+00
	2212	-1	0	0	0	0	0.0000000000E+00	0.0000000000E+00	6.5000000000E+03	6.5000000000E+03	9.3827000000E-01	0.000E+00	0.0
	2212	-1	0	0	0	0	0.0000000000E+00	0.0000000000E+00	-6.5000000000E+03	6.5000000000E+03	9.3827000000E-01	0.000E+00	0.0
	2212	1	0	0	0	0	0.0000000000E+00	0.0000000000E+00	6.2724973718E+03	6.2724973718E+03	9.3827000000E-01	0.000E+00	0.0
	2212	1	0	0	0	0	0.0000000000E+00	0.0000000000E+00	-5.2949023313E+03	5.2949023313E+03	9.3827000000E-01	0.000E+00	0.0
	51	2	1	2	0	0	-2.2608727243E+01	-7.3515329960E+01	-1.0134831998E+03	1.4593544470E+03	1.0472113194E+03	0.000E+00	0.0
	1000022	2	5	5	0	0	2.2608727243E+01	7.3515329960E+01	-8.0561932803E+02	1.2064189186E+03	8.9471137645E+02	0.000E+00	0.0
	14	1	6	6	0	0	-3.2353696658E+00	3.4482829662E+02	-4.2382064149E+02	6.3574048001E+02	3.2500000000E+02	0.000E+00	0.0
	-14	1	6	6	0	0	2.5844096909E+01	-2.7131296666E+02	-3.8179868654E+02	5.7067843858E+02	3.2500000000E+02	0.000E+00	0.0
	25	2	5	5	0	0	-2.2608727243E+01	-7.3515329960E+01	-1.7197571255E+02	2.2618137833E+02	1.2516673645E+02	0.000E+00	0.0
	-5	1	9	9	0	501	4.5221482739E+01	-2.6199195873E+01	-2.6398950917E+01	5.8700573890E+01	4.1800000000E+00	0.000E+00	0.0
	5	1	9	9	501	0	-6.7830209982E+01	-4.7316134087E+01	-1.4557676163E+02	1.6748080444E+02	4.1800000000E+00	0.000E+00	0.0
</event>
<event>
    11  -1  1.0000000E+00  1.0000000E+00  -1.0000000E+00  -1.0000000E+00
	2212	-1	0	0	0	0	0.0000000000E+00	0.0000000000E+00	6.5000000000E+03	6.5000000000E+03	9.3827000000E-01	0.000E+00	0.0
	2212	-1	0	0	0	0	0.0000000000E+00	0.0000000000E+00	-6.5000000000E+03	6.5000000000E+03	9.3827000000E-01	0.000E+00	0.0
	2212	1	0	0	0	0	0.0000000000E+00	0.0000000000E+00	6.1495854424E+03	6.1495854424E+03	9.3827000000E-01	0.000E+00	0.0
	2212	1	0	0	0	0	0.0000000000E+00	0.0000000000E+00	-5.7126818598E+03	5.7126818598E+03	9.3827000000E-01	0.000E+00	0.0
	51	2	1	2	0	0	-1.0488900032E+02	-1.2727164857E+01	-4.5672006987E+02	1.1503511883E+03	1.0505003337E+03	0.000E+00	0.0
	1000022	2	5	5	0	0	1.0488900032E+02	1.2727164857E+01	-3.5088030056E+02	9.5270629320E+02	8.7941378922E+02	0.000E+00	0.0
	14	1	6	6	0	0	-7.3016733512E+01	-2.0127415979E+02	-3.5211421336E+02	5.2483535516E+02	3.2500000000E+02	0.000E+00	0.0
	-14	1	6	6	0	0	1.7790573383E+02	2.1400132465E+02	1.2339128012E+00	4.2787093804E+02	3.2500000000E+02	0.000E+00	0.0
	25	2	5	5	0	0	-1.0488900032E+02	-1.2727164857E+01	-8.6023282093E+01	1.8502640461E+02	1.2518419320E+02	0.000E+00	0.0
	-5	1	9	9	0	501	2.1034554541E+01	2.4012807903E+01	-1.2066237815E+01	3.4382174497E+01	4.1800000000E+00	0.000E+00	0.0
	5	1	9	9	501	0	-1.2592355486E+02	-3.6739972760E+01	-7.3957044278E+01	1.5064423011E+02	4.1800000000E+00	0.000E+00	0.0
</event>
<event>
    11  -1  1.0000000E+00  1.0000000E+00  -1.0000000E+00  -1.0000000E+00
	2212	-1	0	0	0	0	0.0000000000E+00	0.0000000000E+00	6.5000000000E+03	6.5000000000E+03	9.3827000000E-01	0.000E+00	0.0
	2212	-1	0	0	0	0	0.0000000000E+00	0.0000000000E+00	-6.5000000000E+03	6.5000000000E+03	9.3827000000E-01	0.000E+00	0.0
	2212	1	0	0	0	0	0.0000000000E+00	0.0000000000E+00	6.0936313674E+03	6.0936313674E+03	9.3827000000E-01	0.000E+00	0.0
	2212	1	0	0	0	0	0.0000000000E+00	0.0000000000E+00	-5.8148075428E+03	5.8148075428E+03	9.3827000000E-01	0.000E+00	0.0
	51	2	1	2	0	0	5.6251351099E+01	4.9888405919E+01	-1.4994859096E+02	1.0685974617E+03	1.0553496518E+03	0.000E+00	0.0
	1000022	2	5	5	0	0	-5.6251351099E+01	-4.9888405919E+01	-3.5925073568E+02	9.2485547482E+02	8.4890723326E+02	0.000E+00	0.0
	14	1	6	6	0	0	-5.1954339469E+01	-1.8196924335E+02	5.7104611643E+01	3.8039189737E+02	3.2500000000E+02	0.000E+00	0.0
	-14	1	6	6	0	0	-4.2970116301E+00	1.3208083743E+02	-4.1635534732E+02	5.4446357745E+02	3.2500000000E+02	0.000E+00	0.0
	25	2	5	5	0	0	5.6251351099E+01	4.9888405919E+01	8.0426911081E+01	1.6670561497E+02	1.2517670107E+02	0.000E+00	0.0
	-5	1	9	9	0	501	6.7661988000E+00	-3.7984167726E+01	4.5721460012E+01	5.9970849166E+01	4.1800000000E+00	0.000E+00	0.0
	5	1	9	9	501	0	4.9485152299E+01	8.7872573645E+01	3.4705451069E+01	1.0673476580E+02	4.1800000000E+00	0.000E+00	0.0
</event>
<event>
    11  -1  1.0000000E+00  1.0000000E+00  -1.0000000E+00  -1.0000000E+00
	2212	-1	0	0	0	0	0.0000000000E+00	0.0000000000E+00	6.5000000000E+03	6.5000000000E+03	9.3827000000E-01	0.000E+00	0.0
	2212	-1	0	0	0	0	0.0000000000E+00	0.0000000000E+00	-6.5000000000E+03	6.5000000000E+03	9.3827000000E-01	0.000E+00	0.0
	2212	1	0	0	0	0	0.0000000000E+00	0.0000000000E+00	6.2993697672E+03	6.2993697672E+03	9.3827000000E-01	0.000E+00	0.0
	2212	1	0	0	0	0	0.0000000000E+00	0.0000000000E+00	-5.1216889805E+03	5.1216889805E+03	9.3827000000E-01	0.000E+00	0.0
	51	2	1	2	0	0	-4.2391261031E+01	-1.4244211680E+02	-1.1841098381E+03	1.5906999489E+03	1.0517240336E+03	0.000E+00	0.0
	1000022	2	5	5	0	0	4.2391261031E+01	1.4244211680E+02	-9.6533674002E+02	1.2911080166E+03	8.4439215609E+02	0.000E+00	0.0
	14	1	6	6	0	0	-1.1588005118E+02	2.9227704725E+02	-6.3172346596E+02	7.7688711925E+02	3.2500000000E+02	0.000E+00	0.0
	-14	1	6	6	0	0	1.5827131221E+02	-1.4983493045E+02	-3.3361327406E+02	5.1422089736E+02	3.2500000000E+02	0.000E+00	0.0
	25	2	5	5	0	0	-4.2391261031E+01	-1.4244211680E+02	-2.1234404668E+02	2.8783323572E+02	1.2518467067E+02	0.000E+00	0.0
	-5	1	9	9	0	501	2.3887152955E+01	1.1360379842E+01	-3.0128777114E+01	4.0309675226E+01	4.1800000000E+00	0.000E+00	0.0
	5	1	9	9	501	0	-6.6278413986E+01	-1.5380249664E+02	-1.8221526957E+02	2.4752356049E+02	4.1800000000E+00	0.000E+00	0.0
</event>
<event>
    11  -1  1.0000000E+00  1.0000000E+00  -1.0000000E+00  -1.0000000E+00
	2212	-1	0	0	0	0	0.0000000000E+00	0.0000000000E+00	6.5000000000E+03	6.5000000000E+03	9.3827000000E-01	0.000E+00	0.0
	2212	-1	0	0	0	0	0.0000000000E+00	0.0000000000E+00	-6.5000000000E+03	6.5000000000E+03	9.3827000000E-01	0.000E+00	0.0
	2212	1	0	0	0	0	0.0000000000E+00	0.0000000000E+00	5.4512645016E+03	5.4512645016E+03	9.3827000000E-01	0.000E+00	0.0
	2212	1	0	0	0	0	0.0000000000E+00	0.0000000000E+00	-6.2389028650E+03	6.2389028650E+03	9.3827000000E-01	0.000E+00	0.0
	51	2	1	2	0	0	1.2407732042E+02	-4.9351663426E+01	7.3469685353E+02	1.2856506410E+03	1.0465597622E+03	0.000E+00	0.0
	1000022	2	5	5	0	0	-1.2407732042E+02	4.9351663426E+01	7.0537127175E+02	1.1091644320E+03	8.4549768660E+02	0.000E+00	0.0
	14	1	6	6	0	0	-1.5147035013E+02	1.5452835625E+02	8.3728930116E+01	3.9932169186E+02	3.2500000000E+02	0.000E+00	0.0
	-14	1	6	6	0	0	2.7393029705E+01	-1.0517669282E+02	6.2164234164E+02	7.0984274012E+02	3.2500000000E+02	0.000E+00	0.0
	25	2	5	5	0	0	1.2407732042E+02	-4.9351663426E+01	8.2267091677E+01	2.0066820138E+02	1.2517621398E+02	0.000E+00	0.0
	-5	1	9	9	0	501	1.1115545425E+02	-7.9432859732E+01	9.3724315508E+01	1.6573120989E+02	4.1800000000E+00	0.000E+00	0.0
	5	1	9	9	501	0	1.2921866171E+01	3.0081196306E+01	-1.1457223831E+01	3.4936991491E+01	4.1800000000E+00	0.000E+00	0.0
</event>
<event>
    11  -1  1.0000000E+00  1.0000000E+00  -1.0000000E+00  -1.0000000E+00
	2212	-1	0	0	0	0	0.0000000000E+00	0.0000000000E+00	6.5000000000E+03	6.5000000000E+03	9.3827000000E-01	0.000E+00	0.0
	2212	-1	0	0	0	0	0.0000000000E+00	0.0000000000E+00	-6.5000000000E+03	6.5000000000E+03	9.3827000000E-01	0.000E+00	0.0
	2212	1	0	0	0	0	0.0000000000E+00	0.0000000000E+00	5.1652371639E+03	5.1652371639E+03	9.3827000000E-01	0.000E+00	0.0
	2212	1	0	0	0	0	0.0000000000E+00	0.0000000000E+00	-6.2902979732E+03	6.2902979732E+03	9.3827000000E-01	0.000E+00	0.0
	51	2	1	2	0	0	5.6008985607E+01	1.2716977800E+02	1.2043693836E+03	1.6091689343E+03	1.0581161978E+03	0.000E+00	0.0
	1000022	2	5	5	0	0	-5.6008985607E+01	-1.2716977800E+02	8.5145694562E+02	1.2130354332E+03	8.5274080057E+02	0.000E+00	0.0
	14	1	6	6	0	0	-1.3975676892E+02	-2.9205692296E+02	6.2700529275E+02	7.7691044390E+02	3.2500000000E+02	0.000E+00	0.0
	-14	1	6	6	0	0	8.3747783314E+01	1.6488714496E+02	2.2445165287E+02	4.3612498926E+02	3.2500000000E+02	0.000E+00	0.0
	25	2	5	5	0	0	5.6008985607E+01	1.2716977800E+02	2.7360386369E+02	3.3142942974E+02	1.2520876072E+02	0.000E+00	0.0
	-5	1	9	9	0	501	7.9267706900E+01	3.3291154045E+01	1.6383823272E+02	1.8507325359E+02	4.1800000000E+00	0.000E+00	0.0
	5	1	9	9	501	0	-2.3258721293E+01	9.3878623958E+01	1.0976563097E+02	1.4635617614E+02	4.1800000000E+00	0.000E+00	0.0
</event>
<event>
    11  -1  1.0000000E+00  1.0000000E+00  -1.0000000E+00  -1.0000000E+00
	2212	-1	0	0	0	0	0.0000000000E+00	0.0000000000E+00	6.5000000000E+03	6.5000000000E+03	9.3827000000E-01	0.000E+00	0.0
	2212	-1	0	0	0	0	0.0000000000E+00	0.0000000000E+00	-6.5000000000E+03	6.5000000000E+03	9.3827000000E-01	0.000E+00	0.0
	2212	1	0	0	0	0	0.0000000000E+00	0.0000000000E+00	5.4085766540E+03	5.4085766540E+03	9.3827000000E-01	0.000E+00	0.0
	2212	1	0	0	0	0	0.0000000000E+00	0.0000000000E+00	-6.2439175480E+03	6.2439175480E+03	9.3827000000E-01	0.000E+00	0.0
	51	2	1	2	0	0	-7.5965556500E+01	1.2081055531E+02	8.7371502405E+02	1.3790291388E+03	1.0573445353E+03	0.000E+00	0.0
	1000022	2	5	5	0	0	7.5965556500E+01	-1.2081055531E+02	6.5347557147E+02	1.0845138252E+03	8.5368258651E+02	0.000E+00	0.0
	14	1	6	6	0	0	-1.6564397210E+01	-2.9491967016E+02	1.7341650784E+02	4.7217610729E+02	3.2500000000E+02	0.000E+00	0.0
	-14	1	6	6	0	0	9.2529953710E+01	1.7410911485E+02	4.8005906363E+02	6.1233771791E+02	3.2500000000E+02	0.000E+00	0.0
	25	2	5	5	0	0	-7.5965556500E+01	1.2081055531E+02	1.8186532259E+02	2.6299197279E+02	1.2539468146E+02	0.000E+00	0.0
	-5	1	9	9	0	501	-1.4675686136E+01	-1.8644663347E+01	-2.0122881455E+00	2.4176867838E+01	4.1800000000E+00	0.000E+00	0.0
	5	1	9	9	501	0	-6.1289870364E+01	1.3945521866E+02	1.8387761074E+02	2.3881510495E+02	4.1800000000E+00	0.000E+00	0.0
</event>
<event>
    11  -1  1.0000000E+00  1.0000000E+00  -1.0000000E+00  -1.0000000E+00
	2212	-1	0	0	0	0	0.0000000000E+00	0.0000000000E+00	6.5000000000E+03	6.5000000000E+03	9.3827000000E-01	0.000E+00	0.0
	2212	-1	0	0	0	0	0.0000000000E+00	0.0000000000E+00	-6.5000000000E+03	6.5000000000E+03	9.3827000000E-01	0.000E+00	0.0
	2212	1	0	0	0	0	0.0000000000E+00	0.0000000000E+00	5.3428022650E+03	5.3428022650E+03	9.3827000000E-01	0.000E+00	0.0
	2212	1	0	0	0	0	0.0000000000E+00	0.0000000000E+00	-6.2637608767E+03	6.2637608767E+03	9.3827000000E-01	0.000E+00	0.0
	51	2	1	2	0	0	6.3011167016E+01	-6.0446141780E+01	1.0622533132E+03	1.4931536285E+03	1.0457062273E+03	0.000E+00	0.0
	1000022	2	5	5	0	0	-6.3011167016E+01	6.0446141780E+01	6.2617525493E+02	1.0614873398E+03	8.5266393113E+02	0.000E+00	0.0
	14	1	6	6	0	0	-2.3191491023E+02	-1.2869566222E+02	1.8739573070E+02	4.5944451128E+02	3.2500000000E+02	0.000E+00	0.0
	-14	1	6	6	0	0	1.6890374321E+02	1.8914180400E+02	4.3877952422E+02	6.0204282852E+02	3.2500000000E+02	0.000E+00	0.0
	25	2	5	5	0	0	6.3011167016E+01	-6.0446141780E+01	2.9478335672E+02	3.3194951852E+02	1.2517632454E+02	0.000E+00	0.0
	-5	1	9	9	0	501	-2.7421484264E+01	1.3618047830E+01	1.0081047120E+02	1.0544008977E+02	4.1800000000E+00	0.000E+00	0.0
	5	1	9	9	501	0	9.0432651280E+01	-7.4064189609E+01	1.9397288552E+02	2.2650942876E+02	4.1800000000E+00	0.000E+00	0.0
</event>
<event>
    11  -1  1.0000000E+00  1.0000000E+00  -1.0000000E+00  -1.0000000E+00
	2212	-1	0	0	0	0	0.0000000000E+00	0.0000000000E+00	6.5000000000E+03	6.5000000000E+03	9.3827000000E-01	0.000E+00	0.0
	2212	-1	0	0	0	0	0.0000000000E+00	0.0000000000E+00	-6.5000000000E+03	6.5000000000E+03	9.3827000000E-01	0.000E+00	0.0
	2212	1	0	0	0	0	0.0000000000E+00	0.0000000000E+00	6.2543039310E+03	6.2543039310E+03	9.3827000000E-01	0.000E+00	0.0
	2212	1	0	0	0	0	0.0000000000E+00	0.0000000000E+00	-5.3765588875E+03	5.3765588875E+03	9.3827000000E-01	0.000E+00	0.0
	51	2	1	2	0	0	-7.4141113783E+01	-6.9648578934E+01	-7.1499758890E+02	1.2750175065E+03	1.0507617524E+03	0.000E+00	0.0
	1000022	2	5	5	0	0	7.4141113783E+01	6.9648578934E+01	-8.7674303074E+02	1.2078347543E+03	8.2452326985E+02	0.000E+00	0.0
	14	1	6	6	0	0	-8.1723661457E+01	1.5876044166E+02	-1.6669006434E+02	4.0656390916E+02	3.2500000000E+02	0.000E+00	0.0
	-14	1	6	6	0	0	1.5586477524E+02	-8.9111862726E+01	-7.1005296640E+02	8.0127084517E+02	3.2500000000E+02	0.000E+00	0.0
	25	2	5	5	0	0	-7.4141113783E+01	-6.9648578934E+01	-1.0020127471E+00	1.6130242715E+02	1.2517843135E+02	0.000E+00	0.0
	-5	1	9	9	0	501	2.6069548829E+01	-7.5182618087E+00	-2.9115722265E+01	4.0016787975E+01	4.1800000000E+00	0.000E+00	0.0
	5	1	9	9	501	0	-1.0021066261E+02	-6.2130317126E+01	2.8113709518E+01	1.2128563918E+02	4.1800000000E+00	0.000E+00	0.0
</event>
<event>
    11  -1  1.0000000E+00  1.0000000E+00  -1.0000000E+00  -1.0000000E+00
	2212	-1	0	0	0	0	0.0000000000E+00	0.0000000000E+00	6.5000000000E+03	6.5000000000E+03	9.3827000000E-01	0.000E+00	0.0
	2212	-1	0	0	0	0	0.0000000000E+00	0.0000000000E+00	-6.5000000000E+03	6.5000000000E+03	9.3827000000E-01	0.000E+00	0.0
	2212	1	0	0	0	0	0.0000000000E+00	0.0000000000E+00	6.2026091184E+03	6.2026091184E+03	9.3827000000E-01	0.000E+00	0.0
	2212	1	0	0	0	0	0.0000000000E+00	0.0000000000E+00	-5.5952194085E+03	5.5952194085E+03	9.3827000000E-01	0.000E+00	0.0
	51	2	1	2	0	0	9.5101654366E+01	-7.2749456388E+01	-5.8908137365E+02	1.1990194593E+03	1.0374458978E+03	0.000E+00	0.0
	1000022	2	5	5	0	0	-9.5101654366E+01	7.2749456388E+01	-5.2778524502E+02	1.0115303183E+03	8.5457563268E+02	0.000E+00	0.0
	14	1	6	6	0	0	-1.8989532561E+02	1.0109118432E+02	-5.4655282943E+02	6.7128582407E+02	3.2500000000E+02	0.000E+00	0.0
	-14	1	6	6	0	0	9.4793671247E+01	-2.8341727933E+01	1.8767584408E+01	3.4024449426E+02	3.2500000000E+02	0.000E+00	0.0
	25	2	5	5	0	0	9.5101654366E+01	-7.2749456388E+01	-7.9604464889E+01	1.9064115473E+02	1.2518135235E+02	0.000E+00	0.0
	-5	1	9	9	0	501	7.8821163834E+00	1.0095729747E+01	-6.8445225878E+01	6.9758675899E+01	4.1800000000E+00	0.000E+00	0.0
	5	1	9	9	501	0	8.7219537983E+01	-8.2845186136E+01	-1.1159239011E+01	1.2088247883E+02	4.1800000000E+00	0.000E+00	0.0
</event>
<event>
    11  -1  1.0000000E+00  1.0000000E+00  -1.0000000E+00  -1.0000000E+00
	2212	-1	0	0	0	0	0.0000000000E+00	0.0000000000E+00	6.5000000000E+03	6.5000000000E+03	9.3827000000E-01	0.000E+00	0.0
	2212	-1	0	0	0	0	0.0000000000E+00	0.0000000000E+00	-6.5000000000E+03	6.5000000000E+03	9.3827000000E-01	0.000E+00	0.0
	2212	1	0	0	0	0	0.0000000000E+00	0.0000000000E+00	5.1444837707E+03	5.1444837707E+03	9.3827000000E-01	0.000E+00	0.0
	2212	1	0	0	0	0	0.0000000000E+00	0.0000000000E+00	-6.2812837748E+03	6.2812837748E+03	9.3827000000E-01	0.000E+00	0.0
	51	2	1	2	0	0	1.0728131431E+02	-1.2901636172E+02	1.1551675714E+03	1.5963897367E+03	1.0889874064E+03	0.000E+00	0.0
	1000022	2	5	5	0	0	-1.0728131431E+02	1.2901636172E+02	9.1329773645E+02	1.2680061172E+03	8.6346526039E+02	0.000E+00	0.0
	14	1	6	6	0	0	-3.1218167597E+02	1.8425405251E+02	5.7202747608E+02	7.5116402208E+02	3.2500000000E+02	0.000E+00	0.0
	-14	1	6	6	0	0	2.0490036166E+02	-5.5237690787E+01	3.4127026036E+02	5.1684209513E+02	3.2500000000E+02	0.000E+00	0.0
	25	2	5	5	0	0	1.0728131431E+02	-1.2901636172E+02	2.2350226772E+02	3.0622633728E+02	1.2516710420E+02	0.000E+00	0.0
	-5	1	9	9	0	501	1.3310269960E+02	-8.4926876398E+01	1.6409268326E+02	2.2775597484E+02	4.1800000000E+00	0.000E+00	0.0
	5	1	9	9	501	0	-2.5821385296E+01	-4.4089485324E+01	5.9409584466E+01	7.8470362438E+01	4.1800000000E+00	0.000E+00	0.0
</event>
<event>
    11  -1  1.0000000E+00  1.0000000E+00  -1.0000000E+00  -1.0000000E+00
	2212	-1	0	0	0	0	0.0000000000E+00	0.0000000000E+00	6.5000000000E+03	6.5000000000E+03	9.3827000000E-01	0.000E+00	0.0
	2212	-1	0	0	0	0	0.0000000000E+00	0.0000000000E+00	-6.5000000000E+03	6.5000000000E+03	9.3827000000E-01	0.000E+00	0.0
	2212	1	0	0	0	0	0.0000000000E+00	0.0000000000E+00	6.2945996766E+03	6.2945996766E+03	9.3827000000E-01	0.000E+00	0.0
	2212	1	0	0	0	0	0.0000000000E+00	0.0000000000E+00	-5.1527601146E+03	5.1527601146E+03	9.3827000000E-01	0.000E+00	0.0
	51	2	1	2	0	0	2.4337958086E+01	6.7723277259E+01	-9.9813816542E+02	1.4520167383E+03	1.0520903158E+03	0.000E+00	0.0
	1000022	2	5	5	0	0	-2.4337958086E+01	-6.7723277259E+01	-1.1012300887E+03	1.4026431218E+03	8.6574894778E+02	0.000E+00	0.0
	14	1	6	6	0	0	9.7650269396E+01	-2.9604421802E+02	-5.1538500387E+02	6.8441541212E+02	3.2500000000E+02	0.000E+00	0.0
	-14	1	6	6	0	0	-1.2198822748E+02	2.2832094076E+02	-5.8584508480E+02	7.1822770973E+02	3.2500000000E+02	0.000E+00	0.0
	25	2	5	5	0	0	2.4337958086E+01	6.7723277259E+01	-4.0609473318E+01	1.4999708695E+02	1.2518473663E+02	0.000E+00	0.0
	-5	1	9	9	0	501	-1.8058668824E+01	-2.7172248674E+01	9.9173631985E+00	3.4355103122E+01	4.1800000000E+00	0.000E+00	0.0
	5	1	9	9	501	0	4.2396626911E+01	9.4895525933E+01	-5.0526836516E+01	1.1564198383E+02	4.1800000000E+00	0.000E+00	0.0
</event>
<event>
    11  -1  1.0000000E+00  1.0000000E+00  -1.0000000E+00  -1.0000000E+00
	2212	-1	0	0	0	0	0.0000000000E+00	0.0000000000E+00	6.5000000000E+03	6.5000000000E+03	9.3827000000E-01	0.000E+00	0.0
	2212	-1	0	0	0	0	0.0000000000E+00	0.0000000000E+00	-6.5000000000E+03	6.5000000000E+03	9.3827000000E-01	0.000E+00	0.0
	2212	1	0	0	0	0	0.0000000000E+00	0.0000000000E+00	5.8274529815E+03	5.8274529815E+03	9.3827000000E-01	0.000E+00	0.0
	2212	1	0	0	0	0	0.0000000000E+00	0.0000000000E+00	-6.0931980043E+03	6.0931980043E+03	9.3827000000E-01	0.000E+00	0.0
	51	2	1	2	0	0	9.6132967851E+01	-2.7488978521E+00	3.9145885432E+02	1.1210990214E+03	1.0461232610E+03	0.000E+00	0.0
	1000022	2	5	5	0	0	-9.6132967851E+01	2.7488978521E+00	9.2625220602E+01	8.4505508953E+02	8.3443967361E+02	0.000E+00	0.0
	14	1	6	6	0	0	-1.2966075513E+01	-2.4589512780E+02	-3.2772382409E+01	4.0906180711E+02	3.2500000000E+02	0.000E+00	0.0
	-14	1	6	6	0	0	-8.3166892339E+01	2.4864402565E+02	1.2539760301E+02	4.3599328242E+02	3.2500000000E+02	0.000E+00	0.0
	25	2	5	5	0	0	9.6132967851E+01	-2.7488978521E+00	1.7311980220E+02	2.3429392463E+02	1.2519613915E+02	0.000E+00	0.0
	-5	1	9	9	0	501	1.6245844806E+01	-5.7769955340E+01	7.6498198828E+01	9.7317737527E+01	4.1800000000E+00	0.000E+00	0.0
	5	1	9	9	501	0	7.9887123045E+01	5.5021057488E+01	9.6621603369E+01	1.3697618710E+02	4.1800000000E+00	0.000E+00	0.0
</event>
<event>
    11  -1  1.0000000E+00  1.0000000E+00  -1.0000000E+00  -1.0000000E+00
	2212	-1	0	0	0	0	0.0000000000E+00	0.0000000000E+00	6.5000000000E+03	6.5000000000E+03	9.3827000000E-01	0.000E+00	0.0
	2212	-1	0	0	0	0	0.0000000000E+00	0.0000000000E+00	-6.5000000000E+03	6.5000000000E+03	9.3827000000E-01	0.000E+00	0.0
	2212	1	0	0	0	0	0.0000000000E+00	0.0000000000E+00	6.0796114490E+03	6.0796114490E+03	9.3827000000E-01	0.000E+00	0.0
	2212	1	0	0	0	0	0.0000000000E+00	0.0000000000E+00	-5.8422567076E+03	5.8422567076E+03	9.3827000000E-01	0.000E+00	0.0
	51	2	1	2	0	0	-9.5001929082E+01	-7.4037837636E+01	-1.7738348818E+02	1.0733139654E+03	1.0516800837E+03	0.000E+00	0.0
	1000022	2	5	5	0	0	9.5001929082E+01	7.4037837636E+01	-2.5776067613E+02	9.0323294151E+02	8.5725271218E+02	0.000E+00	0.0
	14	1	6	6	0	0	1.0115220936E+02	3.1112862289E+02	-1.0560216144E+02	4.7308519945E+02	3.2500000000E+02	0.000E+00	0.0
	-14	1	6	6	0	0	-6.1502802757E+00	-2.3709078526E+02	-1.5215851468E+02	4.3014774205E+02	3.2500000000E+02	0.000E+00	0.0
	25	2	5	5	0	0	-9.5001929082E+01	-7.4037837636E+01	2.0405934696E+01	1.7489890189E+02	1.2516491433E+02	0.000E+00	0.0
	-5	1	9	9	0	501	-4.0400038969E+01	2.1624137687E+01	4.2318418940E+01	6.2514697960E+01	4.1800000000E+00	0.000E+00	0.0
	5	1	9	9	501	0	-5.4601890113E+01	-9.5661975323E+01	-2.1912484244E+01	1.1238420393E+02	4.1800000000E+00	0.000E+00	0.0
</event>
<event>
    11  -1  1.0000000E+00  1.0000000E+00  -1.0000000E+00  -1.0000000E+00
	2212	-1	0	0	0	0	0.0000000000E+00	0.0000000000E+00	6.5000000000E+03	6.5000000000E+03	9.3827000000E-01	0.000E+00	0.0
	2212	-1	0	0	0	0	0.0000000000E+00	0.0000000000E+00	-6.5000000000E+03	6.5000000000E+03	9.3827000000E-01	0.000E+00	0.0
	2212	1	0	0	0	0	0.0000000000E+00	0.0000000000E+00	5.9952931875E+03	5.9952931875E+03	9.3827000000E-01	0.000E+00	0.0
	2212	1	0	0	0	0	0.0000000000E+00	0.0000000000E+00	-5.9543748002E+03	5.9543748002E+03	9.3827000000E-01	0.000E+00	0.0
	51	2	1	2	0	0	4.2197211995E+01	-1.0616903994E+02	4.1115132973E+01	1.0565348766E+03	1.0495346691E+03	0.000E+00	0.0
	1000022	2	5	5	0	0	-4.2197211995E+01	1.0616903994E+02	-1.1597284910E+02	8.6498405214E+02	8.4952647928E+02	0.000E+00	0.0
	14	1	6	6	0	0	-2.3104690384E+02	-1.6360194596E+01	1.0418304076E+02	4.1246749414E+02	3.2500000000E+02	0.000E+00	0.0
	-14	1	6	6	0	0	1.8884969185E+02	1.2252923454E+02	-2.2015588986E+02	4.5251655800E+02	3.2500000000E+02	0.000E+00	0.0
	25	2	5	5	0	0	4.2197211995E+01	-1.0616903994E+02	7.5054461861E+01	1.8534796015E+02	1.2517277797E+02	0.000E+00	0.0
	-5	1	9	9	0	501	6.2257008407E+01	-7.5093801411E+01	-4.2663142228E+00	9.7727621189E+01	4.1800000000E+00	0.000E+00	0.0
	5	1	9	9	501	0	-2.0059796412E+01	-3.1075238529E+01	7.9320776084E+01	8.7620338964E+01	4.1800000000E+00	0.000E+00	0.0
</event>
<event>
    11  -1  1.0000000E+00  1.0000000E+00  -1.0000000E+00  -1.0000000E+00
	2212	-1	0	0	0	0	0.0000000000E+00	0.0000000000E+00	6.5000000000E+03	6.5000000000E+03	9.3827000000E-01	0.000E+00	0.0
	2212	-1	0	0	0	0	0.0000000000E+00	0.0000000000E+00	-6.5000000000E+03	6.5000000000E+03	9.3827000000E-01	0.000E+00	0.0
	2212	1	0	0	0	0	0.0000000000E+00	0.0000000000E+00	5.9771805573E+03	5.9771805573E+03	9.3827000000E-01	0.000E+00	0.0
	2212	1	0	0	0	0	0.0000000000E+00	0.0000000000E+00	-5.9772368572E+03	5.9772368572E+03	9.3827000000E-01	0.000E+00	0.0
	51	2	1	2	0	0	1.0677756954E+02	-7.9476109109E+00	-3.2868840755E+01	1.0515645080E+03	1.0455825839E+03	0.000E+00	0.0
	1000022	2	5	5	0	0	-1.0677756954E+02	7.9476109109E+00	3.2972717975E+01	8.7760970370E+02	8.7042919185E+02	0.000E+00	0.0
	14	1	6	6	0	0	-1.6431814096E+02	-1.2969002903E+02	2.4898863023E+02	4.5982637273E+02	3.2500000000E+02	0.000E+00	0.0
	-14	1	6	6	0	0	5.7540571418E+01	1.3763763995E+02	-2.1601591225E+02	4.1778333097E+02	3.2500000000E+02	0.000E+00	0.0
	25	2	5	5	0	0	1.0677756954E+02	-7.9476109109E+00	-3.2916418128E+01	1.6797288175E+02	1.2516702660E+02	0.000E+00	0.0
	-5	1	9	9	0	501	6.4796692909E+01	-6.4485722574E+01	-3.6088973356E+00	9.1583384780E+01	4.1800000000E+00	0.000E+00	0.0
	5	1	9	9	501	0	4.1980876629E+01	5.6538111663E+01	-2.9307520793E+01	7.6389496974E+01	4.1800000000E+00	0.000E+00	0.0
</event>
<event>
    11  -1  1.0000000E+00  1.0000000E+00  -1.0000000E+00  -1.0000000E+00
	2212	-1	0	0	0	0	0.0000000000E+00	0.0000000000E+00	6.5000000000E+03	6.5000000000E+03	9.3827000000E-01	0.000E+00	0.0
	2212	-1	0	0	0	0	0.0000000000E+00	0.0000000000E+00	-6.5000000000E+03	6.5000000000E+03	9.3827000000E-01	0.000E+00	0.0
	2212	1	0	0	0	0	0.0000000000E+00	0.0000000000E+00	6.3299290665E+03	6.3299290665E+03	9.3827000000E-01	0.000E+00	0.0
	2212	1	0	0	0	0	0.0000000000E+00	0.0000000000E+00	-4.8924988498E+03	4.8924988498E+03	9.3827000000E-01	0.000E+00	0.0
	51	2	1	2	0	0	3.8536415752E+01	4.1395914183E+01	-1.6592563496E+03	1.9621129416E+03	1.0457327024E+03	0.000E+00	0.0
	1000022	2	5	5	0	0	-3.8536415752E+01	-4.1395914183E+01	-9.7368616741E+02	1.2938678092E+03	8.5019437664E+02	0.000E+00	0.0
	14	1	6	6	0	0	-1.2832460799E+02	3.4608021702E+01	-8.6178237969E+02	9.3056906790E+02	3.2500000000E+02	0.000E+00	0.0
	-14	1	6	6	0	0	8.9788192242E+01	-7.6003935885E+01	-1.1190378772E+02	3.6329874132E+02	3.2500000000E+02	0.000E+00	0.0
	25	2	5	5	0	0	3.8536415752E+01	4.1395914183E+01	-4.6374404929E+02	4.8370427450E+02	1.2534992967E+02	0.000E+00	0.0
	-5	1	9	9	0	501	2.2846263012E+01	-2.2029189837E+01	-3.5734333049E+02	3.5877425379E+02	4.1800000000E+00	0.000E+00	0.0
	5	1	9	9	501	0	1.5690152741E+01	6.3425104020E+01	-1.0640071880E+02	1.2493002071E+02	4.1800000000E+00	0.000E+00	0.0
</event>
<event>
    11  -1  1.0000000E+00  1.0000000E+00  -1.0000000E+00  -1.0000000E+00
	2212	-1	0	0	0	0	0.0000000000E+00	0.0000000000E+00	6.5000000000E+03	6.5000000000E+03	9.3827000000E-01	0.000E+00	0.0
	2212	-1	0	0	0	0	0.0000000000E+00	0.0000000000E+00	-6.5000000000E+03	6.5000000000E+03	9.3827000000E-01	0.000E+00	0.0
	2212	1	0	0	0	0	0.0000000000E+00	0.0000000000E+00	5.9400140912E+03	5.9400140912E+03	9.3827000000E-01	0.000E+00	0.0
	2212	1	0	0	0	0	0.0000000000E+00	0.0000000000E+00	-6.0091971891E+03	6.0091971891E+03	9.3827000000E-01	0.000E+00	0.0
	51	2	1	2	0	0	1.1731803561E+02	-3.9171821874E+01	-8.0765430276E+00	1.0558095549E+03	1.0485087661E+03	0.000E+00	0.0
	1000022	2	5	5	0	0	-1.1731803561E+02	3.9171821874E+01	1.3441617592E+02	8.6310221830E+02	8.4355188209E+02	0.000E+00	0.0
	14	1	6	6	0	0	5.3077959441E+01	6.3452770047E+01	-1.7878682830E+02	3.8004375245E+02	3.2500000000E+02	0.000E+00	0.0
	-14	1	6	6	0	0	-1.7039599505E+02	-2.4280948172E+01	3.1320300422E+02	4.8305846585E+02	3.2500000000E+02	0.000E+00	0.0
	25	2	5	5	0	0	1.1731803561E+02	-3.9171821874E+01	-6.5233078002E+01	1.8768650146E+02	1.2519151431E+02	0.000E+00	0.0
	-5	1	9	9	0	501	1.1666249679E+02	-4.6380116949E-01	-8.4626675461E+01	1.4418564376E+02	4.1800000000E+00	0.000E+00	0.0
	5	1	9	9	501	0	6.5553882645E-01	-3.8708020705E+01	1.9393597459E+01	4.3500857698E+01	4.1800000000E+00	0.000E+00	0.0
</event>
<event>
    11  -1  1.0000000E+00  1.0000000E+00  -1.0000000E+00  -1.0000000E+00
	2212	-1	0	0	0	0	0.0000000000E+00	0.0000000000E+00	6.5000000000E+03	6.5000000000E+03	9.3827000000E-01	0.000E+00	0.0
	2212	-1	0	0	0	0	0.0000000000E+00	0.0000000000E+00	-6.5000000000E+03	6.5000000000E+03	9.3827000000E-01	0.000E+00	0.0
	2212	1	0	0	0	0	0.0000000000E+00	0.0000000000E+00	4.9432535204E+03	4.9432535204E+03	9.3827000000E-01	0.000E+00	0.0
	2212	1	0	0	0	0	0.0000000000E+00	0.0000000000E+00	-6.3245851881E+03	6.3245851881E+03	9.3827000000E-01	0.000E+00	0.0
	51	2	1	2	0	0	-1.3877026633E+02	-3.3733524137E+01	1.3894322144E+03	1.7444834706E+03	1.0451342323E+03	0.000E+00	0.0
	1000022	2	5	5	0	0	1.3877026633E+02	3.3733524137E+01	1.1350581869E+03	1.4211751876E+03	8.4320026607E+02	0.000E+00	0.0
	14	1	6	6	0	0	-1.0754566821E+02	1.2627347318E+02	2.5000983748E+02	4.4231321438E+02	3.2500000000E+02	0.000E+00	0.0
	-14	1	6	6	0	0	2.4631593454E+02	-9.2539949039E+01	8.8504834946E+02	9.7886197324E+02	3.2500000000E+02	0.000E+00	0.0
	25	2	5	5	0	0	-1.3877026633E+02	-3.3733524137E+01	2.4627348084E+02	3.1098610390E+02	1.2516625738E+02	0.000E+00	0.0
	-5	1	9	9	0	501	-9.9984188629E+01	-6.0522056159E+01	2.3476794957E+02	2.6228461602E+02	4.1800000000E+00	0.000E+00	0.0
	5	1	9	9	501	0	-3.8786077704E+01	2.6788532021E+01	1.1505531265E+01	4.8701487875E+01	4.1800000000E+00	0.000E+00	0.0
</event>
<event>
    11  -1  1.0000000E+00  1.0000000E+00  -1.0000000E+00  -1.0000000E+00
	2212	-1	0	0	0	0	0.0000000000E+00	0.0000000000E+00	6.5000000000E+03	6.5000000000E+03	9.3827000000E-01	0.000E+00	0.0
	2212	-1	0	0	0	0	0.0000000000E+00	0.0000000000E+00	-6.5000000000E+03	6.5000000000E+03	9.3827000000E-01	0.000E+00	0.0
	2212	1	0	0	0	0	0.0000000000E+00	0.0000000000E+00	5.4781845136E+03	5.4781845136E+03	9.3827000000E-01	0.000E+00	0.0
	2212	1	0	0	0	0	0.0000000000E+00	0.0000000000E+00	-6.2331154623E+03	6.2331154623E+03	9.3827000000E-01	0.000E+00	0.0
	51	2	1	2	0	0	1.8086800683E+01	-2.9569082299E+01	9.0544920973E+02	1.3827026974E+03	1.0444266441E+03	0.000E+00	0.0
	1000022	2	5	5	0	0	-1.8086800683E+01	2.9569082299E+01	4.8287416756E+02	9.8722580149E+02	8.6037541715E+02	0.000E+00	0.0
	14	1	6	6	0	0	1.1796568611E+02	2.4708621787E+02	1.3343840115E+02	4.4541925089E+02	3.2500000000E+02	0.000E+00	0.0
	-14	1	6	6	0	0	-1.3605248679E+02	-2.1751713557E+02	3.4943576641E+02	5.4180655060E+02	3.2500000000E+02	0.000E+00	0.0
	25	2	5	5	0	0	1.8086800683E+01	-2.9569082299E+01	2.7205678105E+02	3.0147422262E+02	1.2518127576E+02	0.000E+00	0.0
	-5	1	9	9	0	501	-3.9330264308E+01	-4.9731748591E+01	1.8139754774E+02	1.9220473260E+02	4.1800000000E+00	0.000E+00	0.0
	5	1	9	9	501	0	5.7417064991E+01	2.0162666292E+01	9.0659233303E+01	1.0926949001E+02	4.1800000000E+00	0.000E+00	0.0
</event>
<event>
    11  -1  1.0000000E+00  1.0000000E+00  -1.0000000E+00  -1.0000000E+00
	2212	-1	0	0	0	0	0.0000000000E+00	0.0000000000E+00	6.5000000000E+03	6.5000000000E+03	9.3827000000E-01	0.000E+00	0.0
	2212	-1	0	0	0	0	0.0000000000E+00	0.0000000000E+00	-6.5000000000E+03	6.5000000000E+03	9.3827000000E-01	0.000E+00	0.0
	2212	1	0	0	0	0	0.0000000000E+00	0.0000000000E+00	6.1948416554E+03	6.1948416554E+03	9.3827000000E-01	0.000E+00	0.0
	2212	1	0	0	0	0	0.0000000000E+00	0.0000000000E+00	-5.4083596957E+03	5.4083596957E+03	9.3827000000E-01	0.000E+00	0.0
	51	2	1	2	0	0	-2.8110843657E+01	1.6404962114E+02	-5.9443844610E+02	1.3090271794E+03	1.1543364295E+03	0.000E+00	0.0
	1000022	2	5	5	0	0	2.8110843657E+01	-1.6404962114E+02	-8.1103517846E+02	1.1871059302E+03	8.5072905857E+02	0.000E+00	0.0
	14	1	6	6	0	0	-1.1215607886E+02	1.2501680122E+02	-5.5072383872E+02	6.6115802433E+02	3.2500000000E+02	0.000E+00	0.0
	-14	1	6	6	0	0	1.4026692251E+02	-2.8906642236E+02	-2.6031133974E+02	5.2594790587E+02	3.2500000000E+02	0.000E+00	0.0
	25	2	5	5	0	0	-2.8110843657E+01	1.6404962114E+02	2.4553218711E+01	2.0969271870E+02	1.2516260624E+02	0.000E+00	0.0
	-5	1	9	9	0	501	1.4481755672E+01	-1.4153559843E+01	1.6138976145E+01	2.6229438701E+01	4.1800000000E+00	0.000E+00	0.0
	5	1	9	9	501	0	-4.2592599328E+01	1.7820318099E+02	8.4142425656E+00	1.8346328000E+02	4.1800000000E+00	0.000E+00	0.0
</event>
<event>
    11  -1  1.0000000E+00  1.0000000E+00  -1.0000000E+00  -1.0000000E+00
	2212	-1	0	0	0	0	0.0000000000E+00	0.0000000000E+00	6.5000000000E+03	6.5000000000E+03	9.3827000000E-01	0.000E+00	0.0
	2212	-1	0	0	0	0	0.0000000000E+00	0.0000000000E+00	-6.5000000000E+03	6.5000000000E+03	9.3827000000E-01	0.000E+00	0.0
	2212	1	0	0	0	0	0.0000000000E+00	0.0000000000E+00	6.3274166636E+03	6.3274166636E+03	9.3827000000E-01	0.000E+00	0.0
	2212	1	0	0	0	0	0.0000000000E+00	0.0000000000E+00	-4.8814893079E+03	4.8814893079E+03	9.3827000000E-01	0.000E+00	0.0
	51	2	1	2	0	0	1.5346189014E+02	-4.5304882723E+01	-1.5333853645E+03	1.8692741001E+03	1.0570297540E+03	0.000E+00	0.0
	1000022	2	5	5	0	0	-1.5346189014E+02	4.5304882723E+01	-1.0924650805E+03	1.3834100913E+03	8.3351091448E+02	0.000E+00	0.0
	14	1	6	6	0	0	3.6221742274E+01	-1.8902093518E+02	-3.3058588115E+02	5.0194915416E+02	3.2500000000E+02	0.000E+00	0.0
	-14	1	6	6	0	0	-1.8968363241E+02	2.3432581791E+02	-7.6187919935E+02	8.8146093716E+02	3.2500000000E+02	0.000E+00	0.0
	25	2	5	5	0	0	1.5346189014E+02	-4.5304882723E+01	-3.5346227518E+02	4.0768393712E+02	1.2516999834E+02	0.000E+00	0.0
	-5	1	9	9	0	501	1.7065438978E+02	-2.0182104544E+01	-2.8864429080E+02	3.3595124216E+02	4.1800000000E+00	0.000E+00	0.0
	5	1	9	9	501	0	-1.7192499641E+01	-2.5122778179E+01	-6.4817984378E+01	7.1732694959E+01	4.1800000000E+00	0.000E+00	0.0
</event>
<event>
    11  -1  1.0000000E+00  1.0000000E+00  -1.0000000E+00  -1.0000000E+00
	2212	-1	0	0	0	0	0.0000000000E+00	0.0000000000E+00	6.5000000000E+03	6.5000000000E+03	9.3827000000E-01	0.000E+00	0.0
	2212	-1	0	0	0	0	0.0000000000E+00	0.0000000000E+00	-6.5000000000E+03	6.5000000000E+03	9.3827000000E-01	0.000E+00	0.0
	2212	1	0	0	0	0	0.0000000000E+00	0.0000000000E+00	6.3308339914E+03	6.3308339914E+03	9.3827000000E-01	0.000E+00	0.0
	2212	1	0	0	0	0	0.0000000000E+00	0.0000000000E+00	-4.8633974750E+03	4.8633974750E+03	9.3827000000E-01	0.000E+00	0.0
	51	2	1	2	0	0	5.7917127108E+01	-9.5364044180E+01	-1.6220023379E+03	1.9366905654E+03	1.0523450324E+03	0.000E+00	0.0
	1000022	2	5	5	0	0	-5.7917127108E+01	9.5364044180E+01	-1.0649025326E+03	1.3697068247E+03	8.5418422320E+02	0.000E+00	0.0
	14	1	6	6	0	0	4.3778964309E+01	-2.1999190521E+02	-5.4091326599E+02	6.6972023815E+02	3.2500000000E+02	0.000E+00	0.0
	-14	1	6	6	0	0	-1.0169609142E+02	3.1535594939E+02	-5.2398926664E+02	6.9998658657E+02	3.2500000000E+02	0.000E+00	0.0
	25	2	5	5	0	0	5.7917127108E+01	-9.5364044180E+01	-4.0253398380E+02	4.3606170888E+02	1.2516992973E+02	0.000E+00	0.0
	-5	1	9	9	0	501	-3.8694088434E+01	-4.0172539282E+01	-1.4916497411E+02	1.5930702211E+02	4.1800000000E+00	0.000E+00	0.0
	5	1	9	9	501	0	9.6611215542E+01	-5.5191504898E+01	-2.5336900968E+02	2.7675468677E+02	4.1800000000E+00	0.000E+00	0.0
</event>
<event>
    11  -1  1.0000000E+00  1.0000000E+00  -1.0000000E+00  -1.0000000E+00
	2212	-1	0	0	0	0	0.0000000000E+00	0.0000000000E+00	6.5000000000E+03	6.5000000000E+03	9.3827000000E-01	0.000E+00	0.0
	2212	-1	0	0	0	0	0.0000000000E+00	0.0000000000E+00	-6.5000000000E+03	6.5000000000E+03	9.3827000000E-01	0.000E+00	0.0
	2212	1	0	0	0	0	0.0000000000E+00	0.0000000000E+00	4.9713208777E+03	4.9713208777E+03	9.3827000000E-01	0.000E+00	0.0
	2212	1	0	0	0	0	0.0000000000E+00	0.0000000000E+00	-6.3287870997E+03	6.3287870997E+03	9.3827000000E-01	0.000E+00	0.0
	51	2	1	2	0	0	9.4674186064E+00	-6.4918549516E+01	1.2171677389E+03	1.5914520726E+03	1.0231902779E+03	0.000E+00	0.0
	1000022	2	5	5	0	0	-9.4674186064E+00	6.4918549516E+01	1.2840008360E+03	1.5406453887E+03	8.4889694116E+02	0.000E+00	0.0
	14	1	6	6	0	0	3.0215420117E+01	1.2930061426E+02	1.9485128680E+02	4.0152664224E+02	3.2500000000E+02	0.000E+00	0.0
	-14	1	6	6	0	0	-3.9682838724E+01	-6.4382064746E+01	1.0891495492E+03	1.1391187464E+03	3.2500000000E+02	0.000E+00	0.0
	25	2	5	5	0	0	9.4674186064E+00	-6.4918549516E+01	7.3465386004E+01	1.5924663395E+02	1.2513303879E+02	0.000E+00	0.0
	-5	1	9	9	0	501	-4.4707523618E+00	3.7023877749E+01	2.7244444513E+01	4.6373346947E+01	4.1800000000E+00	0.000E+00	0.0
	5	1	9	9	501	0	1.3938170968E+01	-1.0194242727E+02	4.6220941491E+01	1.1287328700E+02	4.1800000000E+00	0.000E+00	0.0
</event>
<event>
    11  -1  1.0000000E+00  1.0000000E+00  -1.0000000E+00  -1.0000000E+00
	2212	-1	0	0	0	0	0.0000000000E+00	0.0000000000E+00	6.5000000000E+03	6.5000000000E+03	9.3827000000E-01	0.000E+00	0.0
	2212	-1	0	0	0	0	0.0000000000E+00	0.0000000000E+00	-6.5000000000E+03	6.5000000000E+03	9.3827000000E-01	0.000E+00	0.0
	2212	1	0	0	0	0	0.0000000000E+00	0.0000000000E+00	6.3063982915E+03	6.3063982915E+03	9.3827000000E-01	0.000E+00	0.0
	2212	1	0	0	0	0	0.0000000000E+00	0.0000000000E+00	-5.0680483278E+03	5.0680483278E+03	9.3827000000E-01	0.000E+00	0.0
	51	2	1	2	0	0	1.0676344523E+00	-2.3005794873E+01	-1.0383174628E+03	1.4790357403E+03	1.0530494580E+03	0.000E+00	0.0
	1000022	2	5	5	0	0	-1.0676344523E+00	2.3005794873E+01	-1.2295638691E+03	1.4979596765E+03	8.5529262691E+02	0.000E+00	0.0
	14	1	6	6	0	0	7.4945360007E+01	-2.4944319643E+02	-5.0073612674E+02	6.5130667420E+02	3.2500000000E+02	0.000E+00	0.0
	-14	1	6	6	0	0	-7.6012994459E+01	2.7244899131E+02	-7.2882774241E+02	8.4665300230E+02	3.2500000000E+02	0.000E+00	0.0
	25	2	5	5	0	0	1.0676344523E+00	-2.3005794873E+01	-8.7860945332E+00	1.2759370424E+02	1.2519006136E+02	0.000E+00	0.0
	-5	1	9	9	0	501	3.2745053067E+01	8.5833071107E+00	4.5665665250E+01	5.6997693323E+01	4.1800000000E+00	0.000E+00	0.0
	5	1	9	9	501	0	-3.1677418615E+01	-3.1589101984E+01	-5.4451759784E+01	7.0596010920E+01	4.1800000000E+00	0.000E+00	0.0
</event>
<event>
    11  -1  1.0000000E+00  1.0000000E+00  -1.0000000E+00  -1.0000000E+00
	2212	-1	0	0	0	0	0.0000000000E+00	0.0000000000E+00	6.5000000000E+03	6.5000000000E+03	9.3827000000E-01	0.000E+00	0.0
	2212	-1	0	0	0	0	0.0000000000E+00	0.0000000000E+00	-6.5000000000E+03	6.5000000000E+03	9.3827000000E-01	0.000E+00	0.0
	2212	1	0	0	0	0	0.0000000000E+00	0.0000000000E+00	6.3116485808E+03	6.3116485808E+03	9.3827000000E-01	0.000E+00	0.0
	2212	1	0	0	0	0	0.0000000000E+00	0.0000000000E+00	-5.0044953424E+03	5.0044953424E+03	9.3827000000E-01	0.000E+00	0.0
	51	2	1	2	0	0	3.4134667319E+01	1.7450908894E+01	-1.5442871668E+03	1.8743036739E+03	1.0614714780E+03	0.000E+00	0.0
	1000022	2	5	5	0	0	-3.4134667319E+01	-1.7450908894E+01	-8.4493688321E+02	1.2034605217E+03	8.5611283194E+02	0.000E+00	0.0
	14	1	6	6	0	0	-2.8937736907E+02	5.0798852716E+01	-4.3485237444E+02	6.1728548722E+02	3.2500000000E+02	0.000E+00	0.0
	-14	1	6	6	0	0	2.5524270175E+02	-6.8249761609E+01	-4.1008450876E+02	5.8617503451E+02	3.2500000000E+02	0.000E+00	0.0
	25	2	5	5	0	0	3.4134667319E+01	1.7450908894E+01	-4.6221635524E+02	4.8039555509E+02	1.2516477365E+02	0.000E+00	0.0
	-5	1	9	9	0	501	-4.4131814247E+01	2.4975467884E+01	-1.4960503445E+02	1.5802066244E+02	4.1800000000E+00	0.000E+00	0.0
	5	1	9	9	501	0	7.8266481566E+01	-7.5245589908E+00	-3.1261132080E+02	3.2237489266E+02	4.1800000000E+00	0.000E+00	0.0
</event>
<event>
    11  -1  1.0000000E+00  1.0000000E+00  -1.0000000E+00  -1.0000000E+00
	2212	-1	0	0	0	0	0.0000000000E+00	0.0000000000E+00	6.5000000000E+03	6.5000000000E+03	9.3827000000E-01	0.000E+00	0.0
	2212	-1	0	0	0	0	0.0000000000E+00	0.0000000000E+00	-6.5000000000E+03	6.5000000000E+03	9.3827000000E-01	0.000E+00	0.0
	2212	1	0	0	0	0	0.0000000000E+00	0.0000000000E+00	5.5289549475E+03	5.5289549475E+03	9.3827000000E-01	0.000E+00	0.0
	2212	1	0	0	0	0	0.0000000000E+00	0.0000000000E+00	-6.2177090027E+03	6.2177090027E+03	9.3827000000E-01	0.000E+00	0.0
	51	2	1	2	0	0	1.2790066284E+02	-8.6214677770E+00	7.5447830024E+02	1.2969732148E+03	1.0471242071E+03	0.000E+00	0.0
	1000022	2	5	5	0	0	-1.2790066284E+02	8.6214677770E+00	5.0659918600E+02	9.9782833762E+02	8.5005043782E+02	0.000E+00	0.0
	14	1	6	6	0	0	-6.9696279673E+01	1.5712928316E+02	-9.0625025052E+00	3.6776937336E+02	3.2500000000E+02	0.000E+00	0.0
	-14	1	6	6	0	0	-5.8204383166E+01	-1.4850781539E+02	5.1566168851E+02	6.3005896426E+02	3.2500000000E+02	0.000E+00	0.0
	25	2	5	5	0	0	1.2790066284E+02	-8.6214677770E+00	1.8215486918E+02	2.5550771217E+02	1.2518340685E+02	0.000E+00	0.0
	-5	1	9	9	0	501	4.9774661861E+01	4.5819587549E+01	1.3060267167E+02	1.4714442502E+02	4.1800000000E+00	0.000E+00	0.0
	5	1	9	9	501	0	7.8126000978E+01	-5.4441055326E+01	5.1552197513E+01	1.0836328715E+02	4.1800000000E+00	0.000E+00	0.0
</event>
<event>
    11  -1  1.0000000E+00  1.0000000E+00  -1.0000000E+00  -1.0000000E+00
	2212	-1	0	0	0	0	0.0000000000E+00	0.0000000000E+00	6.5000000000E+03	6.5000000000E+03	9.3827000000E-01	0.000E+00	0.0
	2212	-1	0	0	0	0	0.0000000000E+00	0.0000000000E+00	-6.5000000000E+03	6.5000000000E+03	9.3827000000E-01	0.000E+00	0.0
	2212	1	0	0	0	0	0.0000000000E+00	0.0000000000E+00	6.2542139587E+03	6.2542139587E+03	9.3827000000E-01	0.000E+00	0.0
	2212	1	0	0	0	0	0.0000000000E+00	0.0000000000E+00	-5.3934017797E+03	5.3934017797E+03	9.3827000000E-01	0.000E+00	0.0
	51	2	1	2	0	0	1.1962708732E+02	4.1308534678E+02	-9.6041950012E+02	1.4816549340E+03	1.0430462998E+03	0.000E+00	0.0
	1000022	2	5	5	0	0	-1.1962708732E+02	-4.1308534678E+02	-4.6157643028E+02	7.5238050736E+02	4.0996766108E+02	0.000E+00	0.0
	14	1	6	6	0	0	0.0000000000E+00	0.0000000000E+00	0.0000000000E+00	0.0000000000E+00	0.0000000000E+00	0.000E+00	0.0
	-14	1	6	6	0	0	0.0000000000E+00	0.0000000000E+00	0.0000000000E+00	0.0000000000E+00	0.0000000000E+00	0.000E+00	0.0
	25	2	5	5	0	0	1.1962708732E+02	4.1308534678E+02	-3.9923574877E+02	6.0000375424E+02	1.2516060986E+02	0.000E+00	0.0
	-5	1	9	9	0	501	6.3264214234E+01	2.3584851841E+02	-1.4185221054E+02	2.8242947168E+02	4.1800000000E+00	0.000E+00	0.0
	5	1	9	9	501	0	5.6362873081E+01	1.7723682838E+02	-2.5738353822E+02	3.1757428256E+02	4.1800000000E+00	0.000E+00	0.0
</event>
<event>
    11  -1  1.0000000E+00  1.0000000E+00  -1.0000000E+00  -1.0000000E+00
	2212	-1	0	0	0	0	0.0000000000E+00	0.0000000000E+00	6.5000000000E+03	6.5000000000E+03	9.3827000000E-01	0.000E+00	0.0
	2212	-1	0	0	0	0	0.0000000000E+00	0.0000000000E+00	-6.5000000000E+03	6.5000000000E+03	9.3827000000E-01	0.000E+00	0.0
	2212	1	0	0	0	0	0.0000000000E+00	0.0000000000E+00	6.1384424395E+03	6.1384424395E+03	9.3827000000E-01	0.000E+00	0.0
	2212	1	0	0	0	0	0.0000000000E+00	0.0000000000E+00	-5.7382880728E+03	5.7382880728E+03	9.3827000000E-01	0.000E+00	0.0
	51	2	1	2	0	0	-9.8340905328E+01	4.5100529398E+01	-3.0925589591E+02	1.0995249090E+03	1.0495764979E+03	0.000E+00	0.0
	1000022	2	5	5	0	0	9.8340905328E+01	-4.5100529398E+01	-4.2308925205E+02	9.5623413751E+02	8.5069043672E+02	0.000E+00	0.0
	14	1	6	6	0	0	2.9300648483E+02	2.4868370759E+01	-9.1056171081E+01	4.4764658193E+02	3.2500000000E+02	0.000E+00	0.0
	-14	1	6	6	0	0	-1.9466557950E+02	-6.9968900157E+01	-3.3203308097E+02	5.0858755558E+02	3.2500000000E+02	0.000E+00	0.0
	25	2	5	5	0	0	-9.8340905328E+01	4.5100529398E+01	2.2934885431E+01	1.6703535018E+02	1.2517910299E+02	0.000E+00	0.0
	-5	1	9	9	0	501	7.9184444312E+00	-3.2430510424E+01	1.3326512944E+00	3.3670285535E+01	4.1800000000E+00	0.000E+00	0.0
	5	1	9	9	501	0	-1.0625934976E+02	7.7531039822E+01	2.1602234136E+01	1.3336506464E+02	4.1800000000E+00	0.000E+00	0.0
</event>
<event>
    11  -1  1.0000000E+00  1.0000000E+00  -1.0000000E+00  -1.0000000E+00
	2212	-1	0	0	0	0	0.0000000000E+00	0.0000000000E+00	6.5000000000E+03	6.5000000000E+03	9.3827000000E-01	0.000E+00	0.0
	2212	-1	0	0	0	0	0.0000000000E+00	0.0000000000E+00	-6.5000000000E+03	6.5000000000E+03	9.3827000000E-01	0.000E+00	0.0
	2212	1	0	0	0	0	0.0000000000E+00	0.0000000000E+00	6.2986846471E+03	6.2986846471E+03	9.3827000000E-01	0.000E+00	0.0
	2212	1	0	0	0	0	0.0000000000E+00	0.0000000000E+00	-5.1105609667E+03	5.1105609667E+03	9.3827000000E-01	0.000E+00	0.0
	51	2	1	2	0	0	-1.0195486195E+01	-1.1921660629E+02	-1.3047513523E+03	1.6839104120E+03	1.0577625618E+03	0.000E+00	0.0
	1000022	2	5	5	0	0	1.0195486195E+01	1.1921660629E+02	-8.7159891478E+02	1.2299602483E+03	8.5953533783E+02	0.000E+00	0.0
	14	1	6	6	0	0	-1.0292265201E+01	1.2080797772E+02	-5.5504448380E+01	3.5129224585E+02	3.2500000000E+02	0.000E+00	0.0
	-14	1	6	6	0	0	2.0487751396E+01	-1.5913714371E+00	-8.1609446640E+02	8.7866800244E+02	3.2500000000E+02	0.000E+00	0.0
	25	2	5	5	0	0	-1.0195486195E+01	-1.1921660629E+02	-3.1652476563E+02	3.6079413786E+02	1.2517162419E+02	0.000E+00	0.0
	-5	1	9	9	0	501	2.7216581285E+01	-1.0590942086E+02	-2.9665656665E+02	3.1619636092E+02	4.1800000000E+00	0.000E+00	0.0
	5	1	9	9	501	0	-3.7412067480E+01	-1.3307185428E+01	-1.9868198984E+01	4.4597776940E+01	4.1800000000E+00	0.000E+00	0.0
</event>
<event>
    11  -1  1.0000000E+00  1.0000000E+00  -1.0000000E+00  -1.0000000E+00
	2212	-1	0	0	0	0	0.0000000000E+00	0.0000000000E+00	6.5000000000E+03	6.5000000000E+03	9.3827000000E-01	0.000E+00	0.0
	2212	-1	0	0	0	0	0.0000000000E+00	0.0000000000E+00	-6.5000000000E+03	6.5000000000E+03	9.3827000000E-01	0.000E+00	0.0
	2212	1	0	0	0	0	0.0000000000E+00	0.0000000000E+00	5.1860581252E+03	5.1860581252E+03	9.3827000000E-01	0.000E+00	0.0
	2212	1	0	0	0	0	0.0000000000E+00	0.0000000000E+00	-6.2891808480E+03	6.2891808480E+03	9.3827000000E-01	0.000E+00	0.0
	51	2	1	2	0	0	1.2330838607E+02	2.3097682735E+01	1.1771889854E+03	1.5841492403E+03	1.0526236019E+03	0.000E+00	0.0
	1000022	2	5	5	0	0	-1.2330838607E+02	-2.3097682735E+01	8.4628549966E+02	1.2127426827E+03	8.5953894993E+02	0.000E+00	0.0
	14	1	6	6	0	0	-2.5350334678E+02	-2.1945406324E+02	4.7032246721E+02	6.6276108506E+02	3.2500000000E+02	0.000E+00	0.0
	-14	1	6	6	0	0	1.3019496071E+02	1.9635638051E+02	3.7596303244E+02	5.4998159762E+02	3.2500000000E+02	0.000E+00	0.0
	25	2	5	5	0	0	1.2330838607E+02	2.3097682735E+01	2.5683722317E+02	3.1201834410E+02	1.2510646198E+02	0.000E+00	0.0
	-5	1	9	9	0	501	7.5468699415E+01	1.9921308490E+01	2.5177084531E+02	2.6362551863E+02	4.1800000000E+00	0.000E+00	0.0
	5	1	9	9	501	0	4.7839686659E+01	3.1763742447E+00	5.0663778570E+00	4.8392825476E+01	4.1800000000E+00	0.000E+00	0.0
</event>
<event>
    11  -1  1.0000000E+00  1.0000000E+00  -1.0000000E+00  -1.0000000E+00
	2212	-1	0	0	0	0	0.0000000000E+00	0.0000000000E+00	6.5000000000E+03	6.5000000000E+03	9.3827000000E-01	0.000E+00	0.0
	2212	-1	0	0	0	0	0.0000000000E+00	0.0000000000E+00	-6.5000000000E+03	6.5000000000E+03	9.3827000000E-01	0.000E+00	0.0
	2212	1	0	0	0	0	0.0000000000E+00	0.0000000000E+00	6.2196390997E+03	6.2196390997E+03	9.3827000000E-01	0.000E+00	0.0
	2212	1	0	0	0	0	0.0000000000E+00	0.0000000000E+00	-5.4826175324E+03	5.4826175324E+03	9.3827000000E-01	0.000E+00	0.0
	51	2	1	2	0	0	-1.7246203775E+02	-1.5425175732E+01	-7.7172070942E+02	1.3290865293E+03	1.0681465529E+03	0.000E+00	0.0
	1000022	2	5	5	0	0	1.7246203775E+02	1.5425175732E+01	-5.6397279118E+02	1.0227949610E+03	8.3550172498E+02	0.000E+00	0.0
	14	1	6	6	0	0	-8.8088068673E+01	1.0028565876E+02	-4.8546989910E+01	3.5468088675E+02	3.2500000000E+02	0.000E+00	0.0
	-14	1	6	6	0	0	2.6055010643E+02	-8.4860483026E+01	-5.1542580127E+02	6.6811407421E+02	3.2500000000E+02	0.000E+00	0.0
	25	2	5	5	0	0	-1.7246203775E+02	-1.5425175732E+01	-1.7304877612E+02	2.7494840700E+02	1.2517850088E+02	0.000E+00	0.0
	-5	1	9	9	0	501	-1.3108670666E+01	2.4289245135E+01	9.3825864619E+00	2.9450127412E+01	4.1800000000E+00	0.000E+00	0.0
	5	1	9	9	501	0	-1.5935336709E+02	-3.9714420867E+01	-1.8243136258E+02	2.4549827959E+02	4.1800000000E+00	0.000E+00	0.0
</event>
<event>
    11  -1  1.0000000E+00  1.0000000E+00  -1.0000000E+00  -1.0000000E+00
	2212	-1	0	0	0	0	0.0000000000E+00	0.0000000000E+00	6.5000000000E+03	6.5000000000E+03	9.3827000000E-01	0.000E+00	0.0
	2212	-1	0	0	0	0	0.0000000000E+00	0.0000000000E+00	-6.5000000000E+03	6.5000000000E+03	9.3827000000E-01	0.000E+00	0.0
	2212	1	0	0	0	0	0.0000000000E+00	0.0000000000E+00	5.0367615712E+03	5.0367615712E+03	9.3827000000E-01	0.000E+00	0.0
	2212	1	0	0	0	0	0.0000000000E+00	0.0000000000E+00	-6.3121912347E+03	6.3121912347E+03	9.3827000000E-01	0.000E+00	0.0
	51	2	1	2	0	0	-4.6290741202E+01	-1.9054605582E+01	1.2107617687E+03	1.6024000693E+03	1.0484445674E+03	0.000E+00	0.0
	1000022	2	5	5	0	0	4.6290741202E+01	1.9054605582E+01	1.1705863444E+03	1.4802615882E+03	9.0465245761E+02	0.000E+00	0.0
	14	1	6	6	0	0	-5.0809033156E+01	-4.9053119604E+01	1.0692202410E+03	1.1197520664E+03	3.2500000000E+02	0.000E+00	0.0
	-14	1	6	6	0	0	9.7099774357E+01	6.8107725185E+01	1.0136610343E+02	3.6050952184E+02	3.2500000000E+02	0.000E+00	0.0
	25	2	5	5	0	0	-4.6290741202E+01	-1.9054605582E+01	1.0484331907E+02	1.7078560596E+02	1.2517863609E+02	0.000E+00	0.0
	-5	1	9	9	0	501	-7.4385420386E+01	-3.0511932364E+01	1.1331920122E+02	1.3900677159E+02	4.1800000000E+00	0.000E+00	0.0
	5	1	9	9	501	0	2.8094679184E+01	1.1457326782E+01	-8.4758821491E+00	3.1778834366E+01	4.1800000000E+00	0.000E+00	0.0
</event>
<event>
    11  -1  1.0000000E+00  1.0000000E+00  -1.0000000E+00  -1.0000000E+00
	2212	-1	0	0	0	0	0.0000000000E+00	0.0000000000E+00	6.5000000000E+03	6.5000000000E+03	9.3827000000E-01	0.000E+00	0.0
	2212	-1	0	0	0	0	0.0000000000E+00	0.0000000000E+00	-6.5000000000E+03	6.5000000000E+03	9.3827000000E-01	0.000E+00	0.0
	2212	1	0	0	0	0	0.0000000000E+00	0.0000000000E+00	6.1375609086E+03	6.1375609086E+03	9.3827000000E-01	0.000E+00	0.0
	2212	1	0	0	0	0	0.0000000000E+00	0.0000000000E+00	-5.7376714038E+03	5.7376714038E+03	9.3827000000E-01	0.000E+00	0.0
	51	2	1	2	0	0	-9.4067055242E+01	-3.2422775092E+01	-2.9274390044E+02	1.0958054451E+03	1.0512805215E+03	0.000E+00	0.0
	1000022	2	5	5	0	0	9.4067055242E+01	3.2422775092E+01	-4.3827187342E+02	9.6031983886E+02	8.4866489891E+02	0.000E+00	0.0
	14	1	6	6	0	0	-6.6803768068E+01	1.5837745517E+02	-4.4391019695E+02	5.7639172851E+02	3.2500000000E+02	0.000E+00	0.0
	-14	1	6	6	0	0	1.6087082331E+02	-1.2595468008E+02	5.6383235339E+00	3.8392811035E+02	3.2500000000E+02	0.000E+00	0.0
	25	2	5	5	0	0	-9.4067055242E+01	-3.2422775092E+01	3.8382368648E+01	1.6444784870E+02	1.2518003631E+02	0.000E+00	0.0
	-5	1	9	9	0	501	-8.3330162016E+01	-2.2567828571E+01	8.1465822565E+01	1.1877447299E+02	4.1800000000E+00	0.000E+00	0.0
	5	1	9	9	501	0	-1.0736893226E+01	-9.8549465220E+00	-4.3083453916E+01	4.5673375707E+01	4.1800000000E+00	0.000E+00	0.0
</event>
<event>
    11  -1  1.0000000E+00  1.0000000E+00  -1.0000000E+00  -1.0000000E+00
	2212	-1	0	0	0	0	0.0000000000E+00	0.0000000000E+00	6.5000000000E+03	6.5000000000E+03	9.3827000000E-01	0.000E+00	0.0
	2212	-1	0	0	0	0	0.0000000000E+00	0.0000000000E+00	-6.5000000000E+03	6.5000000000E+03	9.3827000000E-01	0.000E+00	0.0
	2212	1	0	0	0	0	0.0000000000E+00	0.0000000000E+00	6.3288144179E+03	6.3288144179E+03	9.3827000000E-01	0.000E+00	0.0
	2212	1	0	0	0	0	0.0000000000E+00	0.0000000000E+00	-4.8928617855E+03	4.8928617855E+03	9.3827000000E-01	0.000E+00	0.0
	51	2	1	2	0	0	1.3990459550E+01	9.1957012238E+01	-1.5722371397E+03	1.8923680961E+03	1.0490355393E+03	0.000E+00	0.0
	1000022	2	5	5	0	0	-1.3990459550E+01	-9.1957012238E+01	-1.0721203692E+03	1.3824780085E+03	8.6784303458E+02	0.000E+00	0.0
	14	1	6	6	0	0	2.6355147694E+02	-1.2490700882E+02	-6.3129433052E+02	7.6760580612E+02	3.2500000000E+02	0.000E+00	0.0
	-14	1	6	6	0	0	-2.7754193649E+02	3.2949996577E+01	-4.4082603873E+02	6.1487220234E+02	3.2500000000E+02	0.000E+00	0.0
	25	2	5	5	0	0	1.3990459550E+01	9.1957012238E+01	-3.6383226321E+02	3.9584578811E+02	1.2517246963E+02	0.000E+00	0.0
	-5	1	9	9	0	501	6.8121356229E+01	5.7194180946E+01	-2.4454358225E+02	2.6025128151E+02	4.1800000000E+00	0.000E+00	0.0
	5	1	9	9	501	0	-5.4130896679E+01	3.4762831293E+01	-1.1928868095E+02	1.3559450659E+02	4.1800000000E+00	0.000E+00	0.0
</event>
<event>
    11  -1  1.0000000E+00  1.0000000E+00  -1.0000000E+00  -1.0000000E+00
	2212	-1	0	0	0	0	0.0000000000E+00	0.0000000000E+00	6.5000000000E+03	6.5000000000E+03	9.3827000000E-01	0.000E+00	0.0
	2212	-1	0	0	0	0	0.0000000000E+00	0.0000000000E+00	-6.5000000000E+03	6.5000000000E+03	9.3827000000E-01	0.000E+00	0.0
	2212	1	0	0	0	0	0.0000000000E+00	0.0000000000E+00	6.0001006648E+03	6.0001006648E+03	9.3827000000E-01	0.000E+00	0.0
	2212	1	0	0	0	0	0.0000000000E+00	0.0000000000E+00	-5.9646014155E+03	5.9646014155E+03	9.3827000000E-01	0.000E+00	0.0
	51	2	1	2	0	0	-7.4017201909E-01	-1.2855218720E+02	-2.7036144333E+01	1.0429950871E+03	1.0346891252E+03	0.000E+00	0.0
	1000022	2	5	5	0	0	7.4017201909E-01	1.2855218720E+02	-3.8073025428E+01	8.5584472612E+02	8.4527772198E+02	0.000E+00	0.0
	14	1	6	6	0	0	-2.6506642386E+02	1.1449870575E+02	-2.7935939372E+01	4.3563239019E+02	3.2500000000E+02	0.000E+00	0.0
	-14	1	6	6	0	0	2.6580659588E+02	1.4053481452E+01	-1.0137086055E+01	4.2021233593E+02	3.2500000000E+02	0.000E+00	0.0
	25	2	5	5	0	0	-7.4017201909E-01	-1.2855218720E+02	2.5737760754E+00	1.7945319361E+02	1.2518231378E+02	0.000E+00	0.0
	-5	1	9	9	0	501	6.0652657403E+01	-8.2410319834E+01	-1.6718399130E+00	1.0242301067E+02	4.1800000000E+00	0.000E+00	0.0
	5	1	9	9	501	0	-6.1392829422E+01	-4.6141867370E+01	4.2456159884E+00	7.7030182941E+01	4.1800000000E+00	0.000E+00	0.0
</event>
<event>
    11  -1  1.0000000E+00  1.0000000E+00  -1.0000000E+00  -1.0000000E+00
	2212	-1	0	0	0	0	0.0000000000E+00	0.0000000000E+00	6.5000000000E+03	6.5000000000E+03	9.3827000000E-01	0.000E+00	0.0
	2212	-1	0	0	0	0	0.0000000000E+00	0.0000000000E+00	-6.5000000000E+03	6.5000000000E+03	9.3827000000E-01	0.000E+00	0.0
	2212	1	0	0	0	0	0.0000000000E+00	0.0000000000E+00	6.3233121516E+03	6.3233121516E+03	9.3827000000E-01	0.000E+00	0.0
	2212	1	0	0	0	0	0.0000000000E+00	0.0000000000E+00	-4.9301433240E+03	4.9301433240E+03	9.3827000000E-01	0.000E+00	0.0
	51	2	1	2	0	0	-1.1210052211E+02	-4.5204832215E+01	-1.2666253879E+03	1.6518015229E+03	1.0533272966E+03	0.000E+00	0.0
	1000022	2	5	5	0	0	1.1210052211E+02	4.5204832215E+01	-1.2775490182E+03	1.5376998429E+03	8.4721857220E+02	0.000E+00	0.0
	14	1	6	6	0	0	2.0526046405E+02	-1.4893088931E+02	-9.2239874245E+02	1.0103250506E+03	3.2500000000E+02	0.000E+00	0.0
	-14	1	6	6	0	0	-9.3159941945E+01	1.9413572152E+02	-3.5515027576E+02	5.2737479227E+02	3.2500000000E+02	0.000E+00	0.0
	25	2	5	5	0	0	-1.1210052211E+02	-4.5204832215E+01	-1.1561980931E+02	2.0884468148E+02	1.2505261598E+02	0.000E+00	0.0
	-5	1	9	9	0	501	-3.2482363029E+01	1.6411224772E+01	1.8542279817E+01	4.1057529727E+01	4.1800000000E+00	0.000E+00	0.0
	5	1	9	9	501	0	-7.9618159081E+01	-6.1616056987E+01	-1.3416208913E+02	1.6778715175E+02	4.1800000000E+00	0.000E+00	0.0
</event>
<event>
    11  -1  1.0000000E+00  1.0000000E+00  -1.0000000E+00  -1.0000000E+00
	2212	-1	0	0	0	0	0.0000000000E+00	0.0000000000E+00	6.5000000000E+03	6.5000000000E+03	9.3827000000E-01	0.000E+00	0.0
	2212	-1	0	0	0	0	0.0000000000E+00	0.0000000000E+00	-6.5000000000E+03	6.5000000000E+03	9.3827000000E-01	0.000E+00	0.0
	2212	1	0	0	0	0	0.0000000000E+00	0.0000000000E+00	5.1985642140E+03	5.1985642140E+03	9.3827000000E-01	0.000E+00	0.0
	2212	1	0	0	0	0	0.0000000000E+00	0.0000000000E+00	-6.2881428870E+03	6.2881428870E+03	9.3827000000E-01	0.000E+00	0.0
	51	2	1	2	0	0	1.1180208689E+02	-4.3443713838E+01	1.0217117538E+03	1.4700869648E+03	1.0501779437E+03	0.000E+00	0.0
	1000022	2	5	5	0	0	-1.1180208689E+02	4.3443713838E+01	9.7781136298E+02	1.3070086308E+03	8.5893505960E+02	0.000E+00	0.0
	14	1	6	6	0	0	1.4537321966E+02	-1.6928666332E+02	5.3254316423E+02	6.6258476374E+02	3.2500000000E+02	0.000E+00	0.0
	-14	1	6	6	0	0	-2.5717530655E+02	2.1273037716E+02	4.4526819875E+02	6.4442386710E+02	3.2500000000E+02	0.000E+00	0.0
	25	2	5	5	0	0	1.1180208689E+02	-4.3443713838E+01	1.1176731003E+02	2.0628426813E+02	1.2519666442E+02	0.000E+00	0.0
	-5	1	9	9	0	501	4.1198983096E+00	-6.1306391275E+01	2.3769451992E+01	6.6014441006E+01	4.1800000000E+00	0.000E+00	0.0
	5	1	9	9	501	0	1.0768218858E+02	1.7862677437E+01	8.7997858036E+01	1.4026982712E+02	4.1800000000E+00	0.000E+00	0.0
</event>
<event>
    11  -1  1.0000000E+00  1.0000000E+00  -1.0000000E+00  -1.0000000E+00
	2212	-1	0	0	0	0	0.0000000000E+00	0.0000000000E+00	6.5000000000E+03	6.5000000000E+03	9.3827000000E-01	0.000E+00	0.0
	2212	-1	0	0	0	0	0.0000000000E+00	0.0000000000E+00	-6.5000000000E+03	6.5000000000E+03	9.3827000000E-01	0.000E+00	0.0
	2212	1	0	0	0	0	0.0000000000E+00	0.0000000000E+00	5.4687225724E+03	5.4687225724E+03	9.3827000000E-01	0.000E+00	0.0
	2212	1	0	0	0	0	0.0000000000E+00	0.0000000000E+00	-6.2328399332E+03	6.2328399332E+03	9.3827000000E-01	0.000E+00	0.0
	51	2	1	2	0	0	1.0823766937E+02	-3.2406872462E+01	8.6954512722E+02	1.3678226904E+03	1.0497926394E+03	0.000E+00	0.0
	1000022	2	5	5	0	0	-1.0823766937E+02	3.2406872462E+01	5.2946990186E+02	1.0094738639E+03	8.5201731584E+02	0.000E+00	0.0
	14	1	6	6	0	0	-2.1546894722E+01	-2.5729980547E+02	2.7251506475E+02	4.9654498193E+02	3.2500000000E+02	0.000E+00	0.0
	-14	1	6	6	0	0	-8.6690774646E+01	2.8970667793E+02	2.5695483711E+02	5.1292888197E+02	3.2500000000E+02	0.000E+00	0.0
	25	2	5	5	0	0	1.0823766937E+02	-3.2406872462E+01	2.3464745895E+02	2.8896363049E+02	1.2519964577E+02	0.000E+00	0.0
	-5	1	9	9	0	501	-1.9911023109E+01	6.5920260805E+00	8.6886629484E+01	8.9479955477E+01	4.1800000000E+00	0.000E+00	0.0
	5	1	9	9	501	0	1.2814869248E+02	-3.8998898542E+01	1.4776082947E+02	1.9948367501E+02	4.1800000000E+00	0.000E+00	0.0
</event>
<event>
    11  -1  1.0000000E+00  1.0000000E+00  -1.0000000E+00  -1.0000000E+00
	2212	-1	0	0	0	0	0.0000000000E+00	0.0000000000E+00	6.5000000000E+03	6.5000000000E+03	9.3827000000E-01	0.000E+00	0.0
	2212	-1	0	0	0	0	0.0000000000E+00	0.0000000000E+00	-6.5000000000E+03	6.5000000000E+03	9.3827000000E-01	0.000E+00	0.0
	2212	1	0	0	0	0	0.0000000000E+00	0.0000000000E+00	5.9016884563E+03	5.9016884563E+03	9.3827000000E-01	0.000E+00	0.0
	2212	1	0	0	0	0	0.0000000000E+00	0.0000000000E+00	-6.0483464771E+03	6.0483464771E+03	9.3827000000E-01	0.000E+00	0.0
	51	2	1	2	0	0	2.2390300031E+01	1.1662519291E+02	1.0850772512E+02	1.0520431330E+03	1.0396720954E+03	0.000E+00	0.0
	1000022	2	5	5	0	0	-2.2390300031E+01	-1.1662519291E+02	1.6092067257E+02	8.7686879423E+02	8.5375679105E+02	0.000E+00	0.0
	14	1	6	6	0	0	1.4502593831E+02	-2.4662682712E+02	-4.8923227632E+01	4.3574740027E+02	3.2500000000E+02	0.000E+00	0.0
	-14	1	6	6	0	0	-1.6741623834E+02	1.3000163421E+02	2.0984390020E+02	4.4112139396E+02	3.2500000000E+02	0.000E+00	0.0
	25	2	5	5	0	0	2.2390300031E+01	1.1662519291E+02	-1.4262651775E+01	1.7309627239E+02	1.2512447852E+02	0.000E+00	0.0
	-5	1	9	9	0	501	2.5373896422E+01	1.4138078965E+02	7.3029051396E-01	1.4370235915E+02	4.1800000000E+00	0.000E+00	0.0
	5	1	9	9	501	0	-2.9835963910E+00	-2.4755596739E+01	-1.4992942289E+01	2.9393913244E+01	4.1800000000E+00	0.000E+00	0.0
</event>
<event>
    11  -1  1.0000000E+00  1.0000000E+00  -1.0000000E+00  -1.0000000E+00
	2212	-1	0	0	0	0	0.0000000000E+00	0.0000000000E+00	6.5000000000E+03	6.5000000000E+03	9.3827000000E-01	0.000E+00	0.0
	2212	-1	0	0	0	0	0.0000000000E+00	0.0000000000E+00	-6.5000000000E+03	6.5000000000E+03	9.3827000000E-01	0.000E+00	0.0
	2212	1	0	0	0	0	0.0000000000E+00	0.0000000000E+00	5.4990412801E+03	5.4990412801E+03	9.3827000000E-01	0.000E+00	0.0
	2212	1	0	0	0	0	0.0000000000E+00	0.0000000000E+00	-6.2189087677E+03	6.2189087677E+03	9.3827000000E-01	0.000E+00	0.0
	51	2	1	2	0	0	2.7504830333E+01	1.1827844001E+02	8.4914678949E+02	1.3642725004E+03	1.0608689269E+03	0.000E+00	0.0
	1000022	2	5	5	0	0	-2.7504830333E+01	-1.1827844001E+02	4.6192106486E+02	9.7067734634E+02	8.4504268264E+02	0.000E+00	0.0
	14	1	6	6	0	0	-2.4435889957E+02	-8.5271954286E+01	3.9431791943E+02	5.7279507642E+02	3.2500000000E+02	0.000E+00	0.0
	-14	1	6	6	0	0	2.1685406924E+02	-3.3006485719E+01	6.7603145431E+01	3.9788226992E+02	3.2500000000E+02	0.000E+00	0.0
	25	2	5	5	0	0	2.7504830333E+01	1.1827844001E+02	2.5794642281E+02	3.1137260585E+02	1.2518081950E+02	0.000E+00	0.0
	-5	1	9	9	0	501	3.9075108112E+01	-7.9499566565E+00	2.8445908692E+01	4.9160024473E+01	4.1800000000E+00	0.000E+00	0.0
	5	1	9	9	501	0	-1.1570277779E+01	1.2622839666E+02	2.2950051412E+02	2.6221258137E+02	4.1800000000E+00	0.000E+00	0.0
</event>
<event>
    11  -1  1.0000000E+00  1.0000000E+00  -1.0000000E+00  -1.0000000E+00
	2212	-1	0	0	0	0	0.0000000000E+00	0.0000000000E+00	6.5000000000E+03	6.5000000000E+03	9.3827000000E-01	0.000E+00	0.0
	2212	-1	0	0	0	0	0.0000000000E+00	0.0000000000E+00	-6.5000000000E+03	6.5000000000E+03	9.3827000000E-01	0.000E+00	0.0
	2212	1	0	0	0	0	0.0000000000E+00	0.0000000000E+00	6.2989265835E+03	6.2989265835E+03	9.3827000000E-01	0.000E+00	0.0
	2212	1	0	0	0	0	0.0000000000E+00	0.0000000000E+00	-5.1185320460E+03	5.1185320460E+03	9.3827000000E-01	0.000E+00	0.0
	51	2	1	2	0	0	-4.9831984049E+01	-1.6443538022E+02	-1.1203917385E+03	1.5478713751E+03	1.0540900936E+03	0.000E+00	0.0
	1000022	2	5	5	0	0	4.9831984049E+01	1.6443538022E+02	-1.0124692617E+03	1.3116308194E+03	8.1594067162E+02	0.000E+00	0.0
	14	1	6	6	0	0	2.1627663824E+02	1.7856004180E+02	-3.4521351188E+02	5.5086898765E+02	3.2500000000E+02	0.000E+00	0.0
	-14	1	6	6	0	0	-1.6644465419E+02	-1.4124661580E+01	-6.6725574981E+02	7.6076183173E+02	3.2500000000E+02	0.000E+00	0.0
	25	2	5	5	0	0	-4.9831984049E+01	-1.6443538022E+02	-1.6792527583E+02	2.7091055117E+02	1.2518549266E+02	0.000E+00	0.0
	-5	1	9	9	0	501	-1.1831089132E+01	-4.4332105190E+01	1.5275179455E+01	4.8539815904E+01	4.1800000000E+00	0.000E+00	0.0
	5	1	9	9	501	0	-3.8000894917E+01	-1.2010327503E+02	-1.8320045528E+02	2.2237073527E+02	4.1800000000E+00	0.000E+00	0.0
</event>
<event>
    11  -1  1.0000000E+00  1.0000000E+00  -1.0000000E+00  -1.0000000E+00
	2212	-1	0	0	0	0	0.0000000000E+00	0.0000000000E+00	6.5000000000E+03	6.5000000000E+03	9.3827000000E-01	0.000E+00	0.0
	2212	-1	0	0	0	0	0.0000000000E+00	0.0000000000E+00	-6.5000000000E+03	6.5000000000E+03	9.3827000000E-01	0.000E+00	0.0
	2212	1	0	0	0	0	0.0000000000E+00	0.0000000000E+00	6.0482582648E+03	6.0482582648E+03	9.3827000000E-01	0.000E+00	0.0
	2212	1	0	0	0	0	0.0000000000E+00	0.0000000000E+00	-5.8914012057E+03	5.8914012057E+03	9.3827000000E-01	0.000E+00	0.0
	51	2	1	2	0	0	2.7703899472E+01	-1.5614548217E+01	-1.4906620982E+01	1.0492623261E+03	1.0486743544E+03	0.000E+00	0.0
	1000022	2	5	5	0	0	-2.7703899472E+01	1.5614548217E+01	-2.7161116384E+02	8.8757380612E+02	8.4439523733E+02	0.000E+00	0.0
	14	1	6	6	0	0	1.6429709608E+02	1.0534742966E+02	5.1595458310E+01	3.8259470466E+02	3.2500000000E+02	0.000E+00	0.0
	-14	1	6	6	0	0	-1.9200099555E+02	-8.9732881447E+01	-3.2320662215E+02	5.0497910146E+02	3.2500000000E+02	0.000E+00	0.0
	25	2	5	5	0	0	2.7703899472E+01	-1.5614548217E+01	1.1475410473E+02	1.7276672341E+02	1.2517394298E+02	0.000E+00	0.0
	-5	1	9	9	0	501	6.7050508202E+01	-4.1482725980E+01	5.3424848577E+01	9.5332439654E+01	4.1800000000E+00	0.000E+00	0.0
	5	1	9	9	501	0	-3.9346608730E+01	2.5868177764E+01	6.1329256157E+01	7.7434283751E+01	4.1800000000E+00	0.000E+00	0.0
</event>
<event>
    11  -1  1.0000000E+00  1.0000000E+00  -1.0000000E+00  -1.0000000E+00
	2212	-1	0	0	0	0	0.0000000000E+00	0.0000000000E+00	6.5000000000E+03	6.5000000000E+03	9.3827000000E-01	0.000E+00	0.0
	2212	-1	0	0	0	0	0.0000000000E+00	0.0000000000E+00	-6.5000000000E+03	6.5000000000E+03	9.3827000000E-01	0.000E+00	0.0
	2212	1	0	0	0	0	0.0000000000E+00	0.0000000000E+00	6.2678488277E+03	6.2678488277E+03	9.3827000000E-01	0.000E+00	0.0
	2212	1	0	0	0	0	0.0000000000E+00	0.0000000000E+00	-5.3426897887E+03	5.3426897887E+03	9.3827000000E-01	0.000E+00	0.0
	51	2	1	2	0	0	4.2746904364E+01	-8.5047961782E+01	-7.8423120571E+02	1.3033659220E+03	1.0366695177E+03	0.000E+00	0.0
	1000022	2	5	5	0	0	-4.2746904364E+01	8.5047961782E+01	-9.0301555422E+02	1.2306461977E+03	8.3065788337E+02	0.000E+00	0.0
	14	1	6	6	0	0	-1.4514208534E+02	-5.5438272776E+01	-7.4912557752E+02	8.3123628284E+02	3.2500000000E+02	0.000E+00	0.0
	-14	1	6	6	0	0	1.0239518097E+02	1.4048623456E+02	-1.5388997670E+02	3.9940991490E+02	3.2500000000E+02	0.000E+00	0.0
	25	2	5	5	0	0	4.2746904364E+01	-8.5047961782E+01	-2.2143484756E+01	1.5881518582E+02	1.2518576474E+02	0.000E+00	0.0
	-5	1	9	9	0	501	3.7110720757E+01	-5.4189495216E+01	-7.3395429695E+01	9.8580264186E+01	4.1800000000E+00	0.000E+00	0.0
	5	1	9	9	501	0	5.6361836070E+00	-3.0858466566E+01	5.1251944939E+01	6.0234921636E+01	4.1800000000E+00	0.000E+00	0.0
</event>
<event>
    11  -1  1.0000000E+00  1.0000000E+00  -1.0000000E+00  -1.0000000E+00
	2212	-1	0	0	0	0	0.0000000000E+00	0.0000000000E+00	6.5000000000E+03	6.5000000000E+03	9.3827000000E-01	0.000E+00	0.0
	2212	-1	0	0	0	0	0.0000000000E+00	0.0000000000E+00	-6.5000000000E+03	6.5000000000E+03	9.3827000000E-01	0.000E+00	0.0
	2212	1	0	0	0	0	0.0000000000E+00	0.0000000000E+00	5.8258737306E+03	5.8258737306E+03	9.3827000000E-01	0.000E+00	0.0
	2212	1	0	0	0	0	0.0000000000E+00	0.0000000000E+00	-6.0923289514E+03	6.0923289514E+03	9.3827000000E-01	0.000E+00	0.0
	51	2	1	2	0	0	8.1792973126E+01	-1.0657257499E+02	2.3080003736E+02	1.0819443211E+03	1.0484689087E+03	0.000E+00	0.0
	1000022	2	5	5	0	0	-8.1792973126E+01	1.0657257499E+02	2.5685604565E+02	8.9791946687E+02	8.4984500741E+02	0.000E+00	0.0
	14	1	6	6	0	0	-3.0453792016E+02	-2.0795808664E+01	1.1872663081E+02	4.6140743745E+02	3.2500000000E+02	0.000E+00	0.0
	-14	1	6	6	0	0	2.2274494704E+02	1.2736838365E+02	1.3812941484E+02	4.3651202942E+02	3.2500000000E+02	0.000E+00	0.0
	25	2	5	5	0	0	8.1792973126E+01	-1.0657257499E+02	9.5991751085E+00	1.8387785110E+02	1.2518432717E+02	0.000E+00	0.0
	-5	1	9	9	0	501	5.3544175157E+01	-7.4299254108E+00	4.9346942607E+01	7.3312861283E+01	4.1800000000E+00	0.000E+00	0.0
	5	1	9	9	501	0	2.8248797969E+01	-9.9142649578E+01	-3.9747767498E+01	1.1056498982E+02	4.1800000000E+00	0.000E+00	0.0
</event>
<event>
    11  -1  1.0000000E+00  1.0000000E+00  -1.0000000E+00  -1.0000000E+00
	2212	-1	0	0	0	0	0.0000000000E+00	0.0000000000E+00	6.5000000000E+03	6.5000000000E+03	9.3827000000E-01	0.000E+00	0.0
	2212	-1	0	0	0	0	0.0000000000E+00	0.0000000000E+00	-6.5000000000E+03	6.5000000000E+03	9.3827000000E-01	0.000E+00	0.0
	2212	1	0	0	0	0	0.0000000000E+00	0.0000000000E+00	6.2351811616E+03	6.2351811616E+03	9.3827000000E-01	0.000E+00	0.0
	2212	1	0	0	0	0	0.0000000000E+00	0.0000000000E+00	-5.4661669491E+03	5.4661669491E+03	9.3827000000E-01	0.000E+00	0.0
	51	2	1	2	0	0	-1.2232143343E+02	6.4092516536E+01	-7.3966155473E+02	1.2889078593E+03	1.0464768849E+03	0.000E+00	0.0
	1000022	2	5	5	0	0	1.2232143343E+02	-6.4092516536E+01	-6.6667205004E+02	1.0859998642E+03	8.4609319756E+02	0.000E+00	0.0
	14	1	6	6	0	0	1.7945443813E+02	-2.1546704070E+02	-1.5035364522E+02	4.5481992000E+02	3.2500000000E+02	0.000E+00	0.0
	-14	1	6	6	0	0	-5.7133004701E+01	1.5137452417E+02	-5.1631840482E+02	6.3117994419E+02	3.2500000000E+02	0.000E+00	0.0
	25	2	5	5	0	0	-1.2232143343E+02	6.4092516536E+01	-1.0234216249E+02	2.1265202514E+02	1.2520615727E+02	0.000E+00	0.0
	-5	1	9	9	0	501	-1.1070650961E+01	-2.0808599825E+01	1.6444224237E+01	2.9042073792E+01	4.1800000000E+00	0.000E+00	0.0
	5	1	9	9	501	0	-1.1125078247E+02	8.4901116361E+01	-1.1878638673E+02	1.8360995134E+02	4.1800000000E+00	0.000E+00	0.0
</event>
<event>
    11  -1  1.0000000E+00  1.0000000E+00  -1.0000000E+00  -1.0000000E+00
	2212	-1	0	0	0	0	0.0000000000E+00	0.0000000000E+00	6.5000000000E+03	6.5000000000E+03	9.3827000000E-01	0.000E+00	0.0
	2212	-1	0	0	0	0	0.0000000000E+00	0.0000000000E+00	-6.5000000000E+03	6.5000000000E+03	9.3827000000E-01	0.000E+00	0.0
	2212	1	0	0	0	0	0.0000000000E+00	0.0000000000E+00	5.6304039413E+03	5.6304039413E+03	9.3827000000E-01	0.000E+00	0.0
	2212	1	0	0	0	0	0.0000000000E+00	0.0000000000E+00	-6.1787841651E+03	6.1787841651E+03	9.3827000000E-01	0.000E+00	0.0
	51	2	1	2	0	0	-1.2673318973E+02	2.1068841336E+01	6.3791670763E+02	1.2412715332E+03	1.0570298463E+03	0.000E+00	0.0
	1000022	2	5	5	0	0	1.2673318973E+02	-2.1068841336E+01	3.6343369408E+02	9.3316860187E+02	8.4983197873E+02	0.000E+00	0.0
	14	1	6	6	0	0	7.2203266973E+01	-2.2228881585E+02	3.7268130104E+02	5.4693873657E+02	3.2500000000E+02	0.000E+00	0.0
	-14	1	6	6	0	0	5.4529922761E+01	2.0121997451E+02	-9.2476069608E+00	3.8622986531E+02	3.2500000000E+02	0.000E+00	0.0
	25	2	5	5	0	0	-1.2673318973E+02	2.1068841336E+01	1.8494652972E+02	2.5764329164E+02	1.2517847025E+02	0.000E+00	0.0
	-5	1	9	9	0	501	-9.2292044694E+01	-2.7067379588E+01	4.6283144675E+01	1.0681791251E+02	4.1800000000E+00	0.000E+00	0.0
	5	1	9	9	501	0	-3.4441145040E+01	4.8136220924E+01	1.3866338505E+02	1.5082537913E+02	4.1800000000E+00	0.000E+00	0.0
</event>
<event>
    11  -1  1.0000000E+00  1.0000000E+00  -1.0000000E+00  -1.0000000E+00
	2212	-1	0	0	0	0	0.0000000000E+00	0.0000000000E+00	6.5000000000E+03	6.5000000000E+03	9.3827000000E-01	0.000E+00	0.0
	2212	-1	0	0	0	0	0.0000000000E+00	0.0000000000E+00	-6.5000000000E+03	6.5000000000E+03	9.3827000000E-01	0.000E+00	0.0
	2212	1	0	0	0	0	0.0000000000E+00	0.0000000000E+00	5.5011808063E+03	5.5011808063E+03	9.3827000000E-01	0.000E+00	0.0
	2212	1	0	0	0	0	0.0000000000E+00	0.0000000000E+00	-6.2246337809E+03	6.2246337809E+03	9.3827000000E-01	0.000E+00	0.0
	51	2	1	2	0	0	8.3783925702E+01	-1.0662046884E+02	7.5331012256E+02	1.2984714364E+03	1.0488871530E+03	0.000E+00	0.0
	1000022	2	5	5	0	0	-8.3783925702E+01	1.0662046884E+02	5.7174285146E+02	1.0352851864E+03	8.5237190148E+02	0.000E+00	0.0
	14	1	6	6	0	0	-2.9788799563E+02	-4.7580921521E+01	2.6863418226E+02	5.1845011902E+02	3.2500000000E+02	0.000E+00	0.0
	-14	1	6	6	0	0	2.1410406992E+02	1.5420139036E+02	3.0310866921E+02	5.1683506740E+02	3.2500000000E+02	0.000E+00	0.0
	25	2	5	5	0	0	8.3783925702E+01	-1.0662046884E+02	1.5171012311E+02	2.3890022641E+02	1.2517861695E+02	0.000E+00	0.0
	-5	1	9	9	0	501	1.0989441822E+02	-1.0948364814E+02	1.4270015096E+02	2.1081806813E+02	4.1800000000E+00	0.000E+00	0.0
	5	1	9	9	501	0	-2.6110492518E+01	2.8631793043E+00	9.0099721503E+00	2.8082158276E+01	4.1800000000E+00	0.000E+00	0.0
</event>
<event>
    11  -1  1.0000000E+00  1.0000000E+00  -1.0000000E+00  -1.0000000E+00
	2212	-1	0	0	0	0	0.0000000000E+00	0.0000000000E+00	6.5000000000E+03	6.5000000000E+03	9.3827000000E-01	0.000E+00	0.0
	2212	-1	0	0	0	0	0.0000000000E+00	0.0000000000E+00	-6.5000000000E+03	6.5000000000E+03	9.3827000000E-01	0.000E+00	0.0
	2212	1	0	0	0	0	0.0000000000E+00	0.0000000000E+00	5.6795175551E+03	5.6795175551E+03	9.3827000000E-01	0.000E+00	0.0
	2212	1	0	0	0	0	0.0000000000E+00	0.0000000000E+00	-6.1613702970E+03	6.1613702970E+03	9.3827000000E-01	0.000E+00	0.0
	51	2	1	2	0	0	-5.8543695770E+01	7.3815429373E+01	4.9742696587E+02	1.1694736315E+03	1.0542100865E+03	0.000E+00	0.0
	1000022	2	5	5	0	0	5.8543695770E+01	-7.3815429373E+01	3.9639732771E+02	9.8064923104E+02	8.9200111603E+02	0.000E+00	0.0
	14	1	6	6	0	0	1.5419485071E+02	8.8182416333E+01	-7.5070772828E+01	3.7790582355E+02	3.2500000000E+02	0.000E+00	0.0
	-14	1	6	6	0	0	-9.5651154944E+01	-1.6199784571E+02	4.7146810054E+02	6.0274340750E+02	3.2500000000E+02	0.000E+00	0.0
	25	2	5	5	0	0	-5.8543695770E+01	7.3815429373E+01	8.5455414203E+01	1.7846291686E+02	1.2518108064E+02	0.000E+00	0.0
	-5	1	9	9	0	501	-1.9319614215E+00	8.4795369145E+01	8.5694919510E+01	1.2064443101E+02	4.1800000000E+00	0.000E+00	0.0
	5	1	9	9	501	0	-5.6611734349E+01	-1.0979939772E+01	-2.3950530699E-01	5.7818485851E+01	4.1800000000E+00	0.000E+00	0.0
</event>
<event>
    11  -1  1.0000000E+00  1.0000000E+00  -1.0000000E+00  -1.0000000E+00
	2212	-1	0	0	0	0	0.0000000000E+00	0.0000000000E+00	6.5000000000E+03	6.5000000000E+03	9.3827000000E-01	0.000E+00	0.0
	2212	-1	0	0	0	0	0.0000000000E+00	0.0000000000E+00	-6.5000000000E+03	6.5000000000E+03	9.3827000000E-01	0.000E+00	0.0
	2212	1	0	0	0	0	0.0000000000E+00	0.0000000000E+00	5.8281806523E+03	5.8281806523E+03	9.3827000000E-01	0.000E+00	0.0
	2212	1	0	0	0	0	0.0000000000E+00	0.0000000000E+00	-6.0934711008E+03	6.0934711008E+03	9.3827000000E-01	0.000E+00	0.0
	51	2	1	2	0	0	-3.3976420358E+01	9.6491968551E+01	1.7954340013E+02	1.0654373981E+03	1.0452061613E+03	0.000E+00	0.0
	1000022	2	5	5	0	0	3.3976420358E+01	-9.6491968551E+01	3.0679882880E+02	9.1143848663E+02	8.5213232330E+02	0.000E+00	0.0
	14	1	6	6	0	0	-1.2260579205E+02	-2.3134052884E+02	-2.7072736115E+00	4.1735230904E+02	3.2500000000E+02	0.000E+00	0.0
	-14	1	6	6	0	0	1.5658221241E+02	1.3484856029E+02	3.0950610241E+02	4.9408617759E+02	3.2500000000E+02	0.000E+00	0.0
	25	2	5	5	0	0	-3.3976420358E+01	9.6491968551E+01	-4.1508380359E+01	1.6690976030E+02	1.2518316704E+02	0.000E+00	0.0
	-5	1	9	9	0	501	-7.1943352733E+01	6.0528026946E+01	-5.9621752154E+01	1.1140787126E+02	4.1800000000E+00	0.000E+00	0.0
	5	1	9	9	501	0	3.7966932375E+01	3.5963941606E+01	1.8113371795E+01	5.5501889045E+01	4.1800000000E+00	0.000E+00	0.0
</event>
<event>
    11  -1  1.0000000E+00  1.0000000E+00  -1.0000000E+00  -1.0000000E+00
	2212	-1	0	0	0	0	0.0000000000E+00	0.0000000000E+00	6.5000000000E+03	6.5000000000E+03	9.3827000000E-01	0.000E+00	0.0
	2212	-1	0	0	0	0	0.0000000000E+00	0.0000000000E+00	-6.5000000000E+03	6.5000000000E+03	9.3827000000E-01	0.000E+00	0.0
	2212	1	0	0	0	0	0.0000000000E+00	0.0000000000E+00	6.3029433391E+03	6.3029433391E+03	9.3827000000E-01	0.000E+00	0.0
	2212	1	0	0	0	0	0.0000000000E+00	0.0000000000E+00	-5.0729852691E+03	5.0729852691E+03	9.3827000000E-01	0.000E+00	0.0
	51	2	1	2	0	0	6.1648782497E+01	1.2444411035E+02	-1.1202593573E+03	1.5488960484E+03	1.0605710877E+03	0.000E+00	0.0
	1000022	2	5	5	0	0	-6.1648782497E+01	-1.2444411035E+02	-1.1174781904E+03	1.4058758439E+03	8.4169024785E+02	0.000E+00	0.0
	14	1	6	6	0	0	-2.7435450721E+02	-1.7778956590E+02	-5.9861403628E+02	7.5554171943E+02	3.2500000000E+02	0.000E+00	0.0
	-14	1	6	6	0	0	2.1270572471E+02	5.3345455551E+01	-5.1886415412E+02	6.5033412442E+02	3.2500000000E+02	0.000E+00	0.0
	25	2	5	5	0	0	6.1648782497E+01	1.2444411035E+02	-1.1247987958E+02	2.1819554802E+02	1.2518252627E+02	0.000E+00	0.0
	-5	1	9	9	0	501	1.7693117641E+01	9.9189816090E+01	-1.2988317120E+02	1.6443471832E+02	4.1800000000E+00	0.000E+00	0.0
	5	1	9	9	501	0	4.3955664856E+01	2.5254294264E+01	1.7403291619E+01	5.3760829707E+01	4.1800000000E+00	0.000E+00	0.0
</event>
<event>
    11  -1  1.0000000E+00  1.0000000E+00  -1.0000000E+00  -1.0000000E+00
	2212	-1	0	0	0	0	0.0000000000E+00	0.0000000000E+00	6.5000000000E+03	6.5000000000E+03	9.3827000000E-01	0.000E+00	0.0
	2212	-1	0	0	0	0	0.0000000000E+00	0.0000000000E+00	-6.5000000000E+03	6.5000000000E+03	9.3827000000E-01	0.000E+00	0.0
	2212	1	0	0	0	0	0.0000000000E+00	0.0000000000E+00	5.3154057107E+03	5.3154057107E+03	9.3827000000E-01	0.000E+00	0.0
	2212	1	0	0	0	0	0.0000000000E+00	0.0000000000E+00	-6.2636946436E+03	6.2636946436E+03	9.3827000000E-01	0.000E+00	0.0
	51	2	1	2	0	0	-7.6253078026E+01	1.1784873009E+01	7.9383397272E+02	1.3250772409E+03	1.0581606225E+03	0.000E+00	0.0
	1000022	2	5	5	0	0	7.6253078026E+01	-1.1784873009E+01	9.4048376998E+02	1.2735943039E+03	8.5532409896E+02	0.000E+00	0.0
	14	1	6	6	0	0	1.8495657569E+02	1.0318043262E+02	7.9376894210E+02	8.8348699482E+02	3.2500000000E+02	0.000E+00	0.0
	-14	1	6	6	0	0	-1.0870349767E+02	-1.1496530563E+02	1.4671482789E+02	3.9010730912E+02	3.2500000000E+02	0.000E+00	0.0
	25	2	5	5	0	0	-7.6253078026E+01	1.1784873009E+01	7.8051629241E+00	1.4730534185E+02	1.2523788576E+02	0.000E+00	0.0
	-5	1	9	9	0	501	3.2257585472E+01	-1.3046421750E+01	-4.0628885184E+00	3.5280878731E+01	4.1800000000E+00	0.000E+00	0.0
	5	1	9	9	501	0	-1.0851066350E+02	2.4831294759E+01	1.1868051442E+01	1.1202446312E+02	4.1800000000E+00	0.000E+00	0.0
</event>
<event>
    11  -1  1.0000000E+00  1.0000000E+00  -1.0000000E+00  -1.0000000E+00
	2212	-1	0	0	0	0	0.0000000000E+00	0.0000000000E+00	6.5000000000E+03	6.5000000000E+03	9.3827000000E-01	0.000E+00	0.0
	2212	-1	0	0	0	0	0.0000000000E+00	0.0000000000E+00	-6.5000000000E+03	6.5000000000E+03	9.3827000000E-01	0.000E+00	0.0
	2212	1	0	0	0	0	0.0000000000E+00	0.0000000000E+00	6.3389342714E+03	6.3389342714E+03	9.3827000000E-01	0.000E+00	0.0
	2212	1	0	0	0	0	0.0000000000E+00	0.0000000000E+00	-4.8511260199E+03	4.8511260199E+03	9.3827000000E-01	0.000E+00	0.0
	51	2	1	2	0	0	-7.0704657747E+01	-2.7393557592E+01	-1.3396266398E+03	1.6919389603E+03	1.0306834410E+03	0.000E+00	0.0
	1000022	2	5	5	0	0	7.0704657747E+01	2.7393557592E+01	-1.3975723718E+03	1.6379022181E+03	8.5074413674E+02	0.000E+00	0.0
	14	1	6	6	0	0	-2.0270224050E+02	-7.7782355115E+00	-9.2695597824E+02	1.0030060243E+03	3.2500000000E+02	0.000E+00	0.0
	-14	1	6	6	0	0	2.7340689825E+02	3.5171793104E+01	-4.7061639352E+02	6.3489619379E+02	3.2500000000E+02	0.000E+00	0.0
	25	2	5	5	0	0	-7.0704657747E+01	-2.7393557592E+01	-9.0235879763E+01	1.7203749053E+02	1.2531890729E+02	0.000E+00	0.0
	-5	1	9	9	0	501	1.7918019859E+01	3.3321337464E+01	-1.5464410630E+01	4.1085123368E+01	4.1800000000E+00	0.000E+00	0.0
	5	1	9	9	501	0	-8.8622677606E+01	-6.0714895056E+01	-7.4771469134E+01	1.3095236716E+02	4.1800000000E+00	0.000E+00	0.0
</event>
<event>
    11  -1  1.0000000E+00  1.0000000E+00  -1.0000000E+00  -1.0000000E+00
	2212	-1	0	0	0	0	0.0000000000E+00	0.0000000000E+00	6.5000000000E+03	6.5000000000E+03	9.3827000000E-01	0.000E+00	0.0
	2212	-1	0	0	0	0	0.0000000000E+00	0.0000000000E+00	-6.5000000000E+03	6.5000000000E+03	9.3827000000E-01	0.000E+00	0.0
	2212	1	0	0	0	0	0.0000000000E+00	0.0000000000E+00	5.3226362441E+03	5.3226362441E+03	9.3827000000E-01	0.000E+00	0.0
	2212	1	0	0	0	0	0.0000000000E+00	0.0000000000E+00	-6.2664202742E+03	6.2664202742E+03	9.3827000000E-01	0.000E+00	0.0
	51	2	1	2	0	0	-2.8906389203E+01	-6.1498046055E+01	1.1096296655E+03	1.5283745603E+03	1.0488246817E+03	0.000E+00	0.0
	1000022	2	5	5	0	0	2.8906389203E+01	6.1498046055E+01	6.1968846864E+02	1.0569310511E+03	8.5350562955E+02	0.000E+00	0.0
	14	1	6	6	0	0	5.3326234090E+01	6.0975164063E+01	6.4835027718E+02	7.2975663053E+02	3.2500000000E+02	0.000E+00	0.0
	-14	1	6	6	0	0	-2.4419844887E+01	5.2288199205E-01	-2.8661808538E+01	3.2717442061E+02	3.2500000000E+02	0.000E+00	0.0
	25	2	5	5	0	0	-2.8906389203E+01	-6.1498046055E+01	3.2409556151E+02	3.5401243056E+02	1.2517699068E+02	0.000E+00	0.0
	-5	1	9	9	0	501	-3.1031709978E+01	-9.6275820353E-01	2.7261402093E+02	2.7440803694E+02	4.1800000000E+00	0.000E+00	0.0
	5	1	9	9	501	0	2.1253207752E+00	-6.0535287851E+01	5.1481540581E+01	7.9604393624E+01	4.1800000000E+00	0.000E+00	0.0
</event>
<event>
    11  -1  1.0000000E+00  1.0000000E+00  -1.0000000E+00  -1.0000000E+00
	2212	-1	0	0	0	0	0.0000000000E+00	0.0000000000E+00	6.5000000000E+03	6.5000000000E+03	9.3827000000E-01	0.000E+00	0.0
	2212	-1	0	0	0	0	0.0000000000E+00	0.0000000000E+00	-6.5000000000E+03	6.5000000000E+03	9.3827000000E-01	0.000E+00	0.0
	2212	1	0	0	0	0	0.0000000000E+00	0.0000000000E+00	6.2810807699E+03	6.2810807699E+03	9.3827000000E-01	0.000E+00	0.0
	2212	1	0	0	0	0	0.0000000000E+00	0.0000000000E+00	-5.2434165799E+03	5.2434165799E+03	9.3827000000E-01	0.000E+00	0.0
	51	2	1	2	0	0	-1.2604532697E+02	2.5051898946E+01	-1.1058155827E+03	1.5296091738E+03	1.0489809816E+03	0.000E+00	0.0
	1000022	2	5	5	0	0	1.2604532697E+02	-2.5051898946E+01	-7.9577364455E+02	1.1743483990E+03	8.5400435988E+02	0.000E+00	0.0
	14	1	6	6	0	0	-3.7179620607E+01	-1.2810430002E+02	-7.0182893765E+02	7.8484513988E+02	3.2500000000E+02	0.000E+00	0.0
	-14	1	6	6	0	0	1.6322494758E+02	1.0305240107E+02	-9.3944706900E+01	3.8950325908E+02	3.2500000000E+02	0.000E+00	0.0
	25	2	5	5	0	0	-1.2604532697E+02	2.5051898946E+01	-2.4189054538E+02	3.0115425124E+02	1.2517118278E+02	0.000E+00	0.0
	-5	1	9	9	0	501	-1.3593570224E+02	-1.2037384949E+01	-2.1270219494E+02	2.5275108290E+02	4.1800000000E+00	0.000E+00	0.0
	5	1	9	9	501	0	9.8903752647E+00	3.7089283895E+01	-2.9188350449E+01	4.8403168333E+01	4.1800000000E+00	0.000E+00	0.0
</event>
<event>
    11  -1  1.0000000E+00  1.0000000E+00  -1.0000000E+00  -1.0000000E+00
	2212	-1	0	0	0	0	0.0000000000E+00	0.0000000000E+00	6.5000000000E+03	6.5000000000E+03	9.3827000000E-01	0.000E+00	0.0
	2212	-1	0	0	0	0	0.0000000000E+00	0.0000000000E+00	-6.5000000000E+03	6.5000000000E+03	9.3827000000E-01	0.000E+00	0.0
	2212	1	0	0	0	0	0.0000000000E+00	0.0000000000E+00	5.8051943693E+03	5.8051943693E+03	9.3827000000E-01	0.000E+00	0.0
	2212	1	0	0	0	0	0.0000000000E+00	0.0000000000E+00	-6.1024717144E+03	6.1024717144E+03	9.3827000000E-01	0.000E+00	0.0
	51	2	1	2	0	0	-6.7432130038E+01	-1.2817989814E+02	2.9906393440E+02	1.1023774218E+03	1.0511039743E+03	0.000E+00	0.0
	1000022	2	5	5	0	0	6.7432130038E+01	1.2817989814E+02	2.4415952356E+02	8.9367581618E+02	8.4738740434E+02	0.000E+00	0.0
	14	1	6	6	0	0	7.8697180364E+01	2.3083673060E+02	3.5034512724E+02	5.3651239554E+02	3.2500000000E+02	0.000E+00	0.0
	-14	1	6	6	0	0	-1.1265050326E+01	-1.0265683246E+02	-1.0618560369E+02	3.5716342063E+02	3.2500000000E+02	0.000E+00	0.0
	25	2	5	5	0	0	-6.7432130038E+01	-1.2817989814E+02	5.3117821533E+01	1.9865810008E+02	1.2516532792E+02	0.000E+00	0.0
	-5	1	9	9	0	501	7.5657022318E+00	2.1730794099E+01	2.5656704316E+00	2.3527055218E+01	4.1800000000E+00	0.000E+00	0.0
	5	1	9	9	501	0	-7.4997832270E+01	-1.4991069224E+02	5.0552151102E+01	1.7513104486E+02	4.1800000000E+00	0.000E+00	0.0
</event>
<event>
    11  -1  1.0000000E+00  1.0000000E+00  -1.0000000E+00  -1.0000000E+00
	2212	-1	0	0	0	0	0.0000000000E+00	0.0000000000E+00	6.5000000000E+03	6.5000000000E+03	9.3827000000E-01	0.000E+00	0.0
	2212	-1	0	0	0	0	0.0000000000E+00	0.0000000000E+00	-6.5000000000E+03	6.5000000000E+03	9.3827000000E-01	0.000E+00	0.0
	2212	1	0	0	0	0	0.0000000000E+00	0.0000000000E+00	5.8391152710E+03	5.8391152710E+03	9.3827000000E-01	0.000E+00	0.0
	2212	1	0	0	0	0	0.0000000000E+00	0.0000000000E+00	-6.1175576876E+03	6.1175576876E+03	9.3827000000E-01	0.000E+00	0.0
	51	2	1	2	0	0	-1.2496356416E+01	-8.3956867272E+01	3.1941685290E+02	1.0584106841E+03	1.0054855225E+03	0.000E+00	0.0
	1000022	2	5	5	0	0	1.2496356416E+01	8.3956867272E+01	1.9544884682E+02	8.7079720667E+02	8.4432375837E+02	0.000E+00	0.0
	14	1	6	6	0	0	2.4354293364E+02	9.5664551049E+01	2.1890560993E+02	4.7117887571E+02	3.2500000000E+02	0.000E+00	0.0
	-14	1	6	6	0	0	-2.3104657723E+02	-1.1707683777E+01	-2.3456763105E+01	3.9961833097E+02	3.2500000000E+02	0.000E+00	0.0
	25	2	5	5	0	0	-1.2496356416E+01	-8.3956867272E+01	8.2993569751E+01	1.7252983470E+02	1.2519463549E+02	0.000E+00	0.0
	-5	1	9	9	0	501	5.1575912304E+01	-1.6873348915E+01	1.2238499462E+01	5.5785642442E+01	4.1800000000E+00	0.000E+00	0.0
	5	1	9	9	501	0	-6.4072268719E+01	-6.7083518357E+01	7.0755070289E+01	1.1674419226E+02	4.1800000000E+00	0.000E+00	0.0
</event>
<event>
    11  -1  1.0000000E+00  1.0000000E+00  -1.0000000E+00  -1.0000000E+00
	2212	-1	0	0	0	0	0.0000000000E+00	0.0000000000E+00	6.5000000000E+03	6.5000000000E+03	9.3827000000E-01	0.000E+00	0.0
	2212	-1	0	0	0	0	0.0000000000E+00	0.0000000000E+00	-6.5000000000E+03	6.5000000000E+03	9.3827000000E-01	0.000E+00	0.0
	2212	1	0	0	0	0	0.0000000000E+00	0.0000000000E+00	6.2529048940E+03	6.2529048940E+03	9.3827000000E-01	0.000E+00	0.0
	2212	1	0	0	0	0	0.0000000000E+00	0.0000000000E+00	-5.3771582381E+03	5.3771582381E+03	9.3827000000E-01	0.000E+00	0.0
	51	2	1	2	0	0	8.1160320267E+01	-1.3282754467E+02	-8.9427506401E+02	1.3905944272E+03	1.0534679951E+03	0.000E+00	0.0
	1000022	2	5	5	0	0	-8.1160320267E+01	1.3282754467E+02	-7.0058967473E+02	1.1042640916E+03	8.3925153402E+02	0.000E+00	0.0
	14	1	6	6	0	0	4.7716119105E+01	3.0381456063E+01	-1.7810012670E+01	3.3036655013E+02	3.2500000000E+02	0.000E+00	0.0
	-14	1	6	6	0	0	-1.2887643937E+02	1.0244608861E+02	-6.8277966206E+02	7.7389754142E+02	3.2500000000E+02	0.000E+00	0.0
	25	2	5	5	0	0	8.1160320267E+01	-1.3282754467E+02	-1.7515698125E+02	2.6567277636E+02	1.2518746665E+02	0.000E+00	0.0
	-5	1	9	9	0	501	3.8779374278E+01	-8.5710721343E+01	-1.7602487976E+01	9.5799204618E+01	4.1800000000E+00	0.000E+00	0.0
	5	1	9	9	501	0	4.2380945989E+01	-4.7116823332E+01	-1.5755449327E+02	1.6987357174E+02	4.1800000000E+00	0.000E+00	0.0
</event>
<event>
    11  -1  1.0000000E+00  1.0000000E+00  -1.0000000E+00  -1.0000000E+00
	2212	-1	0	0	0	0	0.0000000000E+00	0.0000000000E+00	6.5000000000E+03	6.5000000000E+03	9.3827000000E-01	0.000E+00	0.0
	2212	-1	0	0	0	0	0.0000000000E+00	0.0000000000E+00	-6.5000000000E+03	6.5000000000E+03	9.3827000000E-01	0.000E+00	0.0
	2212	1	0	0	0	0	0.0000000000E+00	0.0000000000E+00	5.8785461702E+03	5.8785461702E+03	9.3827000000E-01	0.000E+00	0.0
	2212	1	0	0	0	0	0.0000000000E+00	0.0000000000E+00	-6.0591886907E+03	6.0591886907E+03	9.3827000000E-01	0.000E+00	0.0
	51	2	1	2	0	0	5.2789792288E+01	-1.1656846744E+02	1.3809588890E+02	1.0635887127E+03	1.0467929621E+03	0.000E+00	0.0
	1000022	2	5	5	0	0	-5.2789792288E+01	1.1656846744E+02	1.9290150917E+02	8.8283561776E+02	8.5194645722E+02	0.000E+00	0.0
	14	1	6	6	0	0	-1.4332652747E+02	1.8997604676E+02	3.2048199299E+02	5.1474955042E+02	3.2500000000E+02	0.000E+00	0.0
	-14	1	6	6	0	0	9.0536735185E+01	-7.3407579323E+01	-1.2758048382E+02	3.6808606734E+02	3.2500000000E+02	0.000E+00	0.0
	25	2	5	5	0	0	5.2789792288E+01	-1.1656846744E+02	-1.2258988630E+01	1.7942952134E+02	1.2517867453E+02	0.000E+00	0.0
	-5	1	9	9	0	501	4.1038250239E-01	-7.7144750342E+01	-6.0333908859E+01	9.8026189752E+01	4.1800000000E+00	0.000E+00	0.0
	5	1	9	9	501	0	5.2379409785E+01	-3.9423717097E+01	4.8074920229E+01	8.1403331592E+01	4.1800000000E+00	0.000E+00	0.0
</event>
<event>
    11  -1  1.0000000E+00  1.0000000E+00  -1.0000000E+00  -1.0000000E+00
	2212	-1	0	0	0	0	0.0000000000E+00	0.0000000000E+00	6.5000000000E+03	6.5000000000E+03	9.3827000000E-01	0.000E+00	0.0
	2212	-1	0	0	0	0	0.0000000000E+00	0.0000000000E+00	-6.5000000000E+03	6.5000000000E+03	9.3827000000E-01	0.000E+00	0.0
	2212	1	0	0	0	0	0.0000000000E+00	0.0000000000E+00	5.1198546538E+03	5.1198546538E+03	9.3827000000E-01	0.000E+00	0.0
	2212	1	0	0	0	0	0.0000000000E+00	0.0000000000E+00	-6.3090674292E+03	6.3090674292E+03	9.3827000000E-01	0.000E+00	0.0
	51	2	1	2	0	0	-1.8193182413E+01	-5.6359538298E+01	1.3305635607E+03	1.6816556053E+03	1.0266736562E+03	0.000E+00	0.0
	1000022	2	5	5	0	0	1.8193182413E+01	5.6359538298E+01	8.6398605670E+02	1.2175803542E+03	8.5587535499E+02	0.000E+00	0.0
	14	1	6	6	0	0	-1.9024074792E+02	-1.4182940989E+02	5.5190473876E+02	6.8303071991E+02	3.2500000000E+02	0.000E+00	0.0
	-14	1	6	6	0	0	2.0843393033E+02	1.9818894818E+02	3.1208131795E+02	5.3454963428E+02	3.2500000000E+02	0.000E+00	0.0
	25	2	5	5	0	0	-1.8193182413E+01	-5.6359538298E+01	3.2522671862E+02	3.5349756283E+02	1.2522267758E+02	0.000E+00	0.0
	-5	1	9	9	0	501	4.1676536760E+01	-3.4595049643E+01	2.4510045349E+02	2.5104871216E+02	4.1800000000E+00	0.000E+00	0.0
	5	1	9	9	501	0	-5.9869719173E+01	-2.1764488656E+01	8.0126265128E+01	1.0244885067E+02	4.1800000000E+00	0.000E+00	0.0
</event>
<event>
    11  -1  1.0000000E+00  1.0000000E+00  -1.0000000E+00  -1.0000000E+00
	2212	-1	0	0	0	0	0.0000000000E+00	0.0000000000E+00	6.5000000000E+03	6.5000000000E+03	9.3827000000E-01	0.000E+00	0.0
	2212	-1	0	0	0	0	0.0000000000E+00	0.0000000000E+00	-6.5000000000E+03	6.5000000000E+03	9.3827000000E-01	0.000E+00	0.0
	2212	1	0	0	0	0	0.0000000000E+00	0.0000000000E+00	5.4516294444E+03	5.4516294444E+03	9.3827000000E-01	0.000E+00	0.0
	2212	1	0	0	0	0	0.0000000000E+00	0.0000000000E+00	-6.2339493199E+03	6.2339493199E+03	9.3827000000E-01	0.000E+00	0.0
	51	2	1	2	0	0	1.3848775840E+02	6.0507253571E+00	7.5771712806E+02	1.3072985558E+03	1.0562569750E+03	0.000E+00	0.0
	1000022	2	5	5	0	0	-1.3848775840E+02	-6.0507253571E+00	6.7425089644E+02	1.0986344127E+03	8.5625220056E+02	0.000E+00	0.0
	14	1	6	6	0	0	1.3095619192E+00	2.6035356218E+02	2.5209088776E+02	4.8678589542E+02	3.2500000000E+02	0.000E+00	0.0
	-14	1	6	6	0	0	-1.3979732032E+02	-2.6640428754E+02	4.2216000868E+02	6.1184851730E+02	3.2500000000E+02	0.000E+00	0.0
	25	2	5	5	0	0	1.3848775840E+02	6.0507253571E+00	1.0806897899E+02	2.1578682297E+02	1.2517818597E+02	0.000E+00	0.0
	-5	1	9	9	0	501	4.8186400610E+01	-1.0960210592E+01	-2.3797433909E+01	5.5007687468E+01	4.1800000000E+00	0.000E+00	0.0
	5	1	9	9	501	0	9.0301357793E+01	1.7010935949E+01	1.3186641290E+02	1.6077913550E+02	4.1800000000E+00	0.000E+00	0.0
</event>
<event>
    11  -1  1.0000000E+00  1.0000000E+00  -1.0000000E+00  -1.0000000E+00
	2212	-1	0	0	0	0	0.0000000000E+00	0.0000000000E+00	6.5000000000E+03	6.5000000000E+03	9.3827000000E-01	0.000E+00	0.0
	2212	-1	0	0	0	0	0.0000000000E+00	0.0000000000E+00	-6.5000000000E+03	6.5000000000E+03	9.3827000000E-01	0.000E+00	0.0
	2212	1	0	0	0	0	0.0000000000E+00	0.0000000000E+00	5.9516579700E+03	5.9516579700E+03	9.3827000000E-01	0.000E+00	0.0
	2212	1	0	0	0	0	0.0000000000E+00	0.0000000000E+00	-5.9975739169E+03	5.9975739169E+03	9.3827000000E-01	0.000E+00	0.0
	51	2	1	2	0	0	6.9621470258E+01	1.2295969967E+02	7.6782159300E+01	1.0620108710E+03	1.0497644276E+03	0.000E+00	0.0
	1000022	2	5	5	0	0	-6.9621470258E+01	-1.2295969967E+02	7.1195841735E+00	8.5804703396E+02	8.4630242062E+02	0.000E+00	0.0
	14	1	6	6	0	0	-2.3542301476E+02	5.7359989828E+00	-1.6583957517E+02	4.3426335587E+02	3.2500000000E+02	0.000E+00	0.0
	-14	1	6	6	0	0	1.6580154450E+02	-1.2869569866E+02	1.7295915934E+02	4.2378367808E+02	3.2500000000E+02	0.000E+00	0.0
	25	2	5	5	0	0	6.9621470258E+01	1.2295969967E+02	3.8796362657E+01	1.9272107916E+02	1.2517994940E+02	0.000E+00	0.0
	-5	1	9	9	0	501	4.1701888221E+01	1.4208359592E+02	1.0670679445E+01	1.4851980175E+02	4.1800000000E+00	0.000E+00	0.0
	5	1	9	9	501	0	2.7919582037E+01	-1.9123896246E+01	2.8125683212E+01	4.4201277412E+01	4.1800000000E+00	0.000E+00	0.0
</event>
<event>
    11  -1  1.0000000E+00  1.0000000E+00  -1.0000000E+00  -1.0000000E+00
	2212	-1	0	0	0	0	0.0000000000E+00	0.0000000000E+00	6.5000000000E+03	6.5000000000E+03	9.3827000000E-01	0.000E+00	0.0
	2212	-1	0	0	0	0	0.0000000000E+00	0.0000000000E+00	-6.5000000000E+03	6.5000000000E+03	9.3827000000E-01	0.000E+00	0.0
	2212	1	0	0	0	0	0.0000000000E+00	0.0000000000E+00	5.6359642800E+03	5.6359642800E+03	9.3827000000E-01	0.000E+00	0.0
	2212	1	0	0	0	0	0.0000000000E+00	0.0000000000E+00	-6.1855590528E+03	6.1855590528E+03	9.3827000000E-01	0.000E+00	0.0
	51	2	1	2	0	0	-9.6227394660E+01	2.3236704235E+01	6.5528496115E+02	1.2352938424E+03	1.0424743838E+03	0.000E+00	0.0
	1000022	2	5	5	0	0	9.6227394660E+01	-2.3236704235E+01	3.5192203635E+02	9.2442456186E+02	8.4906536557E+02	0.000E+00	0.0
	14	1	6	6	0	0	2.1487473731E+02	-5.4100383266E+01	4.1455300028E+02	5.7146932923E+02	3.2500000000E+02	0.000E+00	0.0
	-14	1	6	6	0	0	-1.1864734265E+02	3.0863679032E+01	-6.2630963936E+01	3.5295523264E+02	3.2500000000E+02	0.000E+00	0.0
	25	2	5	5	0	0	-9.6227394660E+01	2.3236704235E+01	1.9767273640E+02	2.5405210535E+02	1.2517310258E+02	0.000E+00	0.0
	-5	1	9	9	0	501	-7.2680989010E+01	5.5060940180E+01	5.6443992794E+01	1.0732022186E+02	4.1800000000E+00	0.000E+00	0.0
	5	1	9	9	501	0	-2.3546405650E+01	-3.1824235946E+01	1.4122874360E+02	1.4673188349E+02	4.1800000000E+00	0.000E+00	0.0
</event>
<event>
    11  -1  1.0000000E+00  1.0000000E+00  -1.0000000E+00  -1.0000000E+00
	2212	-1	0	0	0	0	0.0000000000E+00	0.0000000000E+00	6.5000000000E+03	6.5000000000E+03	9.3827000000E-01	0.000E+00	0.0
	2212	-1	0	0	0	0	0.0000000000E+00	0.0000000000E+00	-6.5000000000E+03	6.5000000000E+03	9.3827000000E-01	0.000E+00	0.0
	2212	1	0	0	0	0	0.0000000000E+00	0.0000000000E+00	6.0053719890E+03	6.0053719890E+03	9.3827000000E-01	0.000E+00	0.0
	2212	1	0	0	0	0	0.0000000000E+00	0.0000000000E+00	-5.9396328524E+03	5.9396328524E+03	9.3827000000E-01	0.000E+00	0.0
	51	2	1	2	0	0	5.9876332226E+01	7.7835013924E+01	-1.1744512439E+02	1.0640159643E+03	1.0529449893E+03	0.000E+00	0.0
	1000022	2	5	5	0	0	-5.9876332226E+01	-7.7835013924E+01	-3.9601287384E+00	8.8432045738E+02	8.7884214975E+02	0.000E+00	0.0
	14	1	6	6	0	0	-3.9075077153E+01	2.5705675225E+02	1.8832767601E+01	4.1663498253E+02	3.2500000000E+02	0.000E+00	0.0
	-14	1	6	6	0	0	-2.0801255073E+01	-3.3489176617E+02	-2.2792896340E+01	4.6768547485E+02	3.2500000000E+02	0.000E+00	0.0
	25	2	5	5	0	0	5.9876332226E+01	7.7835013924E+01	-6.1779007916E+01	1.7067470118E+02	1.2517884506E+02	0.000E+00	0.0
	-5	1	9	9	0	501	3.2138338977E+01	-1.7820486758E+01	-6.0587070647E+01	7.0983858096E+01	4.1800000000E+00	0.000E+00	0.0
	5	1	9	9	501	0	2.7737993249E+01	9.5655500682E+01	-1.1919372690E+00	9.9690843083E+01	4.1800000000E+00	0.000E+00	0.0
</event>
<event>
    11  -1  1.0000000E+00  1.0000000E+00  -1.0000000E+00  -1.0000000E+00
	2212	-1	0	0	0	0	0.0000000000E+00	0.0000000000E+00	6.5000000000E+03	6.5000000000E+03	9.3827000000E-01	0.000E+00	0.0
	2212	-1	0	0	0	0	0.0000000000E+00	0.0000000000E+00	-6.5000000000E+03	6.5000000000E+03	9.3827000000E-01	0.000E+00	0.0
	2212	1	0	0	0	0	0.0000000000E+00	0.0000000000E+00	5.5409834396E+03	5.5409834396E+03	9.3827000000E-01	0.000E+00	0.0
	2212	1	0	0	0	0	0.0000000000E+00	0.0000000000E+00	-6.2112054394E+03	6.2112054394E+03	9.3827000000E-01	0.000E+00	0.0
	51	2	1	2	0	0	-1.3730680339E+02	-8.2577845840E+00	6.2861548673E+02	1.2336587228E+03	1.0525374411E+03	0.000E+00	0.0
	1000022	2	5	5	0	0	1.3730680339E+02	8.2577845840E+00	5.9681967321E+02	1.0478414686E+03	8.5020978100E+02	0.000E+00	0.0
	14	1	6	6	0	0	-1.4473836160E+02	1.2822224714E+02	1.2550706199E+02	3.9845597070E+02	3.2500000000E+02	0.000E+00	0.0
	-14	1	6	6	0	0	2.8204516499E+02	-1.1996446256E+02	4.7131261122E+02	6.4938549788E+02	3.2500000000E+02	0.000E+00	0.0
	25	2	5	5	0	0	-1.3730680339E+02	-8.2577845840E+00	7.3402326545E+01	1.9996965245E+02	1.2521426076E+02	0.000E+00	0.0
	-5	1	9	9	0	501	-4.4405365542E+01	-2.4721590391E+01	-3.0611682242E+01	5.9477231023E+01	4.1800000000E+00	0.000E+00	0.0
	5	1	9	9	501	0	-9.2901437847E+01	1.6463805807E+01	1.0401400879E+02	1.4049242143E+02	4.1800000000E+00	0.000E+00	0.0
</event>
<event>
    11  -1  1.0000000E+00  1.0000000E+00  -1.0000000E+00  -1.0000000E+00
	2212	-1	0	0	0	0	0.0000000000E+00	0.0000000000E+00	6.5000000000E+03	6.5000000000E+03	9.3827000000E-01	0.000E+00	0.0
	2212	-1	0	0	0	0	0.0000000000E+00	0.0000000000E+00	-6.5000000000E+03	6.5000000000E+03	9.3827000000E-01	0.000E+00	0.0
	2212	1	0	0	0	0	0.0000000000E+00	0.0000000000E+00	6.3288140581E+03	6.3288140581E+03	9.3827000000E-01	0.000E+00	0.0
	2212	1	0	0	0	0	0.0000000000E+00	0.0000000000E+00	-4.8745503584E+03	4.8745503584E+03	9.3827000000E-01	0.000E+00	0.0
	51	2	1	2	0	0	2.0264224342E+01	-2.0638050631E+01	-1.7155225375E+03	2.0141674846E+03	1.0549959769E+03	0.000E+00	0.0
	1000022	2	5	5	0	0	-2.0264224342E+01	2.0638050631E+01	-9.4011187436E+02	1.2666730410E+03	8.4841834528E+02	0.000E+00	0.0
	14	1	6	6	0	0	-1.5373045570E+02	-2.0669819083E+02	-5.8936581930E+02	7.2064850244E+02	3.2500000000E+02	0.000E+00	0.0
	-14	1	6	6	0	0	1.3346623136E+02	2.2733624146E+02	-3.5074605506E+02	5.4602453858E+02	3.2500000000E+02	0.000E+00	0.0
	25	2	5	5	0	0	2.0264224342E+01	-2.0638050631E+01	-5.1415182534E+02	5.2996254240E+02	1.2518637674E+02	0.000E+00	0.0
	-5	1	9	9	0	501	5.2042294147E+00	1.8437902152E+00	-4.9825185444E+02	4.9829997634E+02	4.1800000000E+00	0.000E+00	0.0
	5	1	9	9	501	0	1.5059994927E+01	-2.2481840846E+01	-1.5899970908E+01	3.1662566066E+01	4.1800000000E+00	0.000E+00	0.0
</event>
<event>
    11  -1  1.0000000E+00  1.0000000E+00  -1.0000000E+00  -1.0000000E+00
	2212	-1	0	0	0	0	0.0000000000E+00	0.0000000000E+00	6.5000000000E+03	6.5000000000E+03	9.3827000000E-01	0.000E+00	0.0
	2212	-1	0	0	0	0	0.0000000000E+00	0.0000000000E+00	-6.5000000000E+03	6.5000000000E+03	9.3827000000E-01	0.000E+00	0.0
	2212	1	0	0	0	0	0.0000000000E+00	0.0000000000E+00	4.9376683259E+03	4.9376683259E+03	9.3827000000E-01	0.000E+00	0.0
	2212	1	0	0	0	0	0.0000000000E+00	0.0000000000E+00	-6.3259946758E+03	6.3259946758E+03	9.3827000000E-01	0.000E+00	0.0
	51	2	1	2	0	0	-6.9854697483E+01	-5.8144851372E+01	1.5022494685E+03	1.8309642504E+03	1.0427924616E+03	0.000E+00	0.0
	1000022	2	5	5	0	0	6.9854697483E+01	5.8144851372E+01	1.0595023801E+03	1.3729398718E+03	8.6842276316E+02	0.000E+00	0.0
	14	1	6	6	0	0	2.4095467366E+02	1.9159091723E+02	3.7159221791E+02	5.8178347410E+02	3.2500000000E+02	0.000E+00	0.0
	-14	1	6	6	0	0	-1.7109997617E+02	-1.3344606586E+02	6.8791016220E+02	7.9115639769E+02	3.2500000000E+02	0.000E+00	0.0
	25	2	5	5	0	0	-6.9854697483E+01	-5.8144851372E+01	3.2882396979E+02	3.6339712656E+02	1.2518692416E+02	0.000E+00	0.0
	-5	1	9	9	0	501	2.4147742008E+01	-2.0342397152E+01	1.8318140901E+02	1.8592963070E+02	4.1800000000E+00	0.000E+00	0.0
	5	1	9	9	501	0	-9.4002439491E+01	-3.7802454220E+01	1.4564256078E+02	1.7746749586E+02	4.1800000000E+00	0.000E+00	0.0
</event>
<event>
    11  -1  1.0000000E+00  1.0000000E+00  -1.0000000E+00  -1.0000000E+00
	2212	-1	0	0	0	0	0.0000000000E+00	0.0000000000E+00	6.5000000000E+03	6.5000000000E+03	9.3827000000E-01	0.000E+00	0.0
	2212	-1	0	0	0	0	0.0000000000E+00	0.0000000000E+00	-6.5000000000E+03	6.5000000000E+03	9.3827000000E-01	0.000E+00	0.0
	2212	1	0	0	0	0	0.0000000000E+00	0.0000000000E+00	5.9849270591E+03	5.9849270591E+03	9.3827000000E-01	0.000E+00	0.0
	2212	1	0	0	0	0	0.0000000000E+00	0.0000000000E+00	-5.9363861894E+03	5.9363861894E+03	9.3827000000E-01	0.000E+00	0.0
	51	2	1	2	0	0	2.2463321655E+01	1.3254645779E+02	4.4970733513E+01	1.0868782926E+03	1.0775940292E+03	0.000E+00	0.0
	1000022	2	5	5	0	0	-2.2463321655E+01	-1.3254645779E+02	-1.3331778845E+02	8.7639097355E+02	8.5569523868E+02	0.000E+00	0.0
	14	1	6	6	0	0	-2.6645606019E+02	2.5554556670E+01	-2.2324414292E+00	4.2104851404E+02	3.2500000000E+02	0.000E+00	0.0
	-14	1	6	6	0	0	2.4399273853E+02	-1.5810101446E+02	-1.3108534702E+02	4.5534245951E+02	3.2500000000E+02	0.000E+00	0.0
	25	2	5	5	0	0	2.2463321655E+01	1.3254645779E+02	8.4776918718E+01	2.0229577795E+02	1.2515307243E+02	0.000E+00	0.0
	-5	1	9	9	0	501	-2.3434195790E+00	1.4688364153E+02	9.0760537275E+01	1.7272881431E+02	4.1800000000E+00	0.000E+00	0.0
	5	1	9	9	501	0	2.4806741234E+01	-1.4337183741E+01	-5.9836185568E+00	2.9566963647E+01	4.1800000000E+00	0.000E+00	0.0
</event>
<event>
    11  -1  1.0000000E+00  1.0000000E+00  -1.0000000E+00  -1.0000000E+00
	2212	-1	0	0	0	0	0.0000000000E+00	0.0000000000E+00	6.5000000000E+03	6.5000000000E+03	9.3827000000E-01	0.000E+00	0.0
	2212	-1	0	0	0	0	0.0000000000E+00	0.0000000000E+00	-6.5000000000E+03	6.5000000000E+03	9.3827000000E-01	0.000E+00	0.0
	2212	1	0	0	0	0	0.0000000000E+00	0.0000000000E+00	4.9495749667E+03	4.9495749667E+03	9.3827000000E-01	0.000E+00	0.0
	2212	1	0	0	0	0	0.0000000000E+00	0.0000000000E+00	-6.3199028112E+03	6.3199028112E+03	9.3827000000E-01	0.000E+00	0.0
	51	2	1	2	0	0	-8.6532563749E+01	-4.3202551066E+01	1.5705531651E+03	1.8954947505E+03	1.0568390415E+03	0.000E+00	0.0
	1000022	2	5	5	0	0	8.6532563749E+01	4.3202551066E+01	9.3094835160E+02	1.2635332008E+03	8.4882092994E+02	0.000E+00	0.0
	14	1	6	6	0	0	4.0991464972E+01	1.1899836079E+02	8.4775065743E+02	9.1659537815E+02	3.2500000000E+02	0.000E+00	0.0
	-14	1	6	6	0	0	4.5541098777E+01	-7.5795809725E+01	8.3197694166E+01	3.4693782262E+02	3.2500000000E+02	0.000E+00	0.0
	25	2	5	5	0	0	-8.6532563749E+01	-4.3202551066E+01	4.3937949292E+02	4.6698902128E+02	1.2518011899E+02	0.000E+00	0.0
	-5	1	9	9	0	501	-8.2853980867E+01	-8.3367620258E+01	3.3069840502E+02	3.5098981429E+02	4.1800000000E+00	0.000E+00	0.0
	5	1	9	9	501	0	-3.6785828814E+00	4.0165069192E+01	1.0868108789E+02	1.1599920698E+02	4.1800000000E+00	0.000E+00	0.0
</event>
<event>
    11  -1  1.0000000E+00  1.0000000E+00  -1.0000000E+00  -1.0000000E+00
	2212	-1	0	0	0	0	0.0000000000E+00	0.0000000000E+00	6.5000000000E+03	6.5000000000E+03	9.3827000000E-01	0.000E+00	0.0
	2212	-1	0	0	0	0	0.0000000000E+00	0.0000000000E+00	-6.5000000000E+03	6.5000000000E+03	9.3827000000E-01	0.000E+00	0.0
	2212	1	0	0	0	0	0.0000000000E+00	0.0000000000E+00	5.6749417963E+03	5.6749417963E+03	9.3827000000E-01	0.000E+00	0.0
	2212	1	0	0	0	0	0.0000000000E+00	0.0000000000E+00	-6.1638710341E+03	6.1638710341E+03	9.3827000000E-01	0.000E+00	0.0
	51	2	1	2	0	0	-6.3389040709E+01	4.7227201872E+01	3.5221561321E+02	1.1133769625E+03	1.0532349421E+03	0.000E+00	0.0
	1000022	2	5	5	0	0	6.3389040709E+01	-4.7227201872E+01	5.3962335094E+02	1.0047045157E+03	8.4379453887E+02	0.000E+00	0.0
	14	1	6	6	0	0	1.9610502839E+02	-2.1394865390E+02	1.6800623604E+02	4.6699283079E+02	3.2500000000E+02	0.000E+00	0.0
	-14	1	6	6	0	0	-1.3271598769E+02	1.6672145202E+02	3.7161711490E+02	5.3771168487E+02	3.2500000000E+02	0.000E+00	0.0
	25	2	5	5	0	0	-6.3389040709E+01	4.7227201872E+01	-5.0694113234E+01	1.5648265394E+02	1.2517327506E+02	0.000E+00	0.0
	-5	1	9	9	0	501	-5.6756844078E+00	6.0744149374E+01	-7.0983445758E+01	9.3691979637E+01	4.1800000000E+00	0.000E+00	0.0
	5	1	9	9	501	0	-5.7713356301E+01	-1.3516947502E+01	2.0289332524E+01	6.2790674304E+01	4.1800000000E+00	0.000E+00	0.0
</event>
<event>
    11  -1  1.0000000E+00  1.0000000E+00  -1.0000000E+00  -1.0000000E+00
	2212	-1	0	0	0	0	0.0000000000E+00	0.0000000000E+00	6.5000000000E+03	6.5000000000E+03	9.3827000000E-01	0.000E+00	0.0
	2212	-1	0	0	0	0	0.0000000000E+00	0.0000000000E+00	-6.5000000000E+03	6.5000000000E+03	9.3827000000E-01	0.000E+00	0.0
	2212	1	0	0	0	0	0.0000000000E+00	0.0000000000E+00	6.0128217890E+03	6.0128217890E+03	9.3827000000E-01	0.000E+00	0.0
	2212	1	0	0	0	0	0.0000000000E+00	0.0000000000E+00	-5.9497031294E+03	5.9497031294E+03	9.3827000000E-01	0.000E+00	0.0
	51	2	1	2	0	0	-6.1718586762E+01	6.4646305181E+01	2.5867093663E+01	1.0397249709E+03	1.0355532723E+03	0.000E+00	0.0
	1000022	2	5	5	0	0	6.1718586762E+01	-6.4646305181E+01	-1.4173197866E+02	8.6473452925E+02	8.4834516771E+02	0.000E+00	0.0
	14	1	6	6	0	0	-1.9771794530E+02	-8.9392981576E+01	-2.0835356661E+02	4.4285403889E+02	3.2500000000E+02	0.000E+00	0.0
	-14	1	6	6	0	0	2.5943653206E+02	2.4746676394E+01	6.6621587948E+01	4.2188049035E+02	3.2500000000E+02	0.000E+00	0.0
	25	2	5	5	0	0	-6.1718586762E+01	6.4646305181E+01	7.8613319002E+01	1.7274055239E+02	1.2518352843E+02	0.000E+00	0.0
	-5	1	9	9	0	501	2.8356757808E+01	2.8630393687E+01	6.2250742572E+01	7.4272690182E+01	4.1800000000E+00	0.000E+00	0.0
	5	1	9	9	501	0	-9.0075344570E+01	3.6015911494E+01	1.6362576430E+01	9.8467862207E+01	4.1800000000E+00	0.000E+00	0.0
</event>
<event>
    11  -1  1.0000000E+00  1.0000000E+00  -1.0000000E+00  -1.0000000E+00
	2212	-1	0	0	0	0	0.0000000000E+00	0.0000000000E+00	6.5000000000E+03	6.5000000000E+03	9.3827000000E-01	0.000E+00	0.0
	2212	-1	0	0	0	0	0.0000000000E+00	0.0000000000E+00	-6.5000000000E+03	6.5000000000E+03	9.3827000000E-01	0.000E+00	0.0
	2212	1	0	0	0	0	0.0000000000E+00	0.0000000000E+00	5.2440888206E+03	5.2440888206E+03	9.3827000000E-01	0.000E+00	0.0
	2212	1	0	0	0	0	0.0000000000E+00	0.0000000000E+00	-6.3316856883E+03	6.3316856883E+03	9.3827000000E-01	0.000E+00	0.0
	51	2	1	2	0	0	7.8157793153E+01	-1.2835089403E+01	1.1101141490E+03	1.4436682815E+03	9.1953863595E+02	0.000E+00	0.0
	1000022	2	5	5	0	0	-7.8157793153E+01	1.2835089403E+01	8.9343826852E+02	1.1800156502E+03	7.6676698862E+02	0.000E+00	0.0
	14	1	6	6	0	0	-1.3015863664E+02	-1.2205532618E+02	6.5221778192E+02	7.5023450226E+02	3.2500000000E+02	0.000E+00	0.0
	-14	1	6	6	0	0	5.2000843483E+01	1.3489041558E+02	2.4122048661E+02	4.2978114791E+02	3.2500000000E+02	0.000E+00	0.0
	25	2	5	5	0	0	7.8157793153E+01	-1.2835089403E+01	1.9415859918E+02	2.4420984097E+02	1.2516990310E+02	0.000E+00	0.0
	-5	1	9	9	0	501	7.4128957293E+01	3.5285498861E+01	6.0597642615E+01	1.0212597823E+02	4.1800000000E+00	0.000E+00	0.0
	5	1	9	9	501	0	4.0288358601E+00	-4.8120588264E+01	1.3356095656E+02	1.4208386274E+02	4.1800000000E+00	0.000E+00	0.0
</event>
<event>
    11  -1  1.0000000E+00  1.0000000E+00  -1.0000000E+00  -1.0000000E+00
	2212	-1	0	0	0	0	0.0000000000E+00	0.0000000000E+00	6.5000000000E+03	6.5000000000E+03	9.3827000000E-01	0.000E+00	0.0
	2212	-1	0	0	0	0	0.0000000000E+00	0.0000000000E+00	-6.5000000000E+03	6.5000000000E+03	9.3827000000E-01	0.000E+00	0.0
	2212	1	0	0	0	0	0.0000000000E+00	0.0000000000E+00	5.7068845313E+03	5.7068845313E+03	9.3827000000E-01	0.000E+00	0.0
	2212	1	0	0	0	0	0.0000000000E+00	0.0000000000E+00	-6.1422740824E+03	6.1422740824E+03	9.3827000000E-01	0.000E+00	0.0
	51	2	1	2	0	0	-2.6108079136E+01	1.4731215091E+02	4.8897957061E+02	1.1816748104E+03	1.0653036353E+03	0.000E+00	0.0
	1000022	2	5	5	0	0	2.6108079136E+01	-1.4731215091E+02	3.0461292224E+02	9.1598481968E+02	8.5079765861E+02	0.000E+00	0.0
	14	1	6	6	0	0	7.9024326503E+01	1.8061491415E+02	2.3282399638E+02	4.4575621665E+02	3.2500000000E+02	0.000E+00	0.0
	-14	1	6	6	0	0	-5.2916247367E+01	-3.2792706506E+02	7.1788925855E+01	4.7022860303E+02	3.2500000000E+02	0.000E+00	0.0
	25	2	5	5	0	0	-2.6108079136E+01	1.4731215091E+02	1.3077662886E+02	2.3485656671E+02	1.2519017001E+02	0.000E+00	0.0
	-5	1	9	9	0	501	4.4082982991E+01	9.8085754265E+01	8.7660718957E+01	1.3880201233E+02	4.1800000000E+00	0.000E+00	0.0
	5	1	9	9	501	0	-7.0191062127E+01	4.9226396646E+01	4.3115909907E+01	9.6054554376E+01	4.1800000000E+00	0.000E+00	0.0
</event>
<event>
    11  -1  1.0000000E+00  1.0000000E+00  -1.0000000E+00  -1.0000000E+00
	2212	-1	0	0	0	0	0.0000000000E+00	0.0000000000E+00	6.5000000000E+03	6.5000000000E+03	9.3827000000E-01	0.000E+00	0.0
	2212	-1	0	0	0	0	0.0000000000E+00	0.0000000000E+00	-6.5000000000E+03	6.5000000000E+03	9.3827000000E-01	0.000E+00	0.0
	2212	1	0	0	0	0	0.0000000000E+00	0.0000000000E+00	6.2579150110E+03	6.2579150110E+03	9.3827000000E-01	0.000E+00	0.0
	2212	1	0	0	0	0	0.0000000000E+00	0.0000000000E+00	-5.3956114448E+03	5.3956114448E+03	9.3827000000E-01	0.000E+00	0.0
	51	2	1	2	0	0	6.6355774923E+01	1.0219368545E+02	-8.2179632787E+02	1.3265064672E+03	1.0341293753E+03	0.000E+00	0.0
	1000022	2	5	5	0	0	-6.6355774923E+01	-1.0219368545E+02	-7.6055593815E+02	1.1443118702E+03	8.4626100165E+02	0.000E+00	0.0
	14	1	6	6	0	0	-9.1083925431E+00	-3.1047773949E+02	-2.9907754426E+02	5.3995533798E+02	3.2500000000E+02	0.000E+00	0.0
	-14	1	6	6	0	0	-5.7247382380E+01	2.0828405404E+02	-4.6147839389E+02	6.0435653217E+02	3.2500000000E+02	0.000E+00	0.0
	25	2	5	5	0	0	6.6355774923E+01	1.0219368545E+02	-1.0174762804E+02	2.0216167399E+02	1.2518036750E+02	0.000E+00	0.0
	-5	1	9	9	0	501	2.5289678232E+01	5.9974040574E+01	1.8844652143E+01	6.7889960099E+01	4.1800000000E+00	0.000E+00	0.0
	5	1	9	9	501	0	4.1066096690E+01	4.2219644873E+01	-1.2059228018E+02	1.3427171389E+02	4.1800000000E+00	0.000E+00	0.0
</event>
<event>
    11  -1  1.0000000E+00  1.0000000E+00  -1.0000000E+00  -1.0000000E+00
	2212	-1	0	0	0	0	0.0000000000E+00	0.0000000000E+00	6.5000000000E+03	6.5000000000E+03	9.3827000000E-01	0.000E+00	0.0
	2212	-1	0	0	0	0	0.0000000000E+00	0.0000000000E+00	-6.5000000000E+03	6.5000000000E+03	9.3827000000E-01	0.000E+00	0.0
	2212	1	0	0	0	0	0.0000000000E+00	0.0000000000E+00	6.3011580410E+03	6.3011580410E+03	9.3827000000E-01	0.000E+00	0.0
	2212	1	0	0	0	0	0.0000000000E+00	0.0000000000E+00	-5.1188753610E+03	5.1188753610E+03	9.3827000000E-01	0.000E+00	0.0
	51	2	1	2	0	0	-1.2056780748E+02	6.0079141947E+01	-1.2690843384E+03	1.6514306745E+03	1.0480945165E+03	0.000E+00	0.0
	1000022	2	5	5	0	0	1.2056780748E+02	-6.0079141947E+01	-8.9150997117E+02	1.2359218163E+03	8.4532041728E+02	0.000E+00	0.0
	14	1	6	6	0	0	4.8844698006E+01	1.0650880957E+02	-9.7439108515E+01	3.5895586206E+02	3.2500000000E+02	0.000E+00	0.0
	-14	1	6	6	0	0	7.1723109470E+01	-1.6658795151E+02	-7.9407086265E+02	8.7696595426E+02	3.2500000000E+02	0.000E+00	0.0
	25	2	5	5	0	0	-1.2056780748E+02	6.0079141947E+01	-2.9077270878E+02	3.4404478167E+02	1.2518763567E+02	0.000E+00	0.0
	-5	1	9	9	0	501	-1.1411032767E+02	2.3003848761E-01	-1.3395785779E+02	1.7602102108E+02	4.1800000000E+00	0.000E+00	0.0
	5	1	9	9	501	0	-6.4574798029E+00	5.9849103459E+01	-1.5681485099E+02	1.6802376058E+02	4.1800000000E+00	0.000E+00	0.0
</event>
<event>
    11  -1  1.0000000E+00  1.0000000E+00  -1.0000000E+00  -1.0000000E+00
	2212	-1	0	0	0	0	0.0000000000E+00	0.0000000000E+00	6.5000000000E+03	6.5000000000E+03	9.3827000000E-01	0.000E+00	0.0
	2212	-1	0	0	0	0	0.0000000000E+00	0.0000000000E+00	-6.5000000000E+03	6.5000000000E+03	9.3827000000E-01	0.000E+00	0.0
	2212	1	0	0	0	0	0.0000000000E+00	0.0000000000E+00	4.9195267781E+03	4.9195267781E+03	9.3827000000E-01	0.000E+00	0.0
	2212	1	0	0	0	0	0.0000000000E+00	0.0000000000E+00	-6.3257640649E+03	6.3257640649E+03	9.3827000000E-01	0.000E+00	0.0
	51	2	1	2	0	0	8.2609140680E+01	9.3651490798E+01	1.2723287649E+03	1.6540605421E+03	1.0495241393E+03	0.000E+00	0.0
	1000022	2	5	5	0	0	-8.2609140680E+01	-9.3651490798E+01	1.2898219881E+03	1.5430025925E+03	8.3762841855E+02	0.000E+00	0.0
	14	1	6	6	0	0	7.7866086922E+00	-2.8604082916E+01	1.6264550737E+02	3.6463322106E+02	3.2500000000E+02	0.000E+00	0.0
	-14	1	6	6	0	0	-9.0395749372E+01	-6.5047407882E+01	1.1271764807E+03	1.1783693714E+03	3.2500000000E+02	0.000E+00	0.0
	25	2	5	5	0	0	8.2609140680E+01	9.3651490798E+01	1.1641529865E+02	2.1170656450E+02	1.2518896053E+02	0.000E+00	0.0
	-5	1	9	9	0	501	-5.8692106485E+00	-8.5078909743E+00	6.6728906901E+01	6.7653907933E+01	4.1800000000E+00	0.000E+00	0.0
	5	1	9	9	501	0	8.8478351329E+01	1.0215938177E+02	4.9686391744E+01	1.4405265656E+02	4.1800000000E+00	0.000E+00	0.0
</event>
<event>
    11  -1  1.0000000E+00  1.0000000E+00  -1.0000000E+00  -1.0000000E+00
	2212	-1	0	0	0	0	0.0000000000E+00	0.0000000000E+00	6.5000000000E+03	6.5000000000E+03	9.3827000000E-01	0.000E+00	0.0
	2212	-1	0	0	0	0	0.0000000000E+00	0.0000000000E+00	-6.5000000000E+03	6.5000000000E+03	9.3827000000E-01	0.000E+00	0.0
	2212	1	0	0	0	0	0.0000000000E+00	0.0000000000E+00	6.2842716672E+03	6.2842716672E+03	9.3827000000E-01	0.000E+00	0.0
	2212	1	0	0	0	0	0.0000000000E+00	0.0000000000E+00	-5.2021613915E+03	5.2021613915E+03	9.3827000000E-01	0.000E+00	0.0
	51	2	1	2	0	0	-1.3748436829E+02	-5.8460666408E+01	-1.1311161676E+03	1.5561701779E+03	1.0582637842E+03	0.000E+00	0.0
	1000022	2	5	5	0	0	1.3748436829E+02	5.8460666408E+01	-8.4304016156E+02	1.2051174873E+03	8.4809895833E+02	0.000E+00	0.0
	14	1	6	6	0	0	-1.2730473838E+02	6.1094812505E+01	-1.2898497895E+02	3.7709574026E+02	3.2500000000E+02	0.000E+00	0.0
	-14	1	6	6	0	0	2.6478910667E+02	-2.6341460969E+00	-7.1405518261E+02	8.2802174703E+02	3.2500000000E+02	0.000E+00	0.0
	25	2	5	5	0	0	-1.3748436829E+02	-5.8460666408E+01	-2.3907011418E+02	3.0844945400E+02	1.2516766810E+02	0.000E+00	0.0
	-5	1	9	9	0	501	-3.0996177638E+01	2.8319892125E+01	-1.1791817431E+02	1.2523956065E+02	4.1800000000E+00	0.000E+00	0.0
	5	1	9	9	501	0	-1.0648819065E+02	-8.6780558533E+01	-1.2115193987E+02	1.8320989335E+02	4.1800000000E+00	0.000E+00	0.0
</event>
<event>
    11  -1  1.0000000E+00  1.0000000E+00  -1.0000000E+00  -1.0000000E+00
	2212	-1	0	0	0	0	0.0000000000E+00	0.0000000000E+00	6.5000000000E+03	6.5000000000E+03	9.3827000000E-01	0.000E+00	0.0
	2212	-1	0	0	0	0	0.0000000000E+00	0.0000000000E+00	-6.5000000000E+03	6.5000000000E+03	9.3827000000E-01	0.000E+00	0.0
	2212	1	0	0	0	0	0.0000000000E+00	0.0000000000E+00	5.9888917630E+03	5.9888917630E+03	9.3827000000E-01	0.000E+00	0.0
	2212	1	0	0	0	0	0.0000000000E+00	0.0000000000E+00	-5.8132476032E+03	5.8132476032E+03	9.3827000000E-01	0.000E+00	0.0
	51	2	1	2	0	0	2.3239309638E+02	2.7434344599E+01	-7.3938068941E+01	1.2100600231E+03	1.1849131728E+03	0.000E+00	0.0
	1000022	2	5	5	0	0	-2.3239309638E+02	-2.7434344599E+01	-2.3912743095E+02	9.2498869449E+02	8.6235895206E+02	0.000E+00	0.0
	14	1	6	6	0	0	1.0788934878E+02	-1.9382985296E+02	-1.2661812174E+02	4.1336094667E+02	3.2500000000E+02	0.000E+00	0.0
	-14	1	6	6	0	0	-3.4028244516E+02	1.6639550836E+02	-1.1250930920E+02	5.1162774782E+02	3.2500000000E+02	0.000E+00	0.0
	25	2	5	5	0	0	2.3239309638E+02	2.7434344599E+01	6.3483271163E+01	2.7287193927E+02	1.2517897194E+02	0.000E+00	0.0
	-5	1	9	9	0	501	3.2875224958E+00	2.4699839958E+01	-1.6475329864E+01	3.0162871087E+01	4.1800000000E+00	0.000E+00	0.0
	5	1	9	9	501	0	2.2910557388E+02	2.7345046417E+00	7.9958601027E+01	2.4270906818E+02	4.1800000000E+00	0.000E+00	0.0
</event>
<event>
    11  -1  1.0000000E+00  1.0000000E+00  -1.0000000E+00  -1.0000000E+00
	2212	-1	0	0	0	0	0.0000000000E+00	0.0000000000E+00	6.5000000000E+03	6.5000000000E+03	9.3827000000E-01	0.000E+00	0.0
	2212	-1	0	0	0	0	0.0000000000E+00	0.0000000000E+00	-6.5000000000E+03	6.5000000000E+03	9.3827000000E-01	0.000E+00	0.0
	2212	1	0	0	0	0	0.0000000000E+00	0.0000000000E+00	6.0002476683E+03	6.0002476683E+03	9.3827000000E-01	0.000E+00	0.0
	2212	1	0	0	0	0	0.0000000000E+00	0.0000000000E+00	-5.9462879282E+03	5.9462879282E+03	9.3827000000E-01	0.000E+00	0.0
	51	2	1	2	0	0	-8.0914782539E+01	1.6214548486E+01	-4.8475258048E+01	1.0564258423E+03	1.0520815539E+03	0.000E+00	0.0
	1000022	2	5	5	0	0	8.0914782539E+01	-1.6214548486E+01	-5.1910660887E+01	9.0342407606E+02	8.9814822322E+02	0.000E+00	0.0
	14	1	6	6	0	0	-2.5241486173E+02	-1.0772519903E+02	-5.5323434491E+01	4.2895648187E+02	3.2500000000E+02	0.000E+00	0.0
	-14	1	6	6	0	0	3.3332964427E+02	9.1510650546E+01	3.4127736047E+00	4.7446759419E+02	3.2500000000E+02	0.000E+00	0.0
	25	2	5	5	0	0	-8.0914782539E+01	1.6214548486E+01	-2.0490792063E+00	1.5004032750E+02	1.2529081185E+02	0.000E+00	0.0
	-5	1	9	9	0	501	2.3033597532E+01	2.3546114441E+00	3.1986653566E+01	3.9707797933E+01	4.1800000000E+00	0.000E+00	0.0
	5	1	9	9	501	0	-1.0394838007E+02	1.3859937042E+01	-3.4035732773E+01	1.1033252956E+02	4.1800000000E+00	0.000E+00	0.0
</event>
<event>
    11  -1  1.0000000E+00  1.0000000E+00  -1.0000000E+00  -1.0000000E+00
	2212	-1	0	0	0	0	0.0000000000E+00	0.0000000000E+00	6.5000000000E+03	6.5000000000E+03	9.3827000000E-01	0.000E+00	0.0
	2212	-1	0	0	0	0	0.0000000000E+00	0.0000000000E+00	-6.5000000000E+03	6.5000000000E+03	9.3827000000E-01	0.000E+00	0.0
	2212	1	0	0	0	0	0.0000000000E+00	0.0000000000E+00	6.2341197239E+03	6.2341197239E+03	9.3827000000E-01	0.000E+00	0.0
	2212	1	0	0	0	0	0.0000000000E+00	0.0000000000E+00	-5.4300594310E+03	5.4300594310E+03	9.3827000000E-01	0.000E+00	0.0
	51	2	1	2	0	0	1.3512815049E+02	-9.4304878477E+01	-8.9449619471E+02	1.4018490808E+03	1.0667260079E+03	0.000E+00	0.0
	1000022	2	5	5	0	0	-1.3512815049E+02	9.4304878477E+01	-5.6140613824E+02	1.0169057092E+03	8.3172552098E+02	0.000E+00	0.0
	14	1	6	6	0	0	1.4956840825E+02	-1.0941014719E+01	-4.1655979555E+02	5.4921532919E+02	3.2500000000E+02	0.000E+00	0.0
	-14	1	6	6	0	0	-2.8469655873E+02	1.0524589320E+02	-1.4484634269E+02	4.6769038004E+02	3.2500000000E+02	0.000E+00	0.0
	25	2	5	5	0	0	1.3512815049E+02	-9.4304878477E+01	-2.4265415466E+02	3.1891513596E+02	1.2519104607E+02	0.000E+00	0.0
	-5	1	9	9	0	501	7.9302356033E+01	-1.1694895332E+02	-2.0027715970E+02	2.4514145804E+02	4.1800000000E+00	0.000E+00	0.0
	5	1	9	9	501	0	5.5825794453E+01	2.2644074844E+01	-4.2376994962E+01	7.3773677920E+01	4.1800000000E+00	0.000E+00	0.0
</event>
<event>
    11  -1  1.0000000E+00  1.0000000E+00  -1.0000000E+00  -1.0000000E+00
	2212	-1	0	0	0	0	0.0000000000E+00	0.0000000000E+00	6.5000000000E+03	6.5000000000E+03	9.3827000000E-01	0.000E+00	0.0
	2212	-1	0	0	0	0	0.0000000000E+00	0.0000000000E+00	-6.5000000000E+03	6.5000000000E+03	9.3827000000E-01	0.000E+00	0.0
	2212	1	0	0	0	0	0.0000000000E+00	0.0000000000E+00	5.8500093348E+03	5.8500093348E+03	9.3827000000E-01	0.000E+00	0.0
	2212	1	0	0	0	0	0.0000000000E+00	0.0000000000E+00	-6.0707777868E+03	6.0707777868E+03	9.3827000000E-01	0.000E+00	0.0
	51	2	1	2	0	0	1.2475180632E+02	-8.0036778164E+01	2.5563462045E+02	1.0969410585E+03	1.0563908971E+03	0.000E+00	0.0
	1000022	2	5	5	0	0	-1.2475180632E+02	8.0036778164E+01	1.4707541892E+02	8.7168198056E+02	8.4630337193E+02	0.000E+00	0.0
	14	1	6	6	0	0	-1.1296229631E+02	-5.3400650334E+01	3.2622668252E+02	4.7713830095E+02	3.2500000000E+02	0.000E+00	0.0
	-14	1	6	6	0	0	-1.1789510011E+01	1.3343742850E+02	-1.7915126360E+02	3.9454367961E+02	3.2500000000E+02	0.000E+00	0.0
	25	2	5	5	0	0	1.2475180632E+02	-8.0036778164E+01	7.3693033007E+01	2.0753089785E+02	1.2517791902E+02	0.000E+00	0.0
	-5	1	9	9	0	501	1.4665948912E+02	-5.3282684673E+01	7.3888651455E+01	1.7269932093E+02	4.1800000000E+00	0.000E+00	0.0
	5	1	9	9	501	0	-2.1907682803E+01	-2.6754093491E+01	-1.9561844768E-01	3.4831576923E+01	4.1800000000E+00	0.000E+00	0.0
</event>
<event>
    11  -1  1.0000000E+00  1.0000000E+00  -1.0000000E+00  -1.0000000E+00
	2212	-1	0	0	0	0	0.0000000000E+00	0.0000000000E+00	6.5000000000E+03	6.5000000000E+03	9.3827000000E-01	0.000E+00	0.0
	2212	-1	0	0	0	0	0.0000000000E+00	0.0000000000E+00	-6.5000000000E+03	6.5000000000E+03	9.3827000000E-01	0.000E+00	0.0
	2212	1	0	0	0	0	0.0000000000E+00	0.0000000000E+00	5.1274964070E+03	5.1274964070E+03	9.3827000000E-01	0.000E+00	0.0
	2212	1	0	0	0	0	0.0000000000E+00	0.0000000000E+00	-6.2970957098E+03	6.2970957098E+03	9.3827000000E-01	0.000E+00	0.0
	51	2	1	2	0	0	-4.0314333335E+01	-1.0296651386E+02	1.0558514221E+03	1.4969960065E+03	1.0554370987E+03	0.000E+00	0.0
	1000022	2	5	5	0	0	4.0314333335E+01	1.0296651386E+02	1.0866987410E+03	1.3889414330E+03	8.5791421612E+02	0.000E+00	0.0
	14	1	6	6	0	0	-6.0325478189E+01	2.3200816511E+02	2.4599496373E+02	4.7286940499E+02	3.2500000000E+02	0.000E+00	0.0
	-14	1	6	6	0	0	1.0063981152E+02	-1.2904165125E+02	8.4070377730E+02	9.1607202806E+02	3.2500000000E+02	0.000E+00	0.0
	25	2	5	5	0	0	-4.0314333335E+01	-1.0296651386E+02	8.2900561779E+01	1.8646645016E+02	1.2517941302E+02	0.000E+00	0.0
	-5	1	9	9	0	501	-1.4514532072E+01	-7.6922991819E+01	-1.6787561376E+01	8.0169276712E+01	4.1800000000E+00	0.000E+00	0.0
	5	1	9	9	501	0	-2.5799801263E+01	-2.6043522039E+01	9.9688123156E+01	1.0629717345E+02	4.1800000000E+00	0.000E+00	0.0
</event>
<event>
    11  -1  1.0000000E+00  1.0000000E+00  -1.0000000E+00  -1.0000000E+00
	2212	-1	0	0	0	0	0.0000000000E+00	0.0000000000E+00	6.5000000000E+03	6.5000000000E+03	9.3827000000E-01	0.000E+00	0.0
	2212	-1	0	0	0	0	0.0000000000E+00	0.0000000000E+00	-6.5000000000E+03	6.5000000000E+03	9.3827000000E-01	0.000E+00	0.0
	2212	1	0	0	0	0	0.0000000000E+00	0.0000000000E+00	4.8963500591E+03	4.8963500591E+03	9.3827000000E-01	0.000E+00	0.0
	2212	1	0	0	0	0	0.0000000000E+00	0.0000000000E+00	-6.3269914532E+03	6.3269914532E+03	9.3827000000E-01	0.000E+00	0.0
	51	2	1	2	0	0	8.6535714921E+01	-5.6993641401E+01	1.2793463252E+03	1.6604951998E+03	1.0534612397E+03	0.000E+00	0.0
	1000022	2	5	5	0	0	-8.6535714921E+01	5.6993641401E+01	1.3376303263E+03	1.5894273869E+03	8.5222521861E+02	0.000E+00	0.0
	14	1	6	6	0	0	-8.5093325781E+01	2.6008773269E+02	9.6729378487E+02	1.0564888873E+03	3.2500000000E+02	0.000E+00	0.0
	-14	1	6	6	0	0	-1.4423891395E+00	-2.0309409129E+02	3.7033654146E+02	5.3293849959E+02	3.2500000000E+02	0.000E+00	0.0
	25	2	5	5	0	0	8.6535714921E+01	-5.6993641401E+01	9.3011067781E+01	1.8723110083E+02	1.2517076844E+02	0.000E+00	0.0
	-5	1	9	9	0	501	1.0157142848E+02	-5.3902236620E+01	1.1327721487E+02	1.6146642377E+02	4.1800000000E+00	0.000E+00	0.0
	5	1	9	9	501	0	-1.5035713562E+01	-3.0914047814E+00	-2.0266147092E+01	2.5764677056E+01	4.1800000000E+00	0.000E+00	0.0
</event>
<event>
    11  -1  1.0000000E+00  1.0000000E+00  -1.0000000E+00  -1.0000000E+00
	2212	-1	0	0	0	0	0.0000000000E+00	0.0000000000E+00	6.5000000000E+03	6.5000000000E+03	9.3827000000E-01	0.000E+00	0.0
	2212	-1	0	0	0	0	0.0000000000E+00	0.0000000000E+00	-6.5000000000E+03	6.5000000000E+03	9.3827000000E-01	0.000E+00	0.0
	2212	1	0	0	0	0	0.0000000000E+00	0.0000000000E+00	5.6591373014E+03	5.6591373014E+03	9.3827000000E-01	0.000E+00	0.0
	2212	1	0	0	0	0	0.0000000000E+00	0.0000000000E+00	-5.9103745623E+03	5.9103745623E+03	9.3827000000E-01	0.000E+00	0.0
	51	2	1	2	0	0	2.9151366004E+02	1.3431989157E+02	5.6045106128E+02	1.5492913175E+03	1.4082528704E+03	0.000E+00	0.0
	1000022	2	5	5	0	0	-2.9151366004E+02	-1.3431989157E+02	-1.2696115744E+02	9.1890214444E+02	8.5161022087E+02	0.000E+00	0.0
	14	1	6	6	0	0	-4.1559660370E+02	-1.6324455554E+02	-1.3944985720E+02	5.6959686147E+02	3.2500000000E+02	0.000E+00	0.0
	-14	1	6	6	0	0	1.2408294366E+02	2.8924663970E+01	1.2488699759E+01	3.4930528297E+02	3.2500000000E+02	0.000E+00	0.0
	25	2	5	5	0	0	2.9151366004E+02	1.3431989157E+02	3.7819841832E+02	5.1158599192E+02	1.2515644709E+02	0.000E+00	0.0
	-5	1	9	9	0	501	-4.4226890063E+00	-1.2638840823E+01	1.3938520635E+01	1.9775116508E+01	4.1800000000E+00	0.000E+00	0.0
	5	1	9	9	501	0	2.9593634905E+02	1.4695873239E+02	3.6425989768E+02	4.9181087541E+02	4.1800000000E+00	0.000E+00	0.0
</event>
<event>
    11  -1  1.0000000E+00  1.0000000E+00  -1.0000000E+00  -1.0000000E+00
	2212	-1	0	0	0	0	0.0000000000E+00	0.0000000000E+00	6.5000000000E+03	6.5000000000E+03	9.3827000000E-01	0.000E+00	0.0
	2212	-1	0	0	0	0	0.0000000000E+00	0.0000000000E+00	-6.5000000000E+03	6.5000000000E+03	9.3827000000E-01	0.000E+00	0.0
	2212	1	0	0	0	0	0.0000000000E+00	0.0000000000E+00	5.4708568086E+03	5.4708568086E+03	9.3827000000E-01	0.000E+00	0.0
	2212	1	0	0	0	0	0.0000000000E+00	0.0000000000E+00	-6.2333141852E+03	6.2333141852E+03	9.3827000000E-01	0.000E+00	0.0
	51	2	1	2	0	0	-9.6223893661E+01	9.2020362861E+01	7.3779908549E+02	1.2883733301E+03	1.0477745761E+03	0.000E+00	0.0
	1000022	2	5	5	0	0	9.6223893661E+01	-9.2020362861E+01	6.5923433525E+02	1.0859448743E+03	8.5261924460E+02	0.000E+00	0.0
	14	1	6	6	0	0	9.9746920521E+01	2.1085137242E+02	2.0096706774E+02	4.4768349502E+02	3.2500000000E+02	0.000E+00	0.0
	-14	1	6	6	0	0	-3.5230268593E+00	-3.0287173528E+02	4.5826726751E+02	6.3826137923E+02	3.2500000000E+02	0.000E+00	0.0
	25	2	5	5	0	0	-9.6223893661E+01	9.2020362861E+01	1.0322304133E+02	2.0988413197E+02	1.2517814386E+02	0.000E+00	0.0
	-5	1	9	9	0	501	-9.8996779100E+01	1.0759696108E+02	5.0599419002E+01	1.5477481032E+02	4.1800000000E+00	0.000E+00	0.0
	5	1	9	9	501	0	2.7728854385E+00	-1.5576598222E+01	5.2623622331E+01	5.5109321653E+01	4.1800000000E+00	0.000E+00	0.0
</event>
<event>
    11  -1  1.0000000E+00  1.0000000E+00  -1.0000000E+00  -1.0000000E+00
	2212	-1	0	0	0	0	0.0000000000E+00	0.0000000000E+00	6.5000000000E+03	6.5000000000E+03	9.3827000000E-01	0.000E+00	0.0
	2212	-1	0	0	0	0	0.0000000000E+00	0.0000000000E+00	-6.5000000000E+03	6.5000000000E+03	9.3827000000E-01	0.000E+00	0.0
	2212	1	0	0	0	0	0.0000000000E+00	0.0000000000E+00	6.2383980720E+03	6.2383980720E+03	9.3827000000E-01	0.000E+00	0.0
	2212	1	0	0	0	0	0.0000000000E+00	0.0000000000E+00	-5.4510055428E+03	5.4510055428E+03	9.3827000000E-01	0.000E+00	0.0
	51	2	1	2	0	0	-1.2387092032E+02	4.9616061151E+01	-7.2002088725E+02	1.2782455658E+03	1.0477002863E+03	0.000E+00	0.0
	1000022	2	5	5	0	0	1.2387092032E+02	-4.9616061151E+01	-7.1770628535E+02	1.1148175704E+03	8.4256165642E+02	0.000E+00	0.0
	14	1	6	6	0	0	-1.4184067451E+02	-6.1804587195E+01	-1.1050662393E+02	3.7653060682E+02	3.2500000000E+02	0.000E+00	0.0
	-14	1	6	6	0	0	2.6571159483E+02	1.2188526045E+01	-6.0719966142E+02	7.3828696360E+02	3.2500000000E+02	0.000E+00	0.0
	25	2	5	5	0	0	-1.2387092032E+02	4.9616061151E+01	-6.9686243845E+01	1.9577881478E+02	1.2516953827E+02	0.000E+00	0.0
	-5	1	9	9	0	501	7.0795079229E+00	4.3625486631E+01	-4.3266945144E+01	6.1990349720E+01	4.1800000000E+00	0.000E+00	0.0
	5	1	9	9	501	0	-1.3095042824E+02	5.9905745197E+00	-2.6419298701E+01	1.3378846506E+02	4.1800000000E+00	0.000E+00	0.0
</event>
<event>
    11  -1  1.0000000E+00  1.0000000E+00  -1.0000000E+00  -1.0000000E+00
	2212	-1	0	0	0	0	0.0000000000E+00	0.0000000000E+00	6.5000000000E+03	6.5000000000E+03	9.3827000000E-01	0.000E+00	0.0
	2212	-1	0	0	0	0	0.0000000000E+00	0.0000000000E+00	-6.5000000000E+03	6.5000000000E+03	9.3827000000E-01	0.000E+00	0.0
	2212	1	0	0	0	0	0.0000000000E+00	0.0000000000E+00	6.2798321742E+03	6.2798321742E+03	9.3827000000E-01	0.000E+00	0.0
	2212	1	0	0	0	0	0.0000000000E+00	0.0000000000E+00	-5.2461144364E+03	5.2461144364E+03	9.3827000000E-01	0.000E+00	0.0
	51	2	1	2	0	0	1.6653321764E+01	-9.3767429073E+01	-1.1908093364E+03	1.5910240642E+03	1.0508382527E+03	0.000E+00	0.0
	1000022	2	5	5	0	0	-1.6653321764E+01	9.3767429073E+01	-6.9983580951E+02	1.1049845110E+03	8.4979464900E+02	0.000E+00	0.0
	14	1	6	6	0	0	-2.5250325604E+01	-2.0995888844E+02	-2.0163432469E+02	4.3703742937E+02	3.2500000000E+02	0.000E+00	0.0
	-14	1	6	6	0	0	8.5970038394E+00	3.0372631751E+02	-4.9820148482E+02	6.6794708167E+02	3.2500000000E+02	0.000E+00	0.0
	25	2	5	5	0	0	1.6653321764E+01	-9.3767429073E+01	-3.3388192825E+02	3.6906887831E+02	1.2516002174E+02	0.000E+00	0.0
	-5	1	9	9	0	501	1.6195912804E+00	-6.7598547329E+01	-5.1632255611E+01	8.5179509839E+01	4.1800000000E+00	0.000E+00	0.0
	5	1	9	9	501	0	1.5033730484E+01	-2.6168881744E+01	-2.8224967264E+02	2.8388936847E+02	4.1800000000E+00	0.000E+00	0.0
</event>
<event>
    11  -1  1.0000000E+00  1.0000000E+00  -1.0000000E+00  -1.0000000E+00
	2212	-1	0	0	0	0	0.0000000000E+00	0.0000000000E+00	6.5000000000E+03	6.5000000000E+03	9.3827000000E-01	0.000E+00	0.0
	2212	-1	0	0	0	0	0.0000000000E+00	0.0000000000E+00	-6.5000000000E+03	6.5000000000E+03	9.3827000000E-01	0.000E+00	0.0
	2212	1	0	0	0	0	0.0000000000E+00	0.0000000000E+00	5.8010790429E+03	5.8010790429E+03	9.3827000000E-01	0.000E+00	0.0
	2212	1	0	0	0	0	0.0000000000E+00	0.0000000000E+00	-6.1047858917E+03	6.1047858917E+03	9.3827000000E-01	0.000E+00	0.0
	51	2	1	2	0	0	-6.3358270100E+01	-1.0978163959E+02	2.5200711679E+02	1.0883324662E+03	1.0511392350E+03	0.000E+00	0.0
	1000022	2	5	5	0	0	6.3358270100E+01	1.0978163959E+02	3.0434853052E+02	9.1599580309E+02	8.5460751487E+02	0.000E+00	0.0
	14	1	6	6	0	0	-2.3171776851E+02	-3.4235322578E+01	1.6693586382E+02	4.3400203247E+02	3.2500000000E+02	0.000E+00	0.0
	-14	1	6	6	0	0	2.9507603861E+02	1.4401696216E+02	1.3741266669E+02	4.8199377062E+02	3.2500000000E+02	0.000E+00	0.0
	25	2	5	5	0	0	-6.3358270100E+01	-1.0978163959E+02	-6.4168175656E-01	1.7813926233E+02	1.2516751275E+02	0.000E+00	0.0
	-5	1	9	9	0	501	-3.4112603352E+01	-5.0162678452E+00	4.7725851568E+01	5.9025943096E+01	4.1800000000E+00	0.000E+00	0.0
	5	1	9	9	501	0	-2.9245666748E+01	-1.0476537174E+02	-4.8367533324E+01	1.1911331924E+02	4.1800000000E+00	0.000E+00	0.0
</event>
<event>
    11  -1  1.0000000E+00  1.0000000E+00  -1.0000000E+00  -1.0000000E+00
	2212	-1	0	0	0	0	0.0000000000E+00	0.0000000000E+00	6.5000000000E+03	6.5000000000E+03	9.3827000000E-01	0.000E+00	0.0
	2212	-1	0	0	0	0	0.0000000000E+00	0.0000000000E+00	-6.5000000000E+03	6.5000000000E+03	9.3827000000E-01	0.000E+00	0.0
	2212	1	0	0	0	0	0.0000000000E+00	0.0000000000E+00	5.2543658552E+03	5.2543658552E+03	9.3827000000E-01	0.000E+00	0.0
	2212	1	0	0	0	0	0.0000000000E+00	0.0000000000E+00	-6.2789584399E+03	6.2789584399E+03	9.3827000000E-01	0.000E+00	0.0
	51	2	1	2	0	0	-1.1728879789E+02	6.1721992645E+01	9.9547854978E+02	1.4525465461E+03	1.0494511227E+03	0.000E+00	0.0
	1000022	2	5	5	0	0	1.1728879789E+02	-6.1721992645E+01	8.8226028813E+02	1.2353842227E+03	8.5453185729E+02	0.000E+00	0.0
	14	1	6	6	0	0	2.4449586371E+02	-1.1511809388E+02	7.4504185965E+02	8.5658786796E+02	3.2500000000E+02	0.000E+00	0.0
	-14	1	6	6	0	0	-1.2720706583E+02	5.3396101240E+01	1.3721842848E+02	3.7879635471E+02	3.2500000000E+02	0.000E+00	0.0
	25	2	5	5	0	0	-1.1728879789E+02	6.1721992645E+01	1.4233229657E+02	2.3129148229E+02	1.2518386736E+02	0.000E+00	0.0
	-5	1	9	9	0	501	1.2680500278E+01	-1.8718998969E+01	9.0873740835E-01	2.3010741261E+01	4.1800000000E+00	0.000E+00	0.0
	5	1	9	9	501	0	-1.2996929817E+02	8.0440991614E+01	1.4142355916E+02	2.0828074103E+02	4.1800000000E+00	0.000E+00	0.0
</event>
<event>
    11  -1  1.0000000E+00  1.0000000E+00  -1.0000000E+00  -1.0000000E+00
	2212	-1	0	0	0	0	0.0000000000E+00	0.0000000000E+00	6.5000000000E+03	6.5000000000E+03	9.3827000000E-01	0.000E+00	0.0
	2212	-1	0	0	0	0	0.0000000000E+00	0.0000000000E+00	-6.5000000000E+03	6.5000000000E+03	9.3827000000E-01	0.000E+00	0.0
	2212	1	0	0	0	0	0.0000000000E+00	0.0000000000E+00	5.3421881603E+03	5.3421881603E+03	9.3827000000E-01	0.000E+00	0.0
	2212	1	0	0	0	0	0.0000000000E+00	0.0000000000E+00	-6.2606537439E+03	6.2606537439E+03	9.3827000000E-01	0.000E+00	0.0
	51	2	1	2	0	0	-6.6948684663E+01	-3.6685792897E+01	1.0863490850E+03	1.5147455313E+03	1.0528398341E+03	0.000E+00	0.0
	1000022	2	5	5	0	0	6.6948684663E+01	3.6685792897E+01	5.9353625745E+02	1.0406745608E+03	8.5140488537E+02	0.000E+00	0.0
	14	1	6	6	0	0	2.0585788266E+02	2.2374184808E+02	3.9107379621E+02	5.9245387713E+02	3.2500000000E+02	0.000E+00	0.0
	-14	1	6	6	0	0	-1.3890919800E+02	-1.8705605519E+02	2.0246246123E+02	4.4822068368E+02	3.2500000000E+02	0.000E+00	0.0
	25	2	5	5	0	0	-6.6948684663E+01	-3.6685792897E+01	3.2492932614E+02	3.5648353497E+02	1.2519372964E+02	0.000E+00	0.0
	-5	1	9	9	0	501	-5.7820402267E+01	3.0992076966E+01	2.3168858395E+02	2.4083351114E+02	4.1800000000E+00	0.000E+00	0.0
	5	1	9	9	501	0	-9.1282823958E+00	-6.7677869863E+01	9.3240742181E+01	1.1565002383E+02	4.1800000000E+00	0.000E+00	0.0
</event>
<event>
    11  -1  1.0000000E+00  1.0000000E+00  -1.0000000E+00  -1.0000000E+00
	2212	-1	0	0	0	0	0.0000000000E+00	0.0000000000E+00	6.5000000000E+03	6.5000000000E+03	9.3827000000E-01	0.000E+00	0.0
	2212	-1	0	0	0	0	0.0000000000E+00	0.0000000000E+00	-6.5000000000E+03	6.5000000000E+03	9.3827000000E-01	0.000E+00	0.0
	2212	1	0	0	0	0	0.0000000000E+00	0.0000000000E+00	6.1719464034E+03	6.1719464034E+03	9.3827000000E-01	0.000E+00	0.0
	2212	1	0	0	0	0	0.0000000000E+00	0.0000000000E+00	-5.6419744210E+03	5.6419744210E+03	9.3827000000E-01	0.000E+00	0.0
	51	2	1	2	0	0	1.8220472753E+01	3.3189055638E+01	-3.8877365988E+02	1.1307041904E+03	1.0610907165E+03	0.000E+00	0.0
	1000022	2	5	5	0	0	-1.8220472753E+01	-3.3189055638E+01	-5.8331237432E+02	1.0448278007E+03	8.6601287986E+02	0.000E+00	0.0
	14	1	6	6	0	0	2.1163252481E+02	-1.8043962407E+02	-1.9708779224E+02	4.7097280319E+02	3.2500000000E+02	0.000E+00	0.0
	-14	1	6	6	0	0	-2.2985299756E+02	1.4725056843E+02	-3.8622458208E+02	5.7385499754E+02	3.2500000000E+02	0.000E+00	0.0
	25	2	5	5	0	0	1.8220472753E+01	3.3189055638E+01	5.3340391972E+01	1.4125137484E+02	1.2519286896E+02	0.000E+00	0.0
	-5	1	9	9	0	501	-1.5268061644E+01	3.1359037810E+01	-3.3206714464E+01	4.8339024030E+01	4.1800000000E+00	0.000E+00	0.0
	5	1	9	9	501	0	3.3488534397E+01	1.8300178278E+00	8.6547106435E+01	9.2912350813E+01	4.1800000000E+00	0.000E+00	0.0
</event>
<event>
    11  -1  1.0000000E+00  1.0000000E+00  -1.0000000E+00  -1.0000000E+00
	2212	-1	0	0	0	0	0.0000000000E+00	0.0000000000E+00	6.5000000000E+03	6.5000000000E+03	9.3827000000E-01	0.000E+00	0.0
	2212	-1	0	0	0	0	0.0000000000E+00	0.0000000000E+00	-6.5000000000E+03	6.5000000000E+03	9.3827000000E-01	0.000E+00	0.0
	2212	1	0	0	0	0	0.0000000000E+00	0.0000000000E+00	5.7774158451E+03	5.7774158451E+03	9.3827000000E-01	0.000E+00	0.0
	2212	1	0	0	0	0	0.0000000000E+00	0.0000000000E+00	-6.1231987372E+03	6.1231987372E+03	9.3827000000E-01	0.000E+00	0.0
	51	2	1	2	0	0	-6.8082754307E+01	-1.1389624734E+02	3.6032113007E+02	1.1119898478E+03	1.0435911500E+03	0.000E+00	0.0
	1000022	2	5	5	0	0	6.8082754307E+01	1.1389624734E+02	2.7349329494E+02	9.0316576683E+02	8.5047175344E+02	0.000E+00	0.0
	14	1	6	6	0	0	-3.4086210172E+01	-1.3227108855E+02	-7.1120699663E+01	3.5963963145E+02	3.2500000000E+02	0.000E+00	0.0
	-14	1	6	6	0	0	1.0216896448E+02	2.4616733589E+02	3.4461399461E+02	5.4352613538E+02	3.2500000000E+02	0.000E+00	0.0
	25	2	5	5	0	0	-6.8082754307E+01	-1.1389624734E+02	7.2289597136E+01	1.9621965094E+02	1.2517487356E+02	0.000E+00	0.0
	-5	1	9	9	0	501	-9.2056669063E+01	-1.2511963754E+02	6.5060604901E+01	1.6846278143E+02	4.1800000000E+00	0.000E+00	0.0
	5	1	9	9	501	0	2.3973914756E+01	1.1223390202E+01	7.2289922344E+00	2.7756869511E+01	4.1800000000E+00	0.000E+00	0.0
</event>
<event>
    11  -1  1.0000000E+00  1.0000000E+00  -1.0000000E+00  -1.0000000E+00
	2212	-1	0	0	0	0	0.0000000000E+00	0.0000000000E+00	6.5000000000E+03	6.5000000000E+03	9.3827000000E-01	0.000E+00	0.0
	2212	-1	0	0	0	0	0.0000000000E+00	0.0000000000E+00	-6.5000000000E+03	6.5000000000E+03	9.3827000000E-01	0.000E+00	0.0
	2212	1	0	0	0	0	0.0000000000E+00	0.0000000000E+00	4.9850746646E+03	4.9850746646E+03	9.3827000000E-01	0.000E+00	0.0
	2212	1	0	0	0	0	0.0000000000E+00	0.0000000000E+00	-6.3238997624E+03	6.3238997624E+03	9.3827000000E-01	0.000E+00	0.0
	51	2	1	2	0	0	-6.9269581978E+01	-1.2415820539E+02	1.2289157019E+03	1.6116954375E+03	1.0330125101E+03	0.000E+00	0.0
	1000022	2	5	5	0	0	6.9269581978E+01	1.2415820539E+02	1.1999790472E+03	1.4561609551E+03	8.1255244657E+02	0.000E+00	0.0
	14	1	6	6	0	0	9.2526669536E+01	1.3566370724E+02	1.0215253532E+03	1.0844836897E+03	3.2500000000E+02	0.000E+00	0.0
	-14	1	6	6	0	0	-2.3257087557E+01	-1.1505501857E+01	1.7845369404E+02	3.7167726539E+02	3.2500000000E+02	0.000E+00	0.0
	25	2	5	5	0	0	-6.9269581978E+01	-1.2415820539E+02	1.3884605055E+02	2.3486461786E+02	1.2517838478E+02	0.000E+00	0.0
	-5	1	9	9	0	501	-1.4143373279E+01	1.9555568393E+01	-4.0130506622E+00	2.4819996747E+01	4.1800000000E+00	0.000E+00	0.0
	5	1	9	9	501	0	-5.5126208699E+01	-1.4371377378E+02	1.4285910121E+02	2.1004462111E+02	4.1800000000E+00	0.000E+00	0.0
</event>
<event>
    11  -1  1.0000000E+00  1.0000000E+00  -1.0000000E+00  -1.0000000E+00
	2212	-1	0	0	0	0	0.0000000000E+00	0.0000000000E+00	6.5000000000E+03	6.5000000000E+03	9.3827000000E-01	0.000E+00	0.0
	2212	-1	0	0	0	0	0.0000000000E+00	0.0000000000E+00	-6.5000000000E+03	6.5000000000E+03	9.3827000000E-01	0.000E+00	0.0
	2212	1	0	0	0	0	0.0000000000E+00	0.0000000000E+00	5.7263929225E+03	5.7263929225E+03	9.3827000000E-01	0.000E+00	0.0
	2212	1	0	0	0	0	0.0000000000E+00	0.0000000000E+00	-6.1421440474E+03	6.1421440474E+03	9.3827000000E-01	0.000E+00	0.0
	51	2	1	2	0	0	-7.4287693208E+01	-3.6456959671E+01	5.5575064527E+02	1.1929233595E+03	1.0523115464E+03	0.000E+00	0.0
	1000022	2	5	5	0	0	7.4287693208E+01	3.6456959671E+01	2.0253218714E+02	8.7073669996E+02	8.4280207793E+02	0.000E+00	0.0
	14	1	6	6	0	0	-1.9997642395E+02	1.2456055146E+02	2.7012729239E+01	4.0231901354E+02	3.2500000000E+02	0.000E+00	0.0
	-14	1	6	6	0	0	2.7426411716E+02	-8.8103591787E+01	1.7551945790E+02	4.6841768642E+02	3.2500000000E+02	0.000E+00	0.0
	25	2	5	5	0	0	-7.4287693208E+01	-3.6456959671E+01	2.1321893782E+02	2.6072633017E+02	1.2517241121E+02	0.000E+00	0.0
	-5	1	9	9	0	501	1.4541247625E+01	9.9520146034E+00	1.2750366348E+02	1.2878333385E+02	4.1800000000E+00	0.000E+00	0.0
	5	1	9	9	501	0	-8.8828940832E+01	-4.6408974274E+01	8.5715274343E+01	1.3194299632E+02	4.1800000000E+00	0.000E+00	0.0
</event>
<event>
    11  -1  1.0000000E+00  1.0000000E+00  -1.0000000E+00  -1.0000000E+00
	2212	-1	0	0	0	0	0.0000000000E+00	0.0000000000E+00	6.5000000000E+03	6.5000000000E+03	9.3827000000E-01	0.000E+00	0.0
	2212	-1	0	0	0	0	0.0000000000E+00	0.0000000000E+00	-6.5000000000E+03	6.5000000000E+03	9.3827000000E-01	0.000E+00	0.0
	2212	1	0	0	0	0	0.0000000000E+00	0.0000000000E+00	6.2750126316E+03	6.2750126316E+03	9.3827000000E-01	0.000E+00	0.0
	2212	1	0	0	0	0	0.0000000000E+00	0.0000000000E+00	-5.2402393517E+03	5.2402393517E+03	9.3827000000E-01	0.000E+00	0.0
	51	2	1	2	0	0	-3.5215921989E+01	-8.1677589719E+01	-8.5571937347E+02	1.3689002770E+03	1.0647633223E+03	0.000E+00	0.0
	1000022	2	5	5	0	0	3.5215921989E+01	8.1677589719E+01	-1.0258877899E+03	1.3309302641E+03	8.4321896351E+02	0.000E+00	0.0
	14	1	6	6	0	0	9.1300458862E+01	-6.1976990861E+01	-1.3262984405E+02	3.6795733002E+02	3.2500000000E+02	0.000E+00	0.0
	-14	1	6	6	0	0	-5.6084536873E+01	1.4365458058E+02	-8.9325794589E+02	9.6297293404E+02	3.2500000000E+02	0.000E+00	0.0
	25	2	5	5	0	0	-3.5215921989E+01	-8.1677589719E+01	-8.8854899760E+00	1.5381775271E+02	1.2517811027E+02	0.000E+00	0.0
	-5	1	9	9	0	501	1.4762877112E+01	-3.0630776054E+01	-5.7761936502E+01	6.7157283230E+01	4.1800000000E+00	0.000E+00	0.0
	5	1	9	9	501	0	-4.9978799101E+01	-5.1046813665E+01	4.8876446526E+01	8.6660469477E+01	4.1800000000E+00	0.000E+00	0.0
</event>
<event>
    11  -1  1.0000000E+00  1.0000000E+00  -1.0000000E+00  -1.0000000E+00
	2212	-1	0	0	0	0	0.0000000000E+00	0.0000000000E+00	6.5000000000E+03	6.5000000000E+03	9.3827000000E-01	0.000E+00	0.0
	2212	-1	0	0	0	0	0.0000000000E+00	0.0000000000E+00	-6.5000000000E+03	6.5000000000E+03	9.3827000000E-01	0.000E+00	0.0
	2212	1	0	0	0	0	0.0000000000E+00	0.0000000000E+00	6.1754776143E+03	6.1754776143E+03	9.3827000000E-01	0.000E+00	0.0
	2212	1	0	0	0	0	0.0000000000E+00	0.0000000000E+00	-5.6425475919E+03	5.6425475919E+03	9.3827000000E-01	0.000E+00	0.0
	51	2	1	2	0	0	8.5337068826E+01	-1.1568308260E+02	-5.7230762448E+02	1.2088221591E+03	1.0550118504E+03	0.000E+00	0.0
	1000022	2	5	5	0	0	-8.5337068826E+01	1.1568308260E+02	-4.0118122184E+02	9.5025920270E+02	8.4934162070E+02	0.000E+00	0.0
	14	1	6	6	0	0	-2.6361350293E+02	2.0166721047E+02	-3.1151510908E+02	5.5931065241E+02	3.2500000000E+02	0.000E+00	0.0
	-14	1	6	6	0	0	1.7827643410E+02	-8.5984127880E+01	-8.9666112751E+01	3.9094855030E+02	3.2500000000E+02	0.000E+00	0.0
	25	2	5	5	0	0	8.5337068826E+01	-1.1568308260E+02	-1.3174880050E+02	2.3171559111E+02	1.2517738540E+02	0.000E+00	0.0
	-5	1	9	9	0	501	8.3050711480E+01	-1.2035879746E+02	-1.5165856432E+02	2.1071652364E+02	4.1800000000E+00	0.000E+00	0.0
	5	1	9	9	501	0	2.2863573465E+00	4.6757148696E+00	1.9909763814E+01	2.0999067470E+01	4.1800000000E+00	0.000E+00	0.0
</event>
<event>
    11  -1  1.0000000E+00  1.0000000E+00  -1.0000000E+00  -1.0000000E+00
	2212	-1	0	0	0	0	0.0000000000E+00	0.0000000000E+00	6.5000000000E+03	6.5000000000E+03	9.3827000000E-01	0.000E+00	0.0
	2212	-1	0	0	0	0	0.0000000000E+00	0.0000000000E+00	-6.5000000000E+03	6.5000000000E+03	9.3827000000E-01	0.000E+00	0.0
	2212	1	0	0	0	0	0.0000000000E+00	0.0000000000E+00	6.0711368777E+03	6.0711368777E+03	9.3827000000E-01	0.000E+00	0.0
	2212	1	0	0	0	0	0.0000000000E+00	0.0000000000E+00	-5.8500852816E+03	5.8500852816E+03	9.3827000000E-01	0.000E+00	0.0
	51	2	1	2	0	0	-9.0084236605E+01	2.2335820529E+01	-1.1368052935E+02	1.0660371208E+03	1.0558872201E+03	0.000E+00	0.0
	1000022	2	5	5	0	0	9.0084236605E+01	-2.2335820529E+01	-2.9082593005E+02	9.0803867208E+02	8.5518445369E+02	0.000E+00	0.0
	14	1	6	6	0	0	1.1869779184E+02	1.9303192792E+02	3.6891876028E+01	3.9791519385E+02	3.2500000000E+02	0.000E+00	0.0
	-14	1	6	6	0	0	-2.8613555233E+01	-2.1536774845E+02	-3.2771780608E+02	5.1012347822E+02	3.2500000000E+02	0.000E+00	0.0
	25	2	5	5	0	0	-9.0084236605E+01	2.2335820529E+01	6.9774333945E+01	1.7073916866E+02	1.2517726420E+02	0.000E+00	0.0
	-5	1	9	9	0	501	2.0043427749E+01	2.0454195522E+01	-1.4138007846E+01	3.2209762126E+01	4.1800000000E+00	0.000E+00	0.0
	5	1	9	9	501	0	-1.1012766435E+02	1.8816250074E+00	8.3912341791E+01	1.3852940653E+02	4.1800000000E+00	0.000E+00	0.0
</event>
<event>
    11  -1  1.0000000E+00  1.0000000E+00  -1.0000000E+00  -1.0000000E+00
	2212	-1	0	0	0	0	0.0000000000E+00	0.0000000000E+00	6.5000000000E+03	6.5000000000E+03	9.3827000000E-01	0.000E+00	0.0
	2212	-1	0	0	0	0	0.0000000000E+00	0.0000000000E+00	-6.5000000000E+03	6.5000000000E+03	9.3827000000E-01	0.000E+00	0.0
	2212	1	0	0	0	0	0.0000000000E+00	0.0000000000E+00	5.9729849184E+03	5.9729849184E+03	9.3827000000E-01	0.000E+00	0.0
	2212	1	0	0	0	0	0.0000000000E+00	0.0000000000E+00	-5.9807979321E+03	5.9807979321E+03	9.3827000000E-01	0.000E+00	0.0
	51	2	1	2	0	0	-1.0865536141E+02	-3.4646238523E+01	-6.9752716338E+01	1.0546947765E+03	1.0461879758E+03	0.000E+00	0.0
	1000022	2	5	5	0	0	1.0865536141E+02	3.4646238523E+01	8.4055137552E+01	8.6049942036E+02	8.4875652391E+02	0.000E+00	0.0
	14	1	6	6	0	0	-1.6620879153E+02	-1.4697981881E+02	4.4921671952E+01	3.9606992581E+02	3.2500000000E+02	0.000E+00	0.0
	-14	1	6	6	0	0	2.7486415294E+02	1.8162605734E+02	3.9133465600E+01	4.6442949455E+02	3.2500000000E+02	0.000E+00	0.0
	25	2	5	5	0	0	-1.0865536141E+02	-3.4646238523E+01	-7.6242123928E+01	1.8571772913E+02	1.2518731584E+02	0.000E+00	0.0
	-5	1	9	9	0	501	-1.0726199875E+01	2.1909792790E+01	-6.7872451702E+01	7.2244255716E+01	4.1800000000E+00	0.000E+00	0.0
	5	1	9	9	501	0	-9.7929161531E+01	-5.6556031313E+01	-8.3696722256E+00	1.1347347342E+02	4.1800000000E+00	0.000E+00	0.0
</event>
<event>
    11  -1  1.0000000E+00  1.0000000E+00  -1.0000000E+00  -1.0000000E+00
	2212	-1	0	0	0	0	0.0000000000E+00	0.0000000000E+00	6.5000000000E+03	6.5000000000E+03	9.3827000000E-01	0.000E+00	0.0
	2212	-1	0	0	0	0	0.0000000000E+00	0.0000000000E+00	-6.5000000000E+03	6.5000000000E+03	9.3827000000E-01	0.000E+00	0.0
	2212	1	0	0	0	0	0.0000000000E+00	0.0000000000E+00	6.2182028836E+03	6.2182028836E+03	9.3827000000E-01	0.000E+00	0.0
	2212	1	0	0	0	0	0.0000000000E+00	0.0000000000E+00	-5.5116336157E+03	5.5116336157E+03	9.3827000000E-01	0.000E+00	0.0
	51	2	1	2	0	0	-1.1635222404E+02	-5.1417863542E+01	-7.9068974080E+02	1.3249328628E+03	1.0554976021E+03	0.000E+00	0.0
	1000022	2	5	5	0	0	1.1635222404E+02	5.1417863542E+01	-5.0182429583E+02	9.9855363452E+02	8.5387358572E+02	0.000E+00	0.0
	14	1	6	6	0	0	-1.9029300255E+02	1.2160113789E+02	-1.4158840730E+02	4.2032194880E+02	3.2500000000E+02	0.000E+00	0.0
	-14	1	6	6	0	0	3.0664522659E+02	-7.0183274352E+01	-3.6023588853E+02	5.7823168573E+02	3.2500000000E+02	0.000E+00	0.0
	25	2	5	5	0	0	-1.1635222404E+02	-5.1417863542E+01	-2.0474497207E+02	2.7160986613E+02	1.2517898809E+02	0.000E+00	0.0
	-5	1	9	9	0	501	-9.3806030487E-02	-4.3929481728E+01	-1.1893840835E+02	1.2686065405E+02	4.1800000000E+00	0.000E+00	0.0
	5	1	9	9	501	0	-1.1625841801E+02	-7.4883818142E+00	-8.5806563720E+01	1.4474921208E+02	4.1800000000E+00	0.000E+00	0.0
</event>
<event>
    11  -1  1.0000000E+00  1.0000000E+00  -1.0000000E+00  -1.0000000E+00
	2212	-1	0	0	0	0	0.0000000000E+00	0.0000000000E+00	6.5000000000E+03	6.5000000000E+03	9.3827000000E-01	0.000E+00	0.0
	2212	-1	0	0	0	0	0.0000000000E+00	0.0000000000E+00	-6.5000000000E+03	6.5000000000E+03	9.3827000000E-01	0.000E+00	0.0
	2212	1	0	0	0	0	0.0000000000E+00	0.0000000000E+00	6.3194155876E+03	6.3194155876E+03	9.3827000000E-01	0.000E+00	0.0
	2212	1	0	0	0	0	0.0000000000E+00	0.0000000000E+00	-4.9991145469E+03	4.9991145469E+03	9.3827000000E-01	0.000E+00	0.0
	51	2	1	2	0	0	5.1855269735E+01	9.1502832606E+01	-1.4615702138E+03	1.7976082158E+03	1.0412233527E+03	0.000E+00	0.0
	1000022	2	5	5	0	0	-5.1855269735E+01	-9.1502832606E+01	-9.5841391130E+02	1.2843634374E+03	8.4851074038E+02	0.000E+00	0.0
	14	1	6	6	0	0	-1.6911941225E+02	-2.5811611932E+02	-6.6275819048E+02	8.0006170118E+02	3.2500000000E+02	0.000E+00	0.0
	-14	1	6	6	0	0	1.1726414252E+02	1.6661328672E+02	-2.9565572082E+02	4.8430173620E+02	3.2500000000E+02	0.000E+00	0.0
	25	2	5	5	0	0	5.1855269735E+01	9.1502832606E+01	-3.6188712948E+02	3.9710642812E+02	1.2517780713E+02	0.000E+00	0.0
	-5	1	9	9	0	501	5.7775706545E+01	1.1650034123E+02	-3.3637733996E+02	3.6066265265E+02	4.1800000000E+00	0.000E+00	0.0
	5	1	9	9	501	0	-5.9204368105E+00	-2.4997508626E+01	-2.5509789517E+01	3.6443775474E+01	4.1800000000E+00	0.000E+00	0.0
</event>
<event>
    11  -1  1.0000000E+00  1.0000000E+00  -1.0000000E+00  -1.0000000E+00
	2212	-1	0	0	0	0	0.0000000000E+00	0.0000000000E+00	6.5000000000E+03	6.5000000000E+03	9.3827000000E-01	0.000E+00	0.0
	2212	-1	0	0	0	0	0.0000000000E+00	0.0000000000E+00	-6.5000000000E+03	6.5000000000E+03	9.3827000000E-01	0.000E+00	0.0
	2212	1	0	0	0	0	0.0000000000E+00	0.0000000000E+00	5.4699816544E+03	5.4699816544E+03	9.3827000000E-01	0.000E+00	0.0
	2212	1	0	0	0	0	0.0000000000E+00	0.0000000000E+00	-6.2311104728E+03	6.2311104728E+03	9.3827000000E-01	0.000E+00	0.0
	51	2	1	2	0	0	-9.2607748972E+00	-3.2621487454E+00	8.7798188001E+02	1.3706907635E+03	1.0525419631E+03	0.000E+00	0.0
	1000022	2	5	5	0	0	9.2607748972E+00	3.2621487454E+00	5.3456116058E+02	1.0398910353E+03	8.9192002298E+02	0.000E+00	0.0
	14	1	6	6	0	0	1.9237627204E+02	-1.7564142650E+02	7.7979820487E+01	4.2375039015E+02	3.2500000000E+02	0.000E+00	0.0
	-14	1	6	6	0	0	-1.8311549714E+02	1.7890357525E+02	4.5658134009E+02	6.1614064518E+02	3.2500000000E+02	0.000E+00	0.0
	25	2	5	5	0	0	-9.2607748972E+00	-3.2621487454E+00	2.2656765781E+02	2.5901683754E+02	1.2514157981E+02	0.000E+00	0.0
	-5	1	9	9	0	501	5.3286842052E+01	1.6539286241E+01	7.3048143096E+01	9.2013798612E+01	4.1800000000E+00	0.000E+00	0.0
	5	1	9	9	501	0	-6.2547616950E+01	-1.9801434987E+01	1.5351951471E+02	1.6700303893E+02	4.1800000000E+00	0.000E+00	0.0
</event>
<event>
    11  -1  1.0000000E+00  1.0000000E+00  -1.0000000E+00  -1.0000000E+00
	2212	-1	0	0	0	0	0.0000000000E+00	0.0000000000E+00	6.5000000000E+03	6.5000000000E+03	9.3827000000E-01	0.000E+00	0.0
	2212	-1	0	0	0	0	0.0000000000E+00	0.0000000000E+00	-6.5000000000E+03	6.5000000000E+03	9.3827000000E-01	0.000E+00	0.0
	2212	1	0	0	0	0	0.0000000000E+00	0.0000000000E+00	6.2645102840E+03	6.2645102840E+03	9.3827000000E-01	0.000E+00	0.0
	2212	1	0	0	0	0	0.0000000000E+00	0.0000000000E+00	-5.3137694677E+03	5.3137694677E+03	9.3827000000E-01	0.000E+00	0.0
	51	2	1	2	0	0	9.7674485861E+01	-3.0739195163E+01	-8.6988421659E+02	1.3727942738E+03	1.0570621385E+03	0.000E+00	0.0
	1000022	2	5	5	0	0	-9.7674485861E+01	3.0739195163E+01	-8.8112355824E+02	1.2456303964E+03	8.7448908303E+02	0.000E+00	0.0
	14	1	6	6	0	0	9.9861859558E+01	-2.3617163506E+02	-4.5558752557E+02	6.1557649863E+02	3.2500000000E+02	0.000E+00	0.0
	-14	1	6	6	0	0	-1.9753634542E+02	2.6691083023E+02	-4.2553603267E+02	6.3005389782E+02	3.2500000000E+02	0.000E+00	0.0
	25	2	5	5	0	0	9.7674485861E+01	-3.0739195163E+01	-6.9617258066E+01	1.7608985189E+02	1.2520331470E+02	0.000E+00	0.0
	-5	1	9	9	0	501	6.3767665539E+01	4.4123642437E+01	-4.6904290872E+01	9.0723182772E+01	4.1800000000E+00	0.000E+00	0.0
	5	1	9	9	501	0	3.3906820322E+01	-7.4862837600E+01	-2.2712967194E+01	8.5366669120E+01	4.1800000000E+00	0.000E+00	0.0
</event>
<event>
    11  -1  1.0000000E+00  1.0000000E+00  -1.0000000E+00  -1.0000000E+00
	2212	-1	0	0	0	0	0.0000000000E+00	0.0000000000E+00	6.5000000000E+03	6.5000000000E+03	9.3827000000E-01	0.000E+00	0.0
	2212	-1	0	0	0	0	0.0000000000E+00	0.0000000000E+00	-6.5000000000E+03	6.5000000000E+03	9.3827000000E-01	0.000E+00	0.0
	2212	1	0	0	0	0	0.0000000000E+00	0.0000000000E+00	6.0191724250E+03	6.0191724250E+03	9.3827000000E-01	0.000E+00	0.0
	2212	1	0	0	0	0	0.0000000000E+00	0.0000000000E+00	-5.9268390022E+03	5.9268390022E+03	9.3827000000E-01	0.000E+00	0.0
	51	2	1	2	0	0	5.8781056261E+01	-2.2521052479E+01	2.7817466933E+01	1.0521894660E+03	1.0499364031E+03	0.000E+00	0.0
	1000022	2	5	5	0	0	-5.8781056261E+01	2.2521052479E+01	-1.9700732417E+02	8.7911743093E+02	8.5444318781E+02	0.000E+00	0.0
	14	1	6	6	0	0	-8.6255136889E+01	1.4604998134E+02	-3.4205005553E+02	5.0139184893E+02	3.2500000000E+02	0.000E+00	0.0
	-14	1	6	6	0	0	2.7474080627E+01	-1.2352892886E+02	1.4504273136E+02	3.7772558199E+02	3.2500000000E+02	0.000E+00	0.0
	25	2	5	5	0	0	5.8781056261E+01	-2.2521052479E+01	1.0467390143E+02	1.7487114186E+02	1.2514343864E+02	0.000E+00	0.0
	-5	1	9	9	0	501	4.0941803434E+01	-3.5014149285E+01	-1.2628996114E+01	5.5490412338E+01	4.1800000000E+00	0.000E+00	0.0
	5	1	9	9	501	0	1.7839252827E+01	1.2493096807E+01	1.1730289754E+02	1.1938072952E+02	4.1800000000E+00	0.000E+00	0.0
</event>
<event>
    11  -1  1.0000000E+00  1.0000000E+00  -1.0000000E+00  -1.0000000E+00
	2212	-1	0	0	0	0	0.0000000000E+00	0.0000000000E+00	6.5000000000E+03	6.5000000000E+03	9.3827000000E-01	0.000E+00	0.0
	2212	-1	0	0	0	0	0.0000000000E+00	0.0000000000E+00	-6.5000000000E+03	6.5000000000E+03	9.3827000000E-01	0.000E+00	0.0
	2212	1	0	0	0	0	0.0000000000E+00	0.0000000000E+00	6.2127408596E+03	6.2127408596E+03	9.3827000000E-01	0.000E+00	0.0
	2212	1	0	0	0	0	0.0000000000E+00	0.0000000000E+00	-5.5326211859E+03	5.5326211859E+03	9.3827000000E-01	0.000E+00	0.0
	51	2	1	2	0	0	1.4052419917E+02	-1.9310464097E+01	-6.7100023387E+02	1.2577419785E+03	1.0543024358E+03	0.000E+00	0.0
	1000022	2	5	5	0	0	-1.4052419917E+02	1.9310464097E+01	-5.7309216084E+02	1.0372740275E+03	8.5286742160E+02	0.000E+00	0.0
	14	1	6	6	0	0	5.0057359462E+00	-2.5581835867E+02	-2.9877372753E+02	5.1025369209E+02	3.2500000000E+02	0.000E+00	0.0
	-14	1	6	6	0	0	-1.4552993512E+02	2.7512882277E+02	-2.7431843331E+02	5.2702033546E+02	3.2500000000E+02	0.000E+00	0.0
	25	2	5	5	0	0	1.4052419917E+02	-1.9310464097E+01	-1.0702751288E+02	2.1736392691E+02	1.2518883190E+02	0.000E+00	0.0
	-5	1	9	9	0	501	1.8303899374E+01	-3.6072965026E+01	-8.1837529212E+01	9.1384600046E+01	4.1800000000E+00	0.000E+00	0.0
	5	1	9	9	501	0	1.2222029980E+02	1.6762500930E+01	-2.5189983670E+01	1.2597932686E+02	4.1800000000E+00	0.000E+00	0.0
</event>
<event>
    11  -1  1.0000000E+00  1.0000000E+00  -1.0000000E+00  -1.0000000E+00
	2212	-1	0	0	0	0	0.0000000000E+00	0.0000000000E+00	6.5000000000E+03	6.5000000000E+03	9.3827000000E-01	0.000E+00	0.0
	2212	-1	0	0	0	0	0.0000000000E+00	0.0000000000E+00	-6.5000000000E+03	6.5000000000E+03	9.3827000000E-01	0.000E+00	0.0
	2212	1	0	0	0	0	0.0000000000E+00	0.0000000000E+00	5.8247694607E+03	5.8247694607E+03	9.3827000000E-01	0.000E+00	0.0
	2212	1	0	0	0	0	0.0000000000E+00	0.0000000000E+00	-6.0875252872E+03	6.0875252872E+03	9.3827000000E-01	0.000E+00	0.0
	51	2	1	2	0	0	-2.7524391587E+01	9.3918328190E+01	3.7084842778E+02	1.1230177612E+03	1.0554913979E+03	0.000E+00	0.0
	1000022	2	5	5	0	0	2.7524391587E+01	-9.3918328190E+01	1.0992631448E+02	8.6719961681E+02	8.5461870813E+02	0.000E+00	0.0
	14	1	6	6	0	0	7.9447784993E+01	-5.7962170114E+01	3.2691464618E+02	4.7134886188E+02	3.2500000000E+02	0.000E+00	0.0
	-14	1	6	6	0	0	-5.1923393406E+01	-3.5956158075E+01	-2.1698833170E+02	3.9585075493E+02	3.2500000000E+02	0.000E+00	0.0
	25	2	5	5	0	0	-2.7524391587E+01	9.3918328190E+01	1.5282951210E+02	2.2050563530E+02	1.2525027316E+02	0.000E+00	0.0
	-5	1	9	9	0	501	-3.3574864655E+01	1.2243939448E+02	1.3787858198E+02	1.8747440526E+02	4.1800000000E+00	0.000E+00	0.0
	5	1	9	9	501	0	6.0504730678E+00	-2.8521066289E+01	1.4950930116E+01	3.3031230040E+01	4.1800000000E+00	0.000E+00	0.0
</event>
<event>
    11  -1  1.0000000E+00  1.0000000E+00  -1.0000000E+00  -1.0000000E+00
	2212	-1	0	0	0	0	0.0000000000E+00	0.0000000000E+00	6.5000000000E+03	6.5000000000E+03	9.3827000000E-01	0.000E+00	0.0
	2212	-1	0	0	0	0	0.0000000000E+00	0.0000000000E+00	-6.5000000000E+03	6.5000000000E+03	9.3827000000E-01	0.000E+00	0.0
	2212	1	0	0	0	0	0.0000000000E+00	0.0000000000E+00	6.1713915436E+03	6.1713915436E+03	9.3827000000E-01	0.000E+00	0.0
	2212	1	0	0	0	0	0.0000000000E+00	0.0000000000E+00	-5.6522990997E+03	5.6522990997E+03	9.3827000000E-01	0.000E+00	0.0
	51	2	1	2	0	0	1.2417288269E+02	6.9598742055E+01	-5.4196707997E+02	1.1950890941E+03	1.0555788637E+03	0.000E+00	0.0
	1000022	2	5	5	0	0	-1.2417288269E+02	-6.9598742055E+01	-4.0741868020E+02	9.5630294794E+02	8.5338294896E+02	0.000E+00	0.0
	14	1	6	6	0	0	-4.9115565526E+01	2.4242737780E+02	-1.9370915604E+02	4.5203054036E+02	3.2500000000E+02	0.000E+00	0.0
	-14	1	6	6	0	0	-7.5057317160E+01	-3.1202611986E+02	-2.1370952416E+02	5.0427240758E+02	3.2500000000E+02	0.000E+00	0.0
	25	2	5	5	0	0	1.2417288269E+02	6.9598742055E+01	-1.1167376366E+02	2.2000640878E+02	1.2517547972E+02	0.000E+00	0.0
	-5	1	9	9	0	501	1.4689334727E+02	5.6434510381E+01	-7.4122537630E+01	1.7399463330E+02	4.1800000000E+00	0.000E+00	0.0
	5	1	9	9	501	0	-2.2720464579E+01	1.3164231674E+01	-3.7551226034E+01	4.6011775481E+01	4.1800000000E+00	0.000E+00	0.0
</event>
<event>
    11  -1  1.0000000E+00  1.0000000E+00  -1.0000000E+00  -1.0000000E+00
	2212	-1	0	0	0	0	0.0000000000E+00	0.0000000000E+00	6.5000000000E+03	6.5000000000E+03	9.3827000000E-01	0.000E+00	0.0
	2212	-1	0	0	0	0	0.0000000000E+00	0.0000000000E+00	-6.5000000000E+03	6.5000000000E+03	9.3827000000E-01	0.000E+00	0.0
	2212	1	0	0	0	0	0.0000000000E+00	0.0000000000E+00	6.3270759739E+03	6.3270759739E+03	9.3827000000E-01	0.000E+00	0.0
	2212	1	0	0	0	0	0.0000000000E+00	0.0000000000E+00	-4.9238740313E+03	4.9238740313E+03	9.3827000000E-01	0.000E+00	0.0
	51	2	1	2	0	0	-6.2357956092E+01	-2.5143391315E+01	-1.6282839077E+03	1.9354661923E+03	1.0441265214E+03	0.000E+00	0.0
	1000022	2	5	5	0	0	6.2357956092E+01	2.5143391315E+01	-9.3557858835E+02	1.2603130818E+03	8.4176069298E+02	0.000E+00	0.0
	14	1	6	6	0	0	2.5317108571E+01	1.3212711511E+02	-1.1431295532E+02	3.6985264943E+02	3.2500000000E+02	0.000E+00	0.0
	-14	1	6	6	0	0	3.7040847520E+01	-1.0698372380E+02	-8.2126563304E+02	8.9046043233E+02	3.2500000000E+02	0.000E+00	0.0
	25	2	5	5	0	0	-6.2357956092E+01	-2.5143391315E+01	-4.6762335421E+02	4.8873691302E+02	1.2518571776E+02	0.000E+00	0.0
	-5	1	9	9	0	501	-4.3203500483E+01	2.9451142861E+01	-7.3102127137E+01	8.9973916563E+01	4.1800000000E+00	0.000E+00	0.0
	5	1	9	9	501	0	-1.9154455609E+01	-5.4594534176E+01	-3.9452122707E+02	3.9876299646E+02	4.1800000000E+00	0.000E+00	0.0
</event>
<event>
    11  -1  1.0000000E+00  1.0000000E+00  -1.0000000E+00  -1.0000000E+00
	2212	-1	0	0	0	0	0.0000000000E+00	0.0000000000E+00	6.5000000000E+03	6.5000000000E+03	9.3827000000E-01	0.000E+00	0.0
	2212	-1	0	0	0	0	0.0000000000E+00	0.0000000000E+00	-6.5000000000E+03	6.5000000000E+03	9.3827000000E-01	0.000E+00	0.0
	2212	1	0	0	0	0	0.0000000000E+00	0.0000000000E+00	6.2262554904E+03	6.2262554904E+03	9.3827000000E-01	0.000E+00	0.0
	2212	1	0	0	0	0	0.0000000000E+00	0.0000000000E+00	-5.4926146617E+03	5.4926146617E+03	9.3827000000E-01	0.000E+00	0.0
	51	2	1	2	0	0	-1.0283752731E+02	-2.9684331067E+01	-9.1231817918E+02	1.3952942336E+03	1.0502689283E+03	0.000E+00	0.0
	1000022	2	5	5	0	0	1.0283752731E+02	2.9684331067E+01	-4.1486562702E+02	9.2231776591E+02	8.1676181123E+02	0.000E+00	0.0
	14	1	6	6	0	0	-1.2764082539E+01	-2.1871663674E+02	-2.5788198216E+02	4.6917801069E+02	3.2500000000E+02	0.000E+00	0.0
	-14	1	6	6	0	0	1.1560160985E+02	2.4840096780E+02	-1.5698364486E+02	4.5313975522E+02	3.2500000000E+02	0.000E+00	0.0
	25	2	5	5	0	0	-1.0283752731E+02	-2.9684331067E+01	-3.1877520161E+02	3.5881208199E+02	1.2518691819E+02	0.000E+00	0.0
	-5	1	9	9	0	501	-8.7813053866E+01	-2.2896608644E+01	-3.2738026229E+02	3.3975093179E+02	4.1800000000E+00	0.000E+00	0.0
	5	1	9	9	501	0	-1.5024473440E+01	-6.7877224230E+00	8.6050606739E+00	1.9061150203E+01	4.1800000000E+00	0.000E+00	0.0
</event>
<event>
    11  -1  1.0000000E+00  1.0000000E+00  -1.0000000E+00  -1.0000000E+00
	2212	-1	0	0	0	0	0.0000000000E+00	0.0000000000E+00	6.5000000000E+03	6.5000000000E+03	9.3827000000E-01	0.000E+00	0.0
	2212	-1	0	0	0	0	0.0000000000E+00	0.0000000000E+00	-6.5000000000E+03	6.5000000000E+03	9.3827000000E-01	0.000E+00	0.0
	2212	1	0	0	0	0	0.0000000000E+00	0.0000000000E+00	6.0380625028E+03	6.0380625028E+03	9.3827000000E-01	0.000E+00	0.0
	2212	1	0	0	0	0	0.0000000000E+00	0.0000000000E+00	-5.9134984963E+03	5.9134984963E+03	9.3827000000E-01	0.000E+00	0.0
	51	2	1	2	0	0	1.1608333250E+02	-3.0462140745E+01	-1.4920035289E+02	1.0584763456E+03	1.0410130388E+03	0.000E+00	0.0
	1000022	2	5	5	0	0	-1.1608333250E+02	3.0462140745E+01	-7.9842877767E+01	8.6935066262E+02	8.5731698185E+02	0.000E+00	0.0
	14	1	6	6	0	0	-1.7612451877E+02	-1.3275155343E+02	1.6586941542E+02	4.2635722584E+02	3.2500000000E+02	0.000E+00	0.0
	-14	1	6	6	0	0	6.0041186270E+01	1.6321369417E+02	-2.4571229319E+02	4.4299343679E+02	3.2500000000E+02	0.000E+00	0.0
	25	2	5	5	0	0	1.1608333250E+02	-3.0462140745E+01	-4.4721128692E+01	1.7908833826E+02	1.2517735996E+02	0.000E+00	0.0
	-5	1	9	9	0	501	5.6665486034E+01	-7.0697469975E+01	-5.5604830607E+01	1.0638834126E+02	4.1800000000E+00	0.000E+00	0.0
	5	1	9	9	501	0	5.9417846469E+01	4.0235329230E+01	1.0883701915E+01	7.2699997006E+01	4.1800000000E+00	0.000E+00	0.0
</event>
<event>
    11  -1  1.0000000E+00  1.0000000E+00  -1.0000000E+00  -1.0000000E+00
	2212	-1	0	0	0	0	0.0000000000E+00	0.0000000000E+00	6.5000000000E+03	6.5000000000E+03	9.3827000000E-01	0.000E+00	0.0
	2212	-1	0	0	0	0	0.0000000000E+00	0.0000000000E+00	-6.5000000000E+03	6.5000000000E+03	9.3827000000E-01	0.000E+00	0.0
	2212	1	0	0	0	0	0.0000000000E+00	0.0000000000E+00	5.1093371020E+03	5.1093371020E+03	9.3827000000E-01	0.000E+00	0.0
	2212	1	0	0	0	0	0.0000000000E+00	0.0000000000E+00	-6.3006170447E+03	6.3006170447E+03	9.3827000000E-01	0.000E+00	0.0
	51	2	1	2	0	0	8.6178186230E+01	5.2759359068E+01	1.0521121221E+03	1.4920616814E+03	1.0531371771E+03	0.000E+00	0.0
	1000022	2	5	5	0	0	-8.6178186230E+01	-5.2759359068E+01	1.1273368982E+03	1.4169303642E+03	8.5240421468E+02	0.000E+00	0.0
	14	1	6	6	0	0	4.8489026555E+01	2.2045717280E+02	6.7272390435E+02	7.8047101306E+02	3.2500000000E+02	0.000E+00	0.0
	-14	1	6	6	0	0	-1.3466721278E+02	-2.7321653187E+02	4.5461299385E+02	6.3645935115E+02	3.2500000000E+02	0.000E+00	0.0
	25	2	5	5	0	0	8.6178186230E+01	5.2759359068E+01	6.3943044430E+01	1.7311548908E+02	1.2517998992E+02	0.000E+00	0.0
	-5	1	9	9	0	501	-7.7919386163E+00	-2.1499727073E+01	-1.6737311125E+01	2.8645463084E+01	4.1800000000E+00	0.000E+00	0.0
	5	1	9	9	501	0	9.3970124846E+01	7.4259086141E+01	8.0680355555E+01	1.4447002599E+02	4.1800000000E+00	0.000E+00	0.0
</event>
<event>
    11  -1  1.0000000E+00  1.0000000E+00  -1.0000000E+00  -1.0000000E+00
	2212	-1	0	0	0	0	0.0000000000E+00	0.0000000000E+00	6.5000000000E+03	6.5000000000E+03	9.3827000000E-01	0.000E+00	0.0
	2212	-1	0	0	0	0	0.0000000000E+00	0.0000000000E+00	-6.5000000000E+03	6.5000000000E+03	9.3827000000E-01	0.000E+00	0.0
	2212	1	0	0	0	0	0.0000000000E+00	0.0000000000E+00	5.8621598006E+03	5.8621598006E+03	9.3827000000E-01	0.000E+00	0.0
	2212	1	0	0	0	0	0.0000000000E+00	0.0000000000E+00	-6.0767079870E+03	6.0767079870E+03	9.3827000000E-01	0.000E+00	0.0
	51	2	1	2	0	0	-7.7066377518E+01	-6.5333804898E+01	1.4985676839E+02	1.0548153542E+03	1.0392163624E+03	0.000E+00	0.0
	1000022	2	5	5	0	0	7.7066377518E+01	6.5333804898E+01	2.4486527215E+02	8.9743732702E+02	8.5745380157E+02	0.000E+00	0.0
	14	1	6	6	0	0	-1.2016171276E+02	1.6466192515E+02	-7.4852268380E+01	3.9087114103E+02	3.2500000000E+02	0.000E+00	0.0
	-14	1	6	6	0	0	1.9722809028E+02	-9.9328120256E+01	3.1971754053E+02	5.0656618599E+02	3.2500000000E+02	0.000E+00	0.0
	25	2	5	5	0	0	-7.7066377518E+01	-6.5333804898E+01	-3.0317085750E+01	1.6369488538E+02	1.2517650421E+02	0.000E+00	0.0
	-5	1	9	9	0	501	-5.5140616561E+01	-2.7344116022E+01	4.5053251254E+01	7.6390157247E+01	4.1800000000E+00	0.000E+00	0.0
	5	1	9	9	501	0	-2.1925760957E+01	-3.7989688876E+01	-7.5370337003E+01	8.7304728134E+01	4.1800000000E+00	0.000E+00	0.0
</event>
<event>
    11  -1  1.0000000E+00  1.0000000E+00  -1.0000000E+00  -1.0000000E+00
	2212	-1	0	0	0	0	0.0000000000E+00	0.0000000000E+00	6.5000000000E+03	6.5000000000E+03	9.3827000000E-01	0.000E+00	0.0
	2212	-1	0	0	0	0	0.0000000000E+00	0.0000000000E+00	-6.5000000000E+03	6.5000000000E+03	9.3827000000E-01	0.000E+00	0.0
	2212	1	0	0	0	0	0.0000000000E+00	0.0000000000E+00	4.9019784328E+03	4.9019784328E+03	9.3827000000E-01	0.000E+00	0.0
	2212	1	0	0	0	0	0.0000000000E+00	0.0000000000E+00	-6.3255142515E+03	6.3255142515E+03	9.3827000000E-01	0.000E+00	0.0
	51	2	1	2	0	0	-1.1206758370E+02	-8.7308961501E+01	1.3614581002E+03	1.7288950558E+03	1.0560908850E+03	0.000E+00	0.0
	1000022	2	5	5	0	0	1.1206758370E+02	8.7308961501E+01	1.2373290167E+03	1.5069695541E+03	8.4840564801E+02	0.000E+00	0.0
	14	1	6	6	0	0	-1.6669698033E+02	-6.7787021687E+01	3.5396032697E+02	5.1312364653E+02	3.2500000000E+02	0.000E+00	0.0
	-14	1	6	6	0	0	2.7876456402E+02	1.5509598319E+02	8.8336868969E+02	9.9384590761E+02	3.2500000000E+02	0.000E+00	0.0
	25	2	5	5	0	0	-1.1206758370E+02	-8.7308961501E+01	1.8620680204E+02	2.6553776162E+02	1.2512126775E+02	0.000E+00	0.0
	-5	1	9	9	0	501	-5.5413322979E+01	-7.4539179826E+01	1.8528634799E+02	2.0730467637E+02	4.1800000000E+00	0.000E+00	0.0
	5	1	9	9	501	0	-5.6654260717E+01	-1.2769781674E+01	9.2045405161E-01	5.8233085244E+01	4.1800000000E+00	0.000E+00	0.0
</event>
<event>
    11  -1  1.0000000E+00  1.0000000E+00  -1.0000000E+00  -1.0000000E+00
	2212	-1	0	0	0	0	0.0000000000E+00	0.0000000000E+00	6.5000000000E+03	6.5000000000E+03	9.3827000000E-01	0.000E+00	0.0
	2212	-1	0	0	0	0	0.0000000000E+00	0.0000000000E+00	-6.5000000000E+03	6.5000000000E+03	9.3827000000E-01	0.000E+00	0.0
	2212	1	0	0	0	0	0.0000000000E+00	0.0000000000E+00	6.1467083358E+03	6.1467083358E+03	9.3827000000E-01	0.000E+00	0.0
	2212	1	0	0	0	0	0.0000000000E+00	0.0000000000E+00	-5.7190004400E+03	5.7190004400E+03	9.3827000000E-01	0.000E+00	0.0
	51	2	1	2	0	0	-9.6546392892E+01	3.5334494081E+01	-5.3715408518E+02	1.1843930010E+03	1.0505629620E+03	0.000E+00	0.0
	1000022	2	5	5	0	0	9.6546392892E+01	-3.5334494081E+01	-2.4511702813E+02	8.9020806985E+02	8.4959891578E+02	0.000E+00	0.0
	14	1	6	6	0	0	-1.7645703198E+02	-1.6643978101E+02	-6.4408221542E+01	4.1062477256E+02	3.2500000000E+02	0.000E+00	0.0
	-14	1	6	6	0	0	2.7300342487E+02	1.3110528693E+02	-1.8070880659E+02	4.7958329728E+02	3.2500000000E+02	0.000E+00	0.0
	25	2	5	5	0	0	-9.6546392892E+01	3.5334494081E+01	-1.8259086774E+02	2.4408315435E+02	1.2516960017E+02	0.000E+00	0.0
	-5	1	9	9	0	501	-7.9326329265E+01	-1.6248189478E+01	-1.6964626040E+02	1.8802658388E+02	4.1800000000E+00	0.000E+00	0.0
	5	1	9	9	501	0	-1.7220063627E+01	5.1582683559E+01	-1.2944607335E+01	5.6056570476E+01	4.1800000000E+00	0.000E+00	0.0
</event>
<event>
    11  -1  1.0000000E+00  1.0000000E+00  -1.0000000E+00  -1.0000000E+00
	2212	-1	0	0	0	0	0.0000000000E+00	0.0000000000E+00	6.5000000000E+03	6.5000000000E+03	9.3827000000E-01	0.000E+00	0.0
	2212	-1	0	0	0	0	0.0000000000E+00	0.0000000000E+00	-6.5000000000E+03	6.5000000000E+03	9.3827000000E-01	0.000E+00	0.0
	2212	1	0	0	0	0	0.0000000000E+00	0.0000000000E+00	6.1287243119E+03	6.1287243119E+03	9.3827000000E-01	0.000E+00	0.0
	2212	1	0	0	0	0	0.0000000000E+00	0.0000000000E+00	-5.7818340573E+03	5.7818340573E+03	9.3827000000E-01	0.000E+00	0.0
	51	2	1	2	0	0	6.2479830925E+01	-6.0917070086E+01	-2.5251832355E+02	1.0667381781E+03	1.0327391820E+03	0.000E+00	0.0
	1000022	2	5	5	0	0	-6.2479830925E+01	6.0917070086E+01	-3.8402889711E+02	9.3239853120E+02	8.4514744776E+02	0.000E+00	0.0
	14	1	6	6	0	0	6.4925413934E+01	-6.8652780161E+01	-4.4079388725E+02	5.5574523357E+02	3.2500000000E+02	0.000E+00	0.0
	-14	1	6	6	0	0	-1.2740524486E+02	1.2956985025E+02	5.6764990139E+01	3.7665329763E+02	3.2500000000E+02	0.000E+00	0.0
	25	2	5	5	0	0	6.2479830925E+01	-6.0917070086E+01	3.7138642461E+01	1.5704309960E+02	1.2517442897E+02	0.000E+00	0.0
	-5	1	9	9	0	501	6.0954464742E+01	-8.2886748416E+01	-1.1378226956E+01	1.0359824460E+02	4.1800000000E+00	0.000E+00	0.0
	5	1	9	9	501	0	1.5253661824E+00	2.1969678330E+01	4.8516869417E+01	5.3444855000E+01	4.1800000000E+00	0.000E+00	0.0
</event>
<event>
    11  -1  1.0000000E+00  1.0000000E+00  -1.0000000E+00  -1.0000000E+00
	2212	-1	0	0	0	0	0.0000000000E+00	0.0000000000E+00	6.5000000000E+03	6.5000000000E+03	9.3827000000E-01	0.000E+00	0.0
	2212	-1	0	0	0	0	0.0000000000E+00	0.0000000000E+00	-6.5000000000E+03	6.5000000000E+03	9.3827000000E-01	0.000E+00	0.0
	2212	1	0	0	0	0	0.0000000000E+00	0.0000000000E+00	5.5892926547E+03	5.5892926547E+03	9.3827000000E-01	0.000E+00	0.0
	2212	1	0	0	0	0	0.0000000000E+00	0.0000000000E+00	-6.2019335425E+03	6.2019335425E+03	9.3827000000E-01	0.000E+00	0.0
	51	2	1	2	0	0	2.2897794076E+00	-1.2718230141E+02	6.0450600656E+02	1.2113683758E+03	1.0420197930E+03	0.000E+00	0.0
	1000022	2	5	5	0	0	-2.2897794076E+00	1.2718230141E+02	5.2023460499E+02	1.0078060434E+03	8.5372618325E+02	0.000E+00	0.0
	14	1	6	6	0	0	9.8023590136E+01	-1.5810748555E+02	3.9987921143E+02	5.4784576748E+02	3.2500000000E+02	0.000E+00	0.0
	-14	1	6	6	0	0	-1.0031336954E+02	2.8528978696E+02	1.2035539356E+02	4.5996027591E+02	3.2500000000E+02	0.000E+00	0.0
	25	2	5	5	0	0	2.2897794076E+00	-1.2718230141E+02	9.2406282743E+01	2.0096775944E+02	1.2517403230E+02	0.000E+00	0.0
	-5	1	9	9	0	501	-3.2142840748E+01	5.5709095090E+00	-4.2066765628E+00	3.3156685175E+01	4.1800000000E+00	0.000E+00	0.0
	5	1	9	9	501	0	3.4432620155E+01	-1.3275321092E+02	9.6612959305E+01	1.6781107426E+02	4.1800000000E+00	0.000E+00	0.0
</event>
<event>
    11  -1  1.0000000E+00  1.0000000E+00  -1.0000000E+00  -1.0000000E+00
	2212	-1	0	0	0	0	0.0000000000E+00	0.0000000000E+00	6.5000000000E+03	6.5000000000E+03	9.3827000000E-01	0.000E+00	0.0
	2212	-1	0	0	0	0	0.0000000000E+00	0.0000000000E+00	-6.5000000000E+03	6.5000000000E+03	9.3827000000E-01	0.000E+00	0.0
	2212	1	0	0	0	0	0.0000000000E+00	0.0000000000E+00	6.2460498366E+03	6.2460498366E+03	9.3827000000E-01	0.000E+00	0.0
	2212	1	0	0	0	0	0.0000000000E+00	0.0000000000E+00	-5.3052598167E+03	5.3052598167E+03	9.3827000000E-01	0.000E+00	0.0
	51	2	1	2	0	0	-1.7964695378E+02	-6.5429732762E+01	-9.9570325589E+02	1.4971963500E+03	1.1016432539E+03	0.000E+00	0.0
	1000022	2	5	5	0	0	1.7964695378E+02	6.5429732762E+01	-7.0337742942E+02	1.1191598345E+03	8.4924957989E+02	0.000E+00	0.0
	14	1	6	6	0	0	5.9426651857E+01	-2.6019784802E+00	-6.9085950957E+02	7.6580033899E+02	3.2500000000E+02	0.000E+00	0.0
	-14	1	6	6	0	0	1.2022030193E+02	6.8031711243E+01	-1.2517919855E+01	3.5335949548E+02	3.2500000000E+02	0.000E+00	0.0
	25	2	5	5	0	0	-1.7964695378E+02	-6.5429732762E+01	-2.3741259051E+02	3.2953051216E+02	1.2518603109E+02	0.000E+00	0.0
	-5	1	9	9	0	501	4.1808265145E+00	-2.7650734715E+01	-7.8990403007E+01	8.3898740204E+01	4.1800000000E+00	0.000E+00	0.0
	5	1	9	9	501	0	-1.8382778030E+02	-3.7778998047E+01	-1.5842218750E+02	2.4563177196E+02	4.1800000000E+00	0.000E+00	0.0
</event>
<event>
    11  -1  1.0000000E+00  1.0000000E+00  -1.0000000E+00  -1.0000000E+00
	2212	-1	0	0	0	0	0.0000000000E+00	0.0000000000E+00	6.5000000000E+03	6.5000000000E+03	9.3827000000E-01	0.000E+00	0.0
	2212	-1	0	0	0	0	0.0000000000E+00	0.0000000000E+00	-6.5000000000E+03	6.5000000000E+03	9.3827000000E-01	0.000E+00	0.0
	2212	1	0	0	0	0	0.0000000000E+00	0.0000000000E+00	6.0111532731E+03	6.0111532731E+03	9.3827000000E-01	0.000E+00	0.0
	2212	1	0	0	0	0	0.0000000000E+00	0.0000000000E+00	-5.9448353702E+03	5.9448353702E+03	9.3827000000E-01	0.000E+00	0.0
	51	2	1	2	0	0	4.0940667563E+01	-5.0478686241E+00	-9.1345755742E+01	1.0467126230E+03	1.0419028980E+03	0.000E+00	0.0
	1000022	2	5	5	0	0	-4.0940667563E+01	5.0478686241E+00	-3.2822918889E+01	9.0801605273E+02	9.0648452208E+02	0.000E+00	0.0
	14	1	6	6	0	0	-2.4422136593E+01	-2.7481177240E+02	1.3498064271E+02	4.4717191874E+02	3.2500000000E+02	0.000E+00	0.0
	-14	1	6	6	0	0	-1.6518530970E+01	2.7985964103E+02	-1.6780356160E+02	4.6084413398E+02	3.2500000000E+02	0.000E+00	0.0
	25	2	5	5	0	0	4.0940667563E+01	-5.0478686241E+00	-3.3494983989E+01	1.3599530403E+02	1.2518462177E+02	0.000E+00	0.0
	-5	1	9	9	0	501	-4.1438625609E+01	1.5702048606E+01	1.9489821048E-01	4.4510947059E+01	4.1800000000E+00	0.000E+00	0.0
	5	1	9	9	501	0	8.2379293172E+01	-2.0749917230E+01	-3.3689882199E+01	9.1484356975E+01	4.1800000000E+00	0.000E+00	0.0
</event>
<event>
    11  -1  1.0000000E+00  1.0000000E+00  -1.0000000E+00  -1.0000000E+00
	2212	-1	0	0	0	0	0.0000000000E+00	0.0000000000E+00	6.5000000000E+03	6.5000000000E+03	9.3827000000E-01	0.000E+00	0.0
	2212	-1	0	0	0	0	0.0000000000E+00	0.0000000000E+00	-6.5000000000E+03	6.5000000000E+03	9.3827000000E-01	0.000E+00	0.0
	2212	1	0	0	0	0	0.0000000000E+00	0.0000000000E+00	6.3247367365E+03	6.3247367365E+03	9.3827000000E-01	0.000E+00	0.0
	2212	1	0	0	0	0	0.0000000000E+00	0.0000000000E+00	-4.9273618833E+03	4.9273618833E+03	9.3827000000E-01	0.000E+00	0.0
	51	2	1	2	0	0	-3.8786425185E+01	5.6705851167E+01	-1.2116603756E+03	1.6047876995E+03	1.0500013116E+03	0.000E+00	0.0
	1000022	2	5	5	0	0	3.8786425185E+01	-5.6705851167E+01	-1.3478547317E+03	1.5967726966E+03	8.5337607560E+02	0.000E+00	0.0
	14	1	6	6	0	0	-2.2114724247E+02	1.0788387317E+02	-6.8052995089E+02	7.9327866920E+02	3.2500000000E+02	0.000E+00	0.0
	-14	1	6	6	0	0	2.5993366766E+02	-1.6458972434E+02	-6.6732478080E+02	8.0349402736E+02	3.2500000000E+02	0.000E+00	0.0
	25	2	5	5	0	0	-3.8786425185E+01	5.6705851167E+01	-4.9520121566E+01	1.5112868362E+02	1.2517066845E+02	0.000E+00	0.0
	-5	1	9	9	0	501	1.9381365284E+00	1.5136398388E+01	-8.2571457362E+01	8.4073687324E+01	4.1800000000E+00	0.000E+00	0.0
	5	1	9	9	501	0	-4.0724561713E+01	4.1569452779E+01	3.3051335796E+01	6.7054996301E+01	4.1800000000E+00	0.000E+00	0.0
</event>
<event>
    11  -1  1.0000000E+00  1.0000000E+00  -1.0000000E+00  -1.0000000E+00
	2212	-1	0	0	0	0	0.0000000000E+00	0.0000000000E+00	6.5000000000E+03	6.5000000000E+03	9.3827000000E-01	0.000E+00	0.0
	2212	-1	0	0	0	0	0.0000000000E+00	0.0000000000E+00	-6.5000000000E+03	6.5000000000E+03	9.3827000000E-01	0.000E+00	0.0
	2212	1	0	0	0	0	0.0000000000E+00	0.0000000000E+00	6.2322653003E+03	6.2322653003E+03	9.3827000000E-01	0.000E+00	0.0
	2212	1	0	0	0	0	0.0000000000E+00	0.0000000000E+00	-5.4903598760E+03	5.4903598760E+03	9.3827000000E-01	0.000E+00	0.0
	51	2	1	2	0	0	-1.0252284895E+02	8.4540301279E+01	-8.5645043100E+02	1.3536720872E+03	1.0398378632E+03	0.000E+00	0.0
	1000022	2	5	5	0	0	1.0252284895E+02	-8.4540301279E+01	-4.9186128192E+02	9.6778207701E+02	8.2281020341E+02	0.000E+00	0.0
	14	1	6	6	0	0	-1.1944911384E+01	-2.8682049314E+02	-2.6866221304E+02	5.1011083199E+02	3.2500000000E+02	0.000E+00	0.0
	-14	1	6	6	0	0	1.1446776033E+02	2.0228019186E+02	-2.2319906888E+02	4.5767124503E+02	3.2500000000E+02	0.000E+00	0.0
	25	2	5	5	0	0	-1.0252284895E+02	8.4540301279E+01	-2.5004414236E+02	3.0959274671E+02	1.2517027838E+02	0.000E+00	0.0
	-5	1	9	9	0	501	-4.9123455891E+01	1.1175077535E+02	-1.7622905040E+02	2.1441898310E+02	4.1800000000E+00	0.000E+00	0.0
	5	1	9	9	501	0	-5.3399393059E+01	-2.7210474072E+01	-7.3815091961E+01	9.5173763609E+01	4.1800000000E+00	0.000E+00	0.0
</event>
<event>
    11  -1  1.0000000E+00  1.0000000E+00  -1.0000000E+00  -1.0000000E+00
	2212	-1	0	0	0	0	0.0000000000E+00	0.0000000000E+00	6.5000000000E+03	6.5000000000E+03	9.3827000000E-01	0.000E+00	0.0
	2212	-1	0	0	0	0	0.0000000000E+00	0.0000000000E+00	-6.5000000000E+03	6.5000000000E+03	9.3827000000E-01	0.000E+00	0.0
	2212	1	0	0	0	0	0.0000000000E+00	0.0000000000E+00	6.2047452185E+03	6.2047452185E+03	9.3827000000E-01	0.000E+00	0.0
	2212	1	0	0	0	0	0.0000000000E+00	0.0000000000E+00	-5.5607472000E+03	5.5607472000E+03	9.3827000000E-01	0.000E+00	0.0
	51	2	1	2	0	0	-2.5836222650E+00	1.0600605236E+02	-5.4816260651E+02	1.1920577681E+03	1.0532214967E+03	0.000E+00	0.0
	1000022	2	5	5	0	0	2.5836222650E+00	-1.0600605236E+02	-6.3187314930E+02	1.0700036750E+03	8.5697154536E+02	0.000E+00	0.0
	14	1	6	6	0	0	2.1755077287E+01	-2.5591044502E+02	-5.7258882297E+02	7.0671521806E+02	3.2500000000E+02	0.000E+00	0.0
	-14	1	6	6	0	0	-1.9171455022E+01	1.4990439266E+02	-5.9284326332E+01	3.6328845698E+02	3.2500000000E+02	0.000E+00	0.0
	25	2	5	5	0	0	-2.5836222650E+00	1.0600605236E+02	-1.2124869168E+01	1.6450390651E+02	1.2518212557E+02	0.000E+00	0.0
	-5	1	9	9	0	501	5.7612011319E+01	7.8952712576E+01	-1.0073638173E+01	9.8344421588E+01	4.1800000000E+00	0.000E+00	0.0
	5	1	9	9	501	0	-6.0195633584E+01	2.7053339784E+01	-2.0512309953E+00	6.6159484918E+01	4.1800000000E+00	0.000E+00	0.0
</event>
<event>
    11  -1  1.0000000E+00  1.0000000E+00  -1.0000000E+00  -1.0000000E+00
	2212	-1	0	0	0	0	0.0000000000E+00	0.0000000000E+00	6.5000000000E+03	6.5000000000E+03	9.3827000000E-01	0.000E+00	0.0
	2212	-1	0	0	0	0	0.0000000000E+00	0.0000000000E+00	-6.5000000000E+03	6.5000000000E+03	9.3827000000E-01	0.000E+00	0.0
	2212	1	0	0	0	0	0.0000000000E+00	0.0000000000E+00	6.2544959424E+03	6.2544959424E+03	9.3827000000E-01	0.000E+00	0.0
	2212	1	0	0	0	0	0.0000000000E+00	0.0000000000E+00	-5.3684352288E+03	5.3684352288E+03	9.3827000000E-01	0.000E+00	0.0
	51	2	1	2	0	0	4.6478527146E+00	1.2095060126E+02	-7.9335676867E+02	1.3248700253E+03	1.0541418173E+03	0.000E+00	0.0
	1000022	2	5	5	0	0	-4.6478527146E+00	-1.2095060126E+02	-8.2683355543E+02	1.1931443250E+03	8.5163900889E+02	0.000E+00	0.0
	14	1	6	6	0	0	-2.1978502950E+02	-2.0499082005E+01	-6.3633984147E+02	7.4784962753E+02	3.2500000000E+02	0.000E+00	0.0
	-14	1	6	6	0	0	2.1513717678E+02	-1.0045151925E+02	-1.9049371396E+02	4.4529469749E+02	3.2500000000E+02	0.000E+00	0.0
	25	2	5	5	0	0	4.6478527146E+00	1.2095060126E+02	-5.9227158127E+01	1.8392450375E+02	1.2517873757E+02	0.000E+00	0.0
	-5	1	9	9	0	501	-6.0215487385E+00	-2.5288604139E+01	-1.6768375173E+01	3.1215754908E+01	4.1800000000E+00	0.000E+00	0.0
	5	1	9	9	501	0	1.0669401453E+01	1.4623920540E+02	-4.2458782954E+01	1.5270874884E+02	4.1800000000E+00	0.000E+00	0.0
</event>
<event>
    11  -1  1.0000000E+00  1.0000000E+00  -1.0000000E+00  -1.0000000E+00
	2212	-1	0	0	0	0	0.0000000000E+00	0.0000000000E+00	6.5000000000E+03	6.5000000000E+03	9.3827000000E-01	0.000E+00	0.0
	2212	-1	0	0	0	0	0.0000000000E+00	0.0000000000E+00	-6.5000000000E+03	6.5000000000E+03	9.3827000000E-01	0.000E+00	0.0
	2212	1	0	0	0	0	0.0000000000E+00	0.0000000000E+00	6.1369784358E+03	6.1369784358E+03	9.3827000000E-01	0.000E+00	0.0
	2212	1	0	0	0	0	0.0000000000E+00	0.0000000000E+00	-5.7594923724E+03	5.7594923724E+03	9.3827000000E-01	0.000E+00	0.0
	51	2	1	2	0	0	-1.1838113284E+02	-3.2644172020E+01	-4.1477438801E+02	1.1235650744E+03	1.0369575444E+03	0.000E+00	0.0
	1000022	2	5	5	0	0	1.1838113284E+02	3.2644172020E+01	-2.7810164606E+02	9.0196382315E+02	8.4918695124E+02	0.000E+00	0.0
	14	1	6	6	0	0	1.6982240258E+02	-1.0370450172E+02	8.8087250272E+01	3.9112483398E+02	3.2500000000E+02	0.000E+00	0.0
	-14	1	6	6	0	0	-5.1441269736E+01	1.3634867374E+02	-3.6618889633E+02	5.1083898917E+02	3.2500000000E+02	0.000E+00	0.0
	25	2	5	5	0	0	-1.1838113284E+02	-3.2644172020E+01	-9.9384417338E+01	2.0156536857E+02	1.2518626449E+02	0.000E+00	0.0
	-5	1	9	9	0	501	-1.0928317592E+01	3.9722740832E+01	-6.0697684068E+00	4.1852583589E+01	4.1800000000E+00	0.000E+00	0.0
	5	1	9	9	501	0	-1.0745281525E+02	-7.2366912852E+01	-9.3314648932E+01	1.5971278498E+02	4.1800000000E+00	0.000E+00	0.0
</event>
<event>
    11  -1  1.0000000E+00  1.0000000E+00  -1.0000000E+00  -1.0000000E+00
	2212	-1	0	0	0	0	0.0000000000E+00	0.0000000000E+00	6.5000000000E+03	6.5000000000E+03	9.3827000000E-01	0.000E+00	0.0
	2212	-1	0	0	0	0	0.0000000000E+00	0.0000000000E+00	-6.5000000000E+03	6.5000000000E+03	9.3827000000E-01	0.000E+00	0.0
	2212	1	0	0	0	0	0.0000000000E+00	0.0000000000E+00	6.2852919496E+03	6.2852919496E+03	9.3827000000E-01	0.000E+00	0.0
	2212	1	0	0	0	0	0.0000000000E+00	0.0000000000E+00	-5.2392336650E+03	5.2392336650E+03	9.3827000000E-01	0.000E+00	0.0
	51	2	1	2	0	0	-3.7674393335E+01	1.1943098401E+02	-1.1190941319E+03	1.5332454217E+03	1.0405703855E+03	0.000E+00	0.0
	1000022	2	5	5	0	0	3.7674393335E+01	-1.1943098401E+02	-7.9777139626E+02	1.1705102186E+03	8.4733219658E+02	0.000E+00	0.0
	14	1	6	6	0	0	9.6235244633E+01	1.8410944241E+02	-5.0262236836E+02	6.3357063874E+02	3.2500000000E+02	0.000E+00	0.0
	-14	1	6	6	0	0	-5.8560851298E+01	-3.0354042642E+02	-2.9514902790E+02	5.3693957988E+02	3.2500000000E+02	0.000E+00	0.0
	25	2	5	5	0	0	-3.7674393335E+01	1.1943098401E+02	-2.4828688832E+02	3.0496416674E+02	1.2519442570E+02	0.000E+00	0.0
	-5	1	9	9	0	501	-5.2407316080E+01	1.7989247329E+01	-2.8580620164E+01	6.2485710743E+01	4.1800000000E+00	0.000E+00	0.0
	5	1	9	9	501	0	1.4732922745E+01	1.0144173668E+02	-2.1970626816E+02	2.4247845599E+02	4.1800000000E+00	0.000E+00	0.0
</event>
<event>
    11  -1  1.0000000E+00  1.0000000E+00  -1.0000000E+00  -1.0000000E+00
	2212	-1	0	0	0	0	0.0000000000E+00	0.0000000000E+00	6.5000000000E+03	6.5000000000E+03	9.3827000000E-01	0.000E+00	0.0
	2212	-1	0	0	0	0	0.0000000000E+00	0.0000000000E+00	-6.5000000000E+03	6.5000000000E+03	9.3827000000E-01	0.000E+00	0.0
	2212	1	0	0	0	0	0.0000000000E+00	0.0000000000E+00	6.0023635558E+03	6.0023635558E+03	9.3827000000E-01	0.000E+00	0.0
	2212	1	0	0	0	0	0.0000000000E+00	0.0000000000E+00	-5.9417433725E+03	5.9417433725E+03	9.3827000000E-01	0.000E+00	0.0
	51	2	1	2	0	0	-3.9077246060E+01	-3.6631663232E+01	9.5166769258E+01	1.0597929025E+03	1.0541514940E+03	0.000E+00	0.0
	1000022	2	5	5	0	0	3.9077246060E+01	3.6631663232E+01	-2.0522801320E+02	8.5727330387E+02	8.3062029244E+02	0.000E+00	0.0
	14	1	6	6	0	0	2.5077751439E+01	2.2353797466E+02	5.7281783937E+01	3.9937992251E+02	3.2500000000E+02	0.000E+00	0.0
	-14	1	6	6	0	0	1.3999494620E+01	-1.8690631143E+02	-2.6250979713E+02	4.5789338136E+02	3.2500000000E+02	0.000E+00	0.0
	25	2	5	5	0	0	-3.9077246060E+01	-3.6631663232E+01	1.4460782984E+02	1.9861976784E+02	1.2517778483E+02	0.000E+00	0.0
	-5	1	9	9	0	501	1.6544688506E+01	4.3044801503E+00	-1.5973523243E+01	2.3767227687E+01	4.1800000000E+00	0.000E+00	0.0
	5	1	9	9	501	0	-5.5621934566E+01	-4.0936143382E+01	1.6058135308E+02	1.7485254015E+02	4.1800000000E+00	0.000E+00	0.0
</event>
<event>
    11  -1  1.0000000E+00  1.0000000E+00  -1.0000000E+00  -1.0000000E+00
	2212	-1	0	0	0	0	0.0000000000E+00	0.0000000000E+00	6.5000000000E+03	6.5000000000E+03	9.3827000000E-01	0.000E+00	0.0
	2212	-1	0	0	0	0	0.0000000000E+00	0.0000000000E+00	-6.5000000000E+03	6.5000000000E+03	9.3827000000E-01	0.000E+00	0.0
	2212	1	0	0	0	0	0.0000000000E+00	0.0000000000E+00	6.1182430674E+03	6.1182430674E+03	9.3827000000E-01	0.000E+00	0.0
	2212	1	0	0	0	0	0.0000000000E+00	0.0000000000E+00	-5.7825873192E+03	5.7825873192E+03	9.3827000000E-01	0.000E+00	0.0
	51	2	1	2	0	0	-5.2161454335E+01	1.1648421409E+02	-2.6974757541E+02	1.0883759469E+03	1.0466656858E+03	0.000E+00	0.0
	1000022	2	5	5	0	0	5.2161454335E+01	-1.1648421409E+02	-3.4362211822E+02	9.2022164983E+02	8.4406299245E+02	0.000E+00	0.0
	14	1	6	6	0	0	-1.9942647242E+02	-7.8284633654E+01	-3.2488386761E+02	5.0702458441E+02	3.2500000000E+02	0.000E+00	0.0
	-14	1	6	6	0	0	2.5158792675E+02	-3.8199580437E+01	-1.8738250619E+01	4.1319706542E+02	3.2500000000E+02	0.000E+00	0.0
	25	2	5	5	0	0	-5.2161454335E+01	1.1648421409E+02	7.9663700788E+00	1.7894796359E+02	1.2517795801E+02	0.000E+00	0.0
	-5	1	9	9	0	501	-7.0544084969E+01	8.7954786875E+01	-4.0289089391E+01	1.1980482287E+02	4.1800000000E+00	0.000E+00	0.0
	5	1	9	9	501	0	1.8382630634E+01	2.8529427216E+01	4.8255459470E+01	5.9143140726E+01	4.1800000000E+00	0.000E+00	0.0
</event>
<event>
    11  -1  1.0000000E+00  1.0000000E+00  -1.0000000E+00  -1.0000000E+00
	2212	-1	0	0	0	0	0.0000000000E+00	0.0000000000E+00	6.5000000000E+03	6.5000000000E+03	9.3827000000E-01	0.000E+00	0.0
	2212	-1	0	0	0	0	0.0000000000E+00	0.0000000000E+00	-6.5000000000E+03	6.5000000000E+03	9.3827000000E-01	0.000E+00	0.0
	2212	1	0	0	0	0	0.0000000000E+00	0.0000000000E+00	5.7837158183E+03	5.7837158183E+03	9.3827000000E-01	0.000E+00	0.0
	2212	1	0	0	0	0	0.0000000000E+00	0.0000000000E+00	-6.1180964757E+03	6.1180964757E+03	9.3827000000E-01	0.000E+00	0.0
	51	2	1	2	0	0	-4.7548877939E+01	6.9191265133E+01	2.3180280812E+02	1.0747030671E+03	1.0460429310E+03	0.000E+00	0.0
	1000022	2	5	5	0	0	4.7548877939E+01	-6.9191265133E+01	3.8170632884E+02	9.4021070499E+02	8.5513047036E+02	0.000E+00	0.0
	14	1	6	6	0	0	4.4782646139E+01	-9.0337993398E+01	-1.0363627202E+02	3.5571324873E+02	3.2500000000E+02	0.000E+00	0.0
	-14	1	6	6	0	0	2.7662318002E+00	2.1146728265E+01	4.8534260086E+02	5.8449745625E+02	3.2500000000E+02	0.000E+00	0.0
	25	2	5	5	0	0	-4.7548877939E+01	6.9191265133E+01	-4.7325671430E+01	1.5797700099E+02	1.2517462484E+02	0.000E+00	0.0
	-5	1	9	9	0	501	-7.3955054311E+00	-3.1675661703E+01	1.1094130435E+01	3.4620704426E+01	4.1800000000E+00	0.000E+00	0.0
	5	1	9	9	501	0	-4.0153372508E+01	1.0086692684E+02	-5.8419801865E+01	1.2335629657E+02	4.1800000000E+00	0.000E+00	0.0
</event>
<event>
    11  -1  1.0000000E+00  1.0000000E+00  -1.0000000E+00  -1.0000000E+00
	2212	-1	0	0	0	0	0.0000000000E+00	0.0000000000E+00	6.5000000000E+03	6.5000000000E+03	9.3827000000E-01	0.000E+00	0.0
	2212	-1	0	0	0	0	0.0000000000E+00	0.0000000000E+00	-6.5000000000E+03	6.5000000000E+03	9.3827000000E-01	0.000E+00	0.0
	2212	1	0	0	0	0	0.0000000000E+00	0.0000000000E+00	6.1821473083E+03	6.1821473083E+03	9.3827000000E-01	0.000E+00	0.0
	2212	1	0	0	0	0	0.0000000000E+00	0.0000000000E+00	-5.6516979654E+03	5.6516979654E+03	9.3827000000E-01	0.000E+00	0.0
	51	2	1	2	0	0	-2.9445064607E+00	-1.2178881695E+02	-5.2412314206E+02	1.1696523390E+03	1.0385279679E+03	0.000E+00	0.0
	1000022	2	5	5	0	0	2.9445064607E+00	1.2178881695E+02	-4.5110370699E+02	9.7431374248E+02	8.5495703300E+02	0.000E+00	0.0
	14	1	6	6	0	0	-6.9503405481E+01	5.2968312127E+01	-5.2760213920E+02	6.2579979447E+02	3.2500000000E+02	0.000E+00	0.0
	-14	1	6	6	0	0	7.2447911941E+01	6.8820504822E+01	7.6498432211E+01	3.4851394801E+02	3.2500000000E+02	0.000E+00	0.0
	25	2	5	5	0	0	-2.9445064607E+00	-1.2178881695E+02	-7.9345635922E+01	1.9184098374E+02	1.2516408052E+02	0.000E+00	0.0
	-5	1	9	9	0	501	2.3787022162E+01	-1.0318778391E+02	-1.0574559073E+02	1.4971019848E+02	4.1800000000E+00	0.000E+00	0.0
	5	1	9	9	501	0	-2.6731528622E+01	-1.8601033041E+01	2.6399954809E+01	4.2130785259E+01	4.1800000000E+00	0.000E+00	0.0
</event>
<event>
    11  -1  1.0000000E+00  1.0000000E+00  -1.0000000E+00  -1.0000000E+00
	2212	-1	0	0	0	0	0.0000000000E+00	0.0000000000E+00	6.5000000000E+03	6.5000000000E+03	9.3827000000E-01	0.000E+00	0.0
	2212	-1	0	0	0	0	0.0000000000E+00	0.0000000000E+00	-6.5000000000E+03	6.5000000000E+03	9.3827000000E-01	0.000E+00	0.0
	2212	1	0	0	0	0	0.0000000000E+00	0.0000000000E+00	6.1860824760E+03	6.1860824760E+03	9.3827000000E-01	0.000E+00	0.0
	2212	1	0	0	0	0	0.0000000000E+00	0.0000000000E+00	-5.6231926959E+03	5.6231926959E+03	9.3827000000E-01	0.000E+00	0.0
	51	2	1	2	0	0	4.8664380910E+01	-7.2650149341E+01	-5.5410987769E+02	1.1898171013E+03	1.0492762800E+03	0.000E+00	0.0
	1000022	2	5	5	0	0	-4.8664380910E+01	7.2650149341E+01	-4.9156853163E+02	1.0221883181E+03	8.9195463466E+02	0.000E+00	0.0
	14	1	6	6	0	0	-1.4154412163E+02	-1.8791859352E+01	6.8629268877E+01	3.6155614902E+02	3.2500000000E+02	0.000E+00	0.0
	-14	1	6	6	0	0	9.2879740719E+01	9.1442008693E+01	-5.6019780051E+02	6.6063216912E+02	3.2500000000E+02	0.000E+00	0.0
	25	2	5	5	0	0	4.8664380910E+01	-7.2650149341E+01	-7.1321248520E+01	1.6853651000E+02	1.2518613559E+02	0.000E+00	0.0
	-5	1	9	9	0	501	-3.0403913519E+01	-4.4819042653E+01	5.7076230399E+00	5.4618622304E+01	4.1800000000E+00	0.000E+00	0.0
	5	1	9	9	501	0	7.9068294429E+01	-2.7831106688E+01	-7.7028871560E+01	1.1391788770E+02	4.1800000000E+00	0.000E+00	0.0
</event>
<event>
    11  -1  1.0000000E+00  1.0000000E+00  -1.0000000E+00  -1.0000000E+00
	2212	-1	0	0	0	0	0.0000000000E+00	0.0000000000E+00	6.5000000000E+03	6.5000000000E+03	9.3827000000E-01	0.000E+00	0.0
	2212	-1	0	0	0	0	0.0000000000E+00	0.0000000000E+00	-6.5000000000E+03	6.5000000000E+03	9.3827000000E-01	0.000E+00	0.0
	2212	1	0	0	0	0	0.0000000000E+00	0.0000000000E+00	5.2024240285E+03	5.2024240285E+03	9.3827000000E-01	0.000E+00	0.0
	2212	1	0	0	0	0	0.0000000000E+00	0.0000000000E+00	-6.2877374807E+03	6.2877374807E+03	9.3827000000E-01	0.000E+00	0.0
	51	2	1	2	0	0	-7.9459616756E+01	-7.7031252271E+01	9.5625903654E+02	1.4242141581E+03	1.0496223029E+03	0.000E+00	0.0
	1000022	2	5	5	0	0	7.9459616756E+01	7.7031252271E+01	1.0251792963E+03	1.3322723260E+03	8.4362866038E+02	0.000E+00	0.0
	14	1	6	6	0	0	2.6559167776E+02	1.8590917764E+02	5.9695685687E+02	7.5304956715E+02	3.2500000000E+02	0.000E+00	0.0
	-14	1	6	6	0	0	-1.8613206101E+02	-1.0887792537E+02	4.2822243939E+02	5.7922275885E+02	3.2500000000E+02	0.000E+00	0.0
	25	2	5	5	0	0	-7.9459616756E+01	-7.7031252271E+01	6.0134155910E+01	1.7756616478E+02	1.2516381924E+02	0.000E+00	0.0
	-5	1	9	9	0	501	-7.7035891026E+01	9.8802997201E+00	4.2916831269E+01	8.8833977930E+01	4.1800000000E+00	0.000E+00	0.0
	5	1	9	9	501	0	-2.4237257298E+00	-8.6911551991E+01	1.7217324641E+01	8.8732186853E+01	4.1800000000E+00	0.000E+00	0.0
</event>
<event>
    11  -1  1.0000000E+00  1.0000000E+00  -1.0000000E+00  -1.0000000E+00
	2212	-1	0	0	0	0	0.0000000000E+00	0.0000000000E+00	6.5000000000E+03	6.5000000000E+03	9.3827000000E-01	0.000E+00	0.0
	2212	-1	0	0	0	0	0.0000000000E+00	0.0000000000E+00	-6.5000000000E+03	6.5000000000E+03	9.3827000000E-01	0.000E+00	0.0
	2212	1	0	0	0	0	0.0000000000E+00	0.0000000000E+00	5.5544998837E+03	5.5544998837E+03	9.3827000000E-01	0.000E+00	0.0
	2212	1	0	0	0	0	0.0000000000E+00	0.0000000000E+00	-6.2087977203E+03	6.2087977203E+03	9.3827000000E-01	0.000E+00	0.0
	51	2	1	2	0	0	-9.7852891772E+01	6.7264472340E+00	7.8010265524E+02	1.3113000205E+03	1.0494413549E+03	0.000E+00	0.0
	1000022	2	5	5	0	0	9.7852891772E+01	-6.7264472340E+00	4.1669141174E+02	9.5078615413E+02	8.4896533778E+02	0.000E+00	0.0
	14	1	6	6	0	0	1.4795521377E+02	-8.9306906302E+01	4.8100811457E+02	6.0568991661E+02	3.2500000000E+02	0.000E+00	0.0
	-14	1	6	6	0	0	-5.0102322000E+01	8.2580459068E+01	-6.4316702829E+01	3.4509623752E+02	3.2500000000E+02	0.000E+00	0.0
	25	2	5	5	0	0	-9.7852891772E+01	6.7264472340E+00	2.3760642485E+02	2.8591624193E+02	1.2518326864E+02	0.000E+00	0.0
	-5	1	9	9	0	501	1.4579144085E+01	2.3125721815E+01	1.1676149760E+02	1.1999195879E+02	4.1800000000E+00	0.000E+00	0.0
	5	1	9	9	501	0	-1.1243203586E+02	-1.6399274581E+01	1.2084492725E+02	1.6592428314E+02	4.1800000000E+00	0.000E+00	0.0
</event>
<event>
    11  -1  1.0000000E+00  1.0000000E+00  -1.0000000E+00  -1.0000000E+00
	2212	-1	0	0	0	0	0.0000000000E+00	0.0000000000E+00	6.5000000000E+03	6.5000000000E+03	9.3827000000E-01	0.000E+00	0.0
	2212	-1	0	0	0	0	0.0000000000E+00	0.0000000000E+00	-6.5000000000E+03	6.5000000000E+03	9.3827000000E-01	0.000E+00	0.0
	2212	1	0	0	0	0	0.0000000000E+00	0.0000000000E+00	5.1763180965E+03	5.1763180965E+03	9.3827000000E-01	0.000E+00	0.0
	2212	1	0	0	0	0	0.0000000000E+00	0.0000000000E+00	-6.2778201728E+03	6.2778201728E+03	9.3827000000E-01	0.000E+00	0.0
	51	2	1	2	0	0	2.1464711860E+01	1.5863288093E+02	1.3110941833E+03	1.7090859395E+03	1.0846112973E+03	0.000E+00	0.0
	1000022	2	5	5	0	0	-2.1464711860E+01	-1.5863288093E+02	6.6537714819E+02	1.0647185398E+03	8.1564311736E+02	0.000E+00	0.0
	14	1	6	6	0	0	9.4079371095E+01	-2.3073796681E+02	1.4136922469E+02	4.3324495967E+02	3.2500000000E+02	0.000E+00	0.0
	-14	1	6	6	0	0	-1.1554408295E+02	7.2105085872E+01	5.2400792350E+02	6.3147358013E+02	3.2500000000E+02	0.000E+00	0.0
	25	2	5	5	0	0	2.1464711860E+01	1.5863288093E+02	4.3612492807E+02	4.8114319086E+02	1.2517464785E+02	0.000E+00	0.0
	-5	1	9	9	0	501	3.2213602601E+01	4.9043260313E+01	4.2999034505E+01	7.2865265683E+01	4.1800000000E+00	0.000E+00	0.0
	5	1	9	9	501	0	-1.0748890741E+01	1.0958962062E+02	3.9312589356E+02	4.0827792518E+02	4.1800000000E+00	0.000E+00	0.0
</event>
<event>
    11  -1  1.0000000E+00  1.0000000E+00  -1.0000000E+00  -1.0000000E+00
	2212	-1	0	0	0	0	0.0000000000E+00	0.0000000000E+00	6.5000000000E+03	6.5000000000E+03	9.3827000000E-01	0.000E+00	0.0
	2212	-1	0	0	0	0	0.0000000000E+00	0.0000000000E+00	-6.5000000000E+03	6.5000000000E+03	9.3827000000E-01	0.000E+00	0.0
	2212	1	0	0	0	0	0.0000000000E+00	0.0000000000E+00	6.2717131149E+03	6.2717131149E+03	9.3827000000E-01	0.000E+00	0.0
	2212	1	0	0	0	0	0.0000000000E+00	0.0000000000E+00	-5.2307869362E+03	5.2307869362E+03	9.3827000000E-01	0.000E+00	0.0
	51	2	1	2	0	0	2.7625619002E+01	-1.1908307393E+02	-9.1312647987E+02	1.4169413217E+03	1.0765587711E+03	0.000E+00	0.0
	1000022	2	5	5	0	0	-2.7625619002E+01	1.1908307393E+02	-9.8505453599E+02	1.3138248292E+03	8.6073183374E+02	0.000E+00	0.0
	14	1	6	6	0	0	-2.2961234459E+02	-9.7053174352E+01	-3.3494166000E+02	5.2910496411E+02	3.2500000000E+02	0.000E+00	0.0
	-14	1	6	6	0	0	2.0198672559E+02	2.1613624828E+02	-6.5011287599E+02	7.8471986509E+02	3.2500000000E+02	0.000E+00	0.0
	25	2	5	5	0	0	2.7625619002E+01	-1.1908307393E+02	-5.5871642696E+01	1.8367511976E+02	1.2518368839E+02	0.000E+00	0.0
	-5	1	9	9	0	501	-4.5623352948E+01	-4.3900406269E+01	2.4928559351E+00	6.3501360108E+01	4.1800000000E+00	0.000E+00	0.0
	5	1	9	9	501	0	7.3248971950E+01	-7.5182667657E+01	-5.8364498631E+01	1.2017375965E+02	4.1800000000E+00	0.000E+00	0.0
</event>
<event>
    11  -1  1.0000000E+00  1.0000000E+00  -1.0000000E+00  -1.0000000E+00
	2212	-1	0	0	0	0	0.0000000000E+00	0.0000000000E+00	6.5000000000E+03	6.5000000000E+03	9.3827000000E-01	0.000E+00	0.0
	2212	-1	0	0	0	0	0.0000000000E+00	0.0000000000E+00	-6.5000000000E+03	6.5000000000E+03	9.3827000000E-01	0.000E+00	0.0
	2212	1	0	0	0	0	0.0000000000E+00	0.0000000000E+00	5.3223845369E+03	5.3223845369E+03	9.3827000000E-01	0.000E+00	0.0
	2212	1	0	0	0	0	0.0000000000E+00	0.0000000000E+00	-6.2663786126E+03	6.2663786126E+03	9.3827000000E-01	0.000E+00	0.0
	51	2	1	2	0	0	8.7447875649E+01	-5.5258911344E+01	8.2553821931E+02	1.3389095051E+03	1.0490303300E+03	0.000E+00	0.0
	1000022	2	5	5	0	0	-8.7447875649E+01	5.5258911344E+01	9.0183545833E+02	1.2434513921E+03	8.4980203132E+02	0.000E+00	0.0
	14	1	6	6	0	0	3.2979381419E+01	-2.2147353886E+02	2.9949832559E+02	4.9544163637E+02	3.2500000000E+02	0.000E+00	0.0
	-14	1	6	6	0	0	-1.2042725707E+02	2.7673245020E+02	6.0233713274E+02	7.4800975576E+02	3.2500000000E+02	0.000E+00	0.0
	25	2	5	5	0	0	8.7447875649E+01	-5.5258911344E+01	4.2158617430E+01	1.6778545838E+02	1.2519557813E+02	0.000E+00	0.0
	-5	1	9	9	0	501	9.3357556477E+01	-2.1897969167E+01	7.3927764013E+01	1.2115255299E+02	4.1800000000E+00	0.000E+00	0.0
	5	1	9	9	501	0	-5.9096808283E+00	-3.3360942177E+01	-3.1769146583E+01	4.6632905390E+01	4.1800000000E+00	0.000E+00	0.0
</event>
<event>
    11  -1  1.0000000E+00  1.0000000E+00  -1.0000000E+00  -1.0000000E+00
	2212	-1	0	0	0	0	0.0000000000E+00	0.0000000000E+00	6.5000000000E+03	6.5000000000E+03	9.3827000000E-01	0.000E+00	0.0
	2212	-1	0	0	0	0	0.0000000000E+00	0.0000000000E+00	-6.5000000000E+03	6.5000000000E+03	9.3827000000E-01	0.000E+00	0.0
	2212	1	0	0	0	0	0.0000000000E+00	0.0000000000E+00	5.6271995399E+03	5.6271995399E+03	9.3827000000E-01	0.000E+00	0.0
	2212	1	0	0	0	0	0.0000000000E+00	0.0000000000E+00	-6.1897195754E+03	6.1897195754E+03	9.3827000000E-01	0.000E+00	0.0
	51	2	1	2	0	0	7.6157814807E+01	-8.6447126520E+01	6.3459883524E+02	1.2244347224E+03	1.0407937304E+03	0.000E+00	0.0
	1000022	2	5	5	0	0	-7.6157814807E+01	8.6447126520E+01	3.9736727818E+02	9.4597576125E+02	8.5070339641E+02	0.000E+00	0.0
	14	1	6	6	0	0	-9.9612412336E+01	1.2159212851E+02	4.8698683480E+02	6.0620826098E+02	3.2500000000E+02	0.000E+00	0.0
	-14	1	6	6	0	0	2.3454597529E+01	-3.5145001989E+01	-8.9619556625E+01	3.3976750027E+02	3.2500000000E+02	0.000E+00	0.0
	25	2	5	5	0	0	7.6157814807E+01	-8.6447126520E+01	1.6515275737E+02	2.3710512341E+02	1.2518102029E+02	0.000E+00	0.0
	-5	1	9	9	0	501	4.3559433114E+01	-5.9480456546E+00	1.3968909651E+02	1.4650365028E+02	4.1800000000E+00	0.000E+00	0.0
	5	1	9	9	501	0	3.2598381693E+01	-8.0499080865E+01	2.5463660856E+01	9.0601473130E+01	4.1800000000E+00	0.000E+00	0.0
</event>
<event>
    11  -1  1.0000000E+00  1.0000000E+00  -1.0000000E+00  -1.0000000E+00
	2212	-1	0	0	0	0	0.0000000000E+00	0.0000000000E+00	6.5000000000E+03	6.5000000000E+03	9.3827000000E-01	0.000E+00	0.0
	2212	-1	0	0	0	0	0.0000000000E+00	0.0000000000E+00	-6.5000000000E+03	6.5000000000E+03	9.3827000000E-01	0.000E+00	0.0
	2212	1	0	0	0	0	0.0000000000E+00	0.0000000000E+00	6.0473858771E+03	6.0473858771E+03	9.3827000000E-01	0.000E+00	0.0
	2212	1	0	0	0	0	0.0000000000E+00	0.0000000000E+00	-5.8819054755E+03	5.8819054755E+03	9.3827000000E-01	0.000E+00	0.0
	51	2	1	2	0	0	1.2338115504E+02	7.9080597075E+01	-1.1786737616E+02	1.0744312975E+03	1.0578436767E+03	0.000E+00	0.0
	1000022	2	5	5	0	0	-1.2338115504E+02	-7.9080597075E+01	-1.8374805198E+02	8.7711247444E+02	8.4503626902E+02	0.000E+00	0.0
	14	1	6	6	0	0	-1.3711415982E+02	-2.6184465658E+02	4.1527445394E+01	4.4126233209E+02	3.2500000000E+02	0.000E+00	0.0
	-14	1	6	6	0	0	1.3733004778E+01	1.8276405951E+02	-2.2527549738E+02	4.3585014235E+02	3.2500000000E+02	0.000E+00	0.0
	25	2	5	5	0	0	1.2338115504E+02	7.9080597075E+01	1.8267650384E+01	1.9359617299E+02	1.2517635917E+02	0.000E+00	0.0
	-5	1	9	9	0	501	-2.3016119170E+01	7.7279582454E+00	-1.2775156930E+01	2.7751398431E+01	4.1800000000E+00	0.000E+00	0.0
	5	1	9	9	501	0	1.4639727421E+02	7.1352638830E+01	3.1042807314E+01	1.6584477456E+02	4.1800000000E+00	0.000E+00	0.0
</event>
<event>
    11  -1  1.0000000E+00  1.0000000E+00  -1.0000000E+00  -1.0000000E+00
	2212	-1	0	0	0	0	0.0000000000E+00	0.0000000000E+00	6.5000000000E+03	6.5000000000E+03	9.3827000000E-01	0.000E+00	0.0
	2212	-1	0	0	0	0	0.0000000000E+00	0.0000000000E+00	-6.5000000000E+03	6.5000000000E+03	9.3827000000E-01	0.000E+00	0.0
	2212	1	0	0	0	0	0.0000000000E+00	0.0000000000E+00	6.1867609955E+03	6.1867609955E+03	9.3827000000E-01	0.000E+00	0.0
	2212	1	0	0	0	0	0.0000000000E+00	0.0000000000E+00	-5.6102182092E+03	5.6102182092E+03	9.3827000000E-01	0.000E+00	0.0
	51	2	1	2	0	0	5.7540661712E+01	1.3753081460E+02	-5.3781175945E+02	1.1942883199E+03	1.0558681024E+03	0.000E+00	0.0
	1000022	2	5	5	0	0	-5.7540661712E+01	-1.3753081460E+02	-5.1294184941E+02	9.9822622071E+02	8.4327966543E+02	0.000E+00	0.0
	14	1	6	6	0	0	-2.9470861634E+01	1.9683747638E+02	-1.6272745939E+02	4.1438961115E+02	3.2500000000E+02	0.000E+00	0.0
	-14	1	6	6	0	0	-2.8069800078E+01	-3.3436829097E+02	-3.5021439002E+02	5.8383660956E+02	3.2500000000E+02	0.000E+00	0.0
	25	2	5	5	0	0	5.7540661712E+01	1.3753081460E+02	-6.3600936911E+01	2.0479457465E+02	1.2518021376E+02	0.000E+00	0.0
	-5	1	9	9	0	501	-4.9908241256E+00	2.5420884660E+01	-7.1450669637E+01	7.6117017111E+01	4.1800000000E+00	0.000E+00	0.0
	5	1	9	9	501	0	6.2531485838E+01	1.1210992994E+02	7.8497327256E+00	1.2867755754E+02	4.1800000000E+00	0.000E+00	0.0
</event>
<event>
    11  -1  1.0000000E+00  1.0000000E+00  -1.0000000E+00  -1.0000000E+00
	2212	-1	0	0	0	0	0.0000000000E+00	0.0000000000E+00	6.5000000000E+03	6.5000000000E+03	9.3827000000E-01	0.000E+00	0.0
	2212	-1	0	0	0	0	0.0000000000E+00	0.0000000000E+00	-6.5000000000E+03	6.5000000000E+03	9.3827000000E-01	0.000E+00	0.0
	2212	1	0	0	0	0	0.0000000000E+00	0.0000000000E+00	6.3026584295E+03	6.3026584295E+03	9.3827000000E-01	0.000E+00	0.0
	2212	1	0	0	0	0	0.0000000000E+00	0.0000000000E+00	-5.1101169496E+03	5.1101169496E+03	9.3827000000E-01	0.000E+00	0.0
	51	2	1	2	0	0	-7.9313824359E+01	4.8724653862E+01	-1.3669923203E+03	1.7246621683E+03	1.0474382159E+03	0.000E+00	0.0
	1000022	2	5	5	0	0	7.9313824359E+01	-4.8724653862E+01	-8.1309219651E+02	1.1769424127E+03	8.4581898068E+02	0.000E+00	0.0
	14	1	6	6	0	0	2.2606482576E+02	-1.0119882171E+01	-1.5079980826E+02	4.2376089913E+02	3.2500000000E+02	0.000E+00	0.0
	-14	1	6	6	0	0	-1.4675100140E+02	-3.8604771691E+01	-6.6229238825E+02	7.5318151354E+02	3.2500000000E+02	0.000E+00	0.0
	25	2	5	5	0	0	-7.9313824359E+01	4.8724653862E+01	-3.7944928332E+02	4.1028220824E+02	1.2523959901E+02	0.000E+00	0.0
	-5	1	9	9	0	501	1.1422262758E+01	-2.3236765885E+01	-2.1100082461E+01	3.3661569410E+01	4.1800000000E+00	0.000E+00	0.0
	5	1	9	9	501	0	-9.0736087118E+01	7.1961419747E+01	-3.5834920086E+02	3.7662063883E+02	4.1800000000E+00	0.000E+00	0.0
</event>
<event>
    11  -1  1.0000000E+00  1.0000000E+00  -1.0000000E+00  -1.0000000E+00
	2212	-1	0	0	0	0	0.0000000000E+00	0.0000000000E+00	6.5000000000E+03	6.5000000000E+03	9.3827000000E-01	0.000E+00	0.0
	2212	-1	0	0	0	0	0.0000000000E+00	0.0000000000E+00	-6.5000000000E+03	6.5000000000E+03	9.3827000000E-01	0.000E+00	0.0
	2212	1	0	0	0	0	0.0000000000E+00	0.0000000000E+00	5.7444011739E+03	5.7444011739E+03	9.3827000000E-01	0.000E+00	0.0
	2212	1	0	0	0	0	0.0000000000E+00	0.0000000000E+00	-6.1397181864E+03	6.1397181864E+03	9.3827000000E-01	0.000E+00	0.0
	51	2	1	2	0	0	1.1257088611E+02	3.9648878364E+01	4.5558510968E+02	1.1448650977E+03	1.0435104512E+03	0.000E+00	0.0
	1000022	2	5	5	0	0	-1.1257088611E+02	-3.9648878364E+01	2.6956586893E+02	9.0205398862E+02	8.5252061719E+02	0.000E+00	0.0
	14	1	6	6	0	0	8.3564397648E+01	2.1970241273E+02	1.2686099560E+02	4.2067905928E+02	3.2500000000E+02	0.000E+00	0.0
	-14	1	6	6	0	0	-1.9613528376E+02	-2.5935129109E+02	1.4270487332E+02	4.8137492934E+02	3.2500000000E+02	0.000E+00	0.0
	25	2	5	5	0	0	1.1257088611E+02	3.9648878364E+01	1.2575114351E+02	2.1382665111E+02	1.2515689623E+02	0.000E+00	0.0
	-5	1	9	9	0	501	1.0627990940E+02	7.8045128731E+01	8.2960908232E+01	1.5584109200E+02	4.1800000000E+00	0.000E+00	0.0
	5	1	9	9	501	0	6.2909767147E+00	-3.8396250367E+01	4.2790235282E+01	5.7985559114E+01	4.1800000000E+00	0.000E+00	0.0
</event>
<event>
    11  -1  1.0000000E+00  1.0000000E+00  -1.0000000E+00  -1.0000000E+00
	2212	-1	0	0	0	0	0.0000000000E+00	0.0000000000E+00	6.5000000000E+03	6.5000000000E+03	9.3827000000E-01	0.000E+00	0.0
	2212	-1	0	0	0	0	0.0000000000E+00	0.0000000000E+00	-6.5000000000E+03	6.5000000000E+03	9.3827000000E-01	0.000E+00	0.0
	2212	1	0	0	0	0	0.0000000000E+00	0.0000000000E+00	6.1062522512E+03	6.1062522512E+03	9.3827000000E-01	0.000E+00	0.0
	2212	1	0	0	0	0	0.0000000000E+00	0.0000000000E+00	-5.8057671595E+03	5.8057671595E+03	9.3827000000E-01	0.000E+00	0.0
	51	2	1	2	0	0	6.0019764761E+01	-1.0330208007E+02	-3.8873063440E+02	1.1219606367E+03	1.0456626952E+03	0.000E+00	0.0
	1000022	2	5	5	0	0	-6.0019764761E+01	1.0330208007E+02	-1.6008489091E+02	8.6516170323E+02	8.4178614180E+02	0.000E+00	0.0
	14	1	6	6	0	0	2.2407683928E+02	1.7515834515E+00	-3.1977619288E+00	3.9477680229E+02	3.2500000000E+02	0.000E+00	0.0
	-14	1	6	6	0	0	-2.8409660404E+02	1.0155049662E+02	-1.5688712898E+02	4.7038490094E+02	3.2500000000E+02	0.000E+00	0.0
	25	2	5	5	0	0	6.0019764761E+01	-1.0330208007E+02	-1.4040020084E+02	2.2281888603E+02	1.2514930151E+02	0.000E+00	0.0
	-5	1	9	9	0	501	-3.7488374010E+01	-1.9414565794E+01	-2.1303598589E+01	4.7472299962E+01	4.1800000000E+00	0.000E+00	0.0
	5	1	9	9	501	0	9.7508138771E+01	-8.3887514279E+01	-1.1909660225E+02	1.7534658607E+02	4.1800000000E+00	0.000E+00	0.0
</event>
<event>
    11  -1  1.0000000E+00  1.0000000E+00  -1.0000000E+00  -1.0000000E+00
	2212	-1	0	0	0	0	0.0000000000E+00	0.0000000000E+00	6.5000000000E+03	6.5000000000E+03	9.3827000000E-01	0.000E+00	0.0
	2212	-1	0	0	0	0	0.0000000000E+00	0.0000000000E+00	-6.5000000000E+03	6.5000000000E+03	9.3827000000E-01	0.000E+00	0.0
	2212	1	0	0	0	0	0.0000000000E+00	0.0000000000E+00	6.2055391830E+03	6.2055391830E+03	9.3827000000E-01	0.000E+00	0.0
	2212	1	0	0	0	0	0.0000000000E+00	0.0000000000E+00	-5.5508046513E+03	5.5508046513E+03	9.3827000000E-01	0.000E+00	0.0
	51	2	1	2	0	0	-1.2062869517E+02	-8.5942497879E+01	-6.7483981811E+02	1.2630714654E+03	1.0573567759E+03	0.000E+00	0.0
	1000022	2	5	5	0	0	1.2062869517E+02	8.5942497879E+01	-5.2075980270E+02	1.0079479604E+03	8.5019463878E+02	0.000E+00	0.0
	14	1	6	6	0	0	-1.5927999017E+02	-1.0903918849E+02	-1.4335699755E+02	4.0427204781E+02	3.2500000000E+02	0.000E+00	0.0
	-14	1	6	6	0	0	2.7990868535E+02	1.9498168637E+02	-3.7740280515E+02	6.0367591263E+02	3.2500000000E+02	0.000E+00	0.0
	25	2	5	5	0	0	-1.2062869517E+02	-8.5942497879E+01	-1.3397472895E+02	2.3570820529E+02	1.2518680043E+02	0.000E+00	0.0
	-5	1	9	9	0	501	-1.3192674434E+02	-1.0656027264E+02	-1.2229962759E+02	2.0912778124E+02	4.1800000000E+00	0.000E+00	0.0
	5	1	9	9	501	0	1.1298049162E+01	2.0617774762E+01	-1.1675101360E+01	2.6580424052E+01	4.1800000000E+00	0.000E+00	0.0
</event>
<event>
    11  -1  1.0000000E+00  1.0000000E+00  -1.0000000E+00  -1.0000000E+00
	2212	-1	0	0	0	0	0.0000000000E+00	0.0000000000E+00	6.5000000000E+03	6.5000000000E+03	9.3827000000E-01	0.000E+00	0.0
	2212	-1	0	0	0	0	0.0000000000E+00	0.0000000000E+00	-6.5000000000E+03	6.5000000000E+03	9.3827000000E-01	0.000E+00	0.0
	2212	1	0	0	0	0	0.0000000000E+00	0.0000000000E+00	5.2001067686E+03	5.2001067686E+03	9.3827000000E-01	0.000E+00	0.0
	2212	1	0	0	0	0	0.0000000000E+00	0.0000000000E+00	-6.2966388722E+03	6.2966388722E+03	9.3827000000E-01	0.000E+00	0.0
	51	2	1	2	0	0	4.1926301884E+01	4.1469624454E+01	1.2600948215E+03	1.6274850284E+03	1.0282951979E+03	0.000E+00	0.0
	1000022	2	5	5	0	0	-4.1926301884E+01	-4.1469624454E+01	7.5434451280E+02	1.1341438382E+03	8.4484854099E+02	0.000E+00	0.0
	14	1	6	6	0	0	-1.3497304679E+02	1.7656328211E+01	7.0403599178E+02	7.8728720745E+02	3.2500000000E+02	0.000E+00	0.0
	-14	1	6	6	0	0	9.3046744909E+01	-5.9125952665E+01	5.0308521016E+01	3.4685663076E+02	3.2500000000E+02	0.000E+00	0.0
	25	2	5	5	0	0	4.1926301884E+01	4.1469624454E+01	3.4218759081E+02	3.6911052095E+02	1.2519059401E+02	0.000E+00	0.0
	-5	1	9	9	0	501	5.2716516222E+00	-4.3826134711E+01	1.3336674282E+02	1.4054423107E+02	4.1800000000E+00	0.000E+00	0.0
	5	1	9	9	501	0	3.6654650262E+01	8.5295759164E+01	2.0882084799E+02	2.2856628988E+02	4.1800000000E+00	0.000E+00	0.0
</event>
<event>
    11  -1  1.0000000E+00  1.0000000E+00  -1.0000000E+00  -1.0000000E+00
	2212	-1	0	0	0	0	0.0000000000E+00	0.0000000000E+00	6.5000000000E+03	6.5000000000E+03	9.3827000000E-01	0.000E+00	0.0
	2212	-1	0	0	0	0	0.0000000000E+00	0.0000000000E+00	-6.5000000000E+03	6.5000000000E+03	9.3827000000E-01	0.000E+00	0.0
	2212	1	0	0	0	0	0.0000000000E+00	0.0000000000E+00	5.9852995235E+03	5.9852995235E+03	9.3827000000E-01	0.000E+00	0.0
	2212	1	0	0	0	0	0.0000000000E+00	0.0000000000E+00	-5.9640667903E+03	5.9640667903E+03	9.3827000000E-01	0.000E+00	0.0
	51	2	1	2	0	0	-2.1655833425E+01	1.0588514638E+02	-1.1490081933E+01	1.0560269764E+03	1.0504191133E+03	0.000E+00	0.0
	1000022	2	5	5	0	0	2.1655833425E+01	-1.0588514638E+02	-2.7650698747E+01	8.8072898257E+02	8.7363512993E+02	0.000E+00	0.0
	14	1	6	6	0	0	-2.2265259473E+02	2.1297997705E+01	1.4600973561E+02	4.2067995619E+02	3.2500000000E+02	0.000E+00	0.0
	-14	1	6	6	0	0	2.4430842816E+02	-1.2718314409E+02	-1.7366043436E+02	4.6004902638E+02	3.2500000000E+02	0.000E+00	0.0
	25	2	5	5	0	0	-2.1655833425E+01	1.0588514638E+02	6.4179654768E+00	1.6990470365E+02	1.3094189053E+02	0.000E+00	0.0
	-5	1	9	9	0	501	8.8043409222E-01	5.7747315969E+01	-6.0897544411E+01	8.4032797056E+01	4.1800000000E+00	0.000E+00	0.0
	5	1	9	9	501	0	-2.2536267517E+01	4.8137830412E+01	6.7315509888E+01	8.5871906593E+01	4.1800000000E+00	0.000E+00	0.0
</event>
<event>
    11  -1  1.0000000E+00  1.0000000E+00  -1.0000000E+00  -1.0000000E+00
	2212	-1	0	0	0	0	0.0000000000E+00	0.0000000000E+00	6.5000000000E+03	6.5000000000E+03	9.3827000000E-01	0.000E+00	0.0
	2212	-1	0	0	0	0	0.0000000000E+00	0.0000000000E+00	-6.5000000000E+03	6.5000000000E+03	9.3827000000E-01	0.000E+00	0.0
	2212	1	0	0	0	0	0.0000000000E+00	0.0000000000E+00	5.3172716170E+03	5.3172716170E+03	9.3827000000E-01	0.000E+00	0.0
	2212	1	0	0	0	0	0.0000000000E+00	0.0000000000E+00	-6.2777964717E+03	6.2777964717E+03	9.3827000000E-01	0.000E+00	0.0
	51	2	1	2	0	0	8.0563086636E+01	-5.4812955168E+01	8.8889611380E+02	1.3604619991E+03	1.0252929722E+03	0.000E+00	0.0
	1000022	2	5	5	0	0	-8.0563086636E+01	5.4812955168E+01	8.8017947347E+02	1.2271136725E+03	8.4946876862E+02	0.000E+00	0.0
	14	1	6	6	0	0	1.2675403311E+02	2.3183067513E+01	7.3511415025E+02	8.1401588033E+02	3.2500000000E+02	0.000E+00	0.0
	-14	1	6	6	0	0	-2.0731711975E+02	3.1629887655E+01	1.4506532322E+02	4.1309779222E+02	3.2500000000E+02	0.000E+00	0.0
	25	2	5	5	0	0	8.0563086636E+01	-5.4812955168E+01	8.0345381247E+01	1.7781823877E+02	1.2517617492E+02	0.000E+00	0.0
	-5	1	9	9	0	501	4.7973770555E+01	-2.2502578104E+01	1.1058816322E+02	1.2269907468E+02	4.1800000000E+00	0.000E+00	0.0
	5	1	9	9	501	0	3.2589316081E+01	-3.2310377065E+01	-3.0242781971E+01	5.5119164090E+01	4.1800000000E+00	0.000E+00	0.0
</event>
<event>
    11  -1  1.0000000E+00  1.0000000E+00  -1.0000000E+00  -1.0000000E+00
	2212	-1	0	0	0	0	0.0000000000E+00	0.0000000000E+00	6.5000000000E+03	6.5000000000E+03	9.3827000000E-01	0.000E+00	0.0
	2212	-1	0	0	0	0	0.0000000000E+00	0.0000000000E+00	-6.5000000000E+03	6.5000000000E+03	9.3827000000E-01	0.000E+00	0.0
	2212	1	0	0	0	0	0.0000000000E+00	0.0000000000E+00	5.2931832539E+03	5.2931832539E+03	9.3827000000E-01	0.000E+00	0.0
	2212	1	0	0	0	0	0.0000000000E+00	0.0000000000E+00	-6.2786433017E+03	6.2786433017E+03	9.3827000000E-01	0.000E+00	0.0
	51	2	1	2	0	0	9.8507196930E+01	-7.6836506649E+01	1.0353218961E+03	1.4683483329E+03	1.0337058970E+03	0.000E+00	0.0
	1000022	2	5	5	0	0	-9.8507196930E+01	7.6836506649E+01	7.7204828289E+02	1.1509745910E+03	8.4443853621E+02	0.000E+00	0.0
	14	1	6	6	0	0	-1.7094379267E+02	4.3708407716E+01	7.4383160933E+01	3.7721354667E+02	3.2500000000E+02	0.000E+00	0.0
	-14	1	6	6	0	0	7.2436595744E+01	3.3128098933E+01	6.9766512196E+02	7.7376104434E+02	3.2500000000E+02	0.000E+00	0.0
	25	2	5	5	0	0	9.8507196930E+01	-7.6836506649E+01	2.1341176495E+02	2.7719885344E+02	1.2524817894E+02	0.000E+00	0.0
	-5	1	9	9	0	501	2.7869197322E+01	2.7967326366E+01	9.9009555664E+01	1.0667346444E+02	4.1800000000E+00	0.000E+00	0.0
	5	1	9	9	501	0	7.0637999608E+01	-1.0480383301E+02	1.1440220928E+02	1.7052538900E+02	4.1800000000E+00	0.000E+00	0.0
</event>
<event>
    11  -1  1.0000000E+00  1.0000000E+00  -1.0000000E+00  -1.0000000E+00
	2212	-1	0	0	0	0	0.0000000000E+00	0.0000000000E+00	6.5000000000E+03	6.5000000000E+03	9.3827000000E-01	0.000E+00	0.0
	2212	-1	0	0	0	0	0.0000000000E+00	0.0000000000E+00	-6.5000000000E+03	6.5000000000E+03	9.3827000000E-01	0.000E+00	0.0
	2212	1	0	0	0	0	0.0000000000E+00	0.0000000000E+00	5.6895230871E+03	5.6895230871E+03	9.3827000000E-01	0.000E+00	0.0
	2212	1	0	0	0	0	0.0000000000E+00	0.0000000000E+00	-6.1606506426E+03	6.1606506426E+03	9.3827000000E-01	0.000E+00	0.0
	51	2	1	2	0	0	-1.0070804665E+02	-6.3690947807E+01	5.4109830776E+02	1.1862231259E+03	1.0488752444E+03	0.000E+00	0.0
	1000022	2	5	5	0	0	1.0070804665E+02	6.3690947807E+01	3.2273338408E+02	9.2203048999E+02	8.5544417690E+02	0.000E+00	0.0
	14	1	6	6	0	0	2.2590873017E+02	1.5256161596E+02	3.6565642089E+02	5.6003519458E+02	3.2500000000E+02	0.000E+00	0.0
	-14	1	6	6	0	0	-1.2520068352E+02	-8.8870668153E+01	-4.2923036810E+01	3.6199529541E+02	3.2500000000E+02	0.000E+00	0.0
	25	2	5	5	0	0	-1.0070804665E+02	-6.3690947807E+01	1.4839417140E+02	2.2779578031E+02	1.2518562190E+02	0.000E+00	0.0
	-5	1	9	9	0	501	-3.0558778845E+01	7.7061892934E+00	1.1931988286E+02	1.2348251359E+02	4.1800000000E+00	0.000E+00	0.0
	5	1	9	9	501	0	-7.0149267805E+01	-7.1397137100E+01	2.9074288542E+01	1.0431326672E+02	4.1800000000E+00	0.000E+00	0.0
</event>
<event>
    11  -1  1.0000000E+00  1.0000000E+00  -1.0000000E+00  -1.0000000E+00
	2212	-1	0	0	0	0	0.0000000000E+00	0.0000000000E+00	6.5000000000E+03	6.5000000000E+03	9.3827000000E-01	0.000E+00	0.0
	2212	-1	0	0	0	0	0.0000000000E+00	0.0000000000E+00	-6.5000000000E+03	6.5000000000E+03	9.3827000000E-01	0.000E+00	0.0
	2212	1	0	0	0	0	0.0000000000E+00	0.0000000000E+00	5.9753938372E+03	5.9753938372E+03	9.3827000000E-01	0.000E+00	0.0
	2212	1	0	0	0	0	0.0000000000E+00	0.0000000000E+00	-5.9781610429E+03	5.9781610429E+03	9.3827000000E-01	0.000E+00	0.0
	51	2	1	2	0	0	8.2987035233E+01	-5.5097645775E+01	-8.1131414495E+01	1.0542981726E+03	1.0464414612E+03	0.000E+00	0.0
	1000022	2	5	5	0	0	-8.2987035233E+01	5.5097645775E+01	8.6209493332E+01	8.6602557161E+02	8.5594720360E+02	0.000E+00	0.0
	14	1	6	6	0	0	-9.4207714028E+01	3.0046296182E+02	7.3478878882E+01	4.5845090299E+02	3.2500000000E+02	0.000E+00	0.0
	-14	1	6	6	0	0	1.1220678796E+01	-2.4536531605E+02	1.2730614450E+01	4.0757466862E+02	3.2500000000E+02	0.000E+00	0.0
	25	2	5	5	0	0	8.2987035233E+01	-5.5097645775E+01	-8.3442287628E+01	1.8041954838E+02	1.2516389050E+02	0.000E+00	0.0
	-5	1	9	9	0	501	-2.3588532007E+01	1.5760853816E+01	-3.0480875056E+01	4.1849486250E+01	4.1800000000E+00	0.000E+00	0.0
	5	1	9	9	501	0	1.0657556724E+02	-7.0858499590E+01	-5.2961412573E+01	1.3857006213E+02	4.1800000000E+00	0.000E+00	0.0
</event>
<event>
    11  -1  1.0000000E+00  1.0000000E+00  -1.0000000E+00  -1.0000000E+00
	2212	-1	0	0	0	0	0.0000000000E+00	0.0000000000E+00	6.5000000000E+03	6.5000000000E+03	9.3827000000E-01	0.000E+00	0.0
	2212	-1	0	0	0	0	0.0000000000E+00	0.0000000000E+00	-6.5000000000E+03	6.5000000000E+03	9.3827000000E-01	0.000E+00	0.0
	2212	1	0	0	0	0	0.0000000000E+00	0.0000000000E+00	6.2727162466E+03	6.2727162466E+03	9.3827000000E-01	0.000E+00	0.0
	2212	1	0	0	0	0	0.0000000000E+00	0.0000000000E+00	-5.2773288759E+03	5.2773288759E+03	9.3827000000E-01	0.000E+00	0.0
	51	2	1	2	0	0	1.3406063157E+02	-2.7972533117E+02	-9.2146006441E+02	1.4341827963E+03	1.0543116850E+03	0.000E+00	0.0
	1000022	2	5	5	0	0	-1.3406063157E+02	2.7972533117E+02	-7.8847063547E+02	1.0566287525E+03	6.3131597784E+02	0.000E+00	0.0
	14	1	6	6	0	0	0.0000000000E+00	0.0000000000E+00	0.0000000000E+00	0.0000000000E+00	0.0000000000E+00	0.000E+00	0.0
	-14	1	6	6	0	0	0.0000000000E+00	0.0000000000E+00	0.0000000000E+00	0.0000000000E+00	0.0000000000E+00	0.000E+00	0.0
	25	2	5	5	0	0	1.3406063157E+02	-2.7972533117E+02	-2.0691673523E+02	3.9332612500E+02	1.2518942229E+02	0.000E+00	0.0
	-5	1	9	9	0	501	1.4624632817E+02	-1.8392555267E+02	-1.6908942102E+02	2.8952599560E+02	4.1800000000E+00	0.000E+00	0.0
	5	1	9	9	501	0	-1.2185696601E+01	-9.5799778500E+01	-3.7827314209E+01	1.0380012940E+02	4.1800000000E+00	0.000E+00	0.0
</event>
<event>
    11  -1  1.0000000E+00  1.0000000E+00  -1.0000000E+00  -1.0000000E+00
	2212	-1	0	0	0	0	0.0000000000E+00	0.0000000000E+00	6.5000000000E+03	6.5000000000E+03	9.3827000000E-01	0.000E+00	0.0
	2212	-1	0	0	0	0	0.0000000000E+00	0.0000000000E+00	-6.5000000000E+03	6.5000000000E+03	9.3827000000E-01	0.000E+00	0.0
	2212	1	0	0	0	0	0.0000000000E+00	0.0000000000E+00	4.9191983275E+03	4.9191983275E+03	9.3827000000E-01	0.000E+00	0.0
	2212	1	0	0	0	0	0.0000000000E+00	0.0000000000E+00	-6.3262975379E+03	6.3262975379E+03	9.3827000000E-01	0.000E+00	0.0
	51	2	1	2	0	0	1.2595133852E+02	-9.3012284627E+01	1.4262254084E+03	1.7767921968E+03	1.0480250809E+03	0.000E+00	0.0
	1000022	2	5	5	0	0	-1.2595133852E+02	9.3012284627E+01	1.1344345465E+03	1.4160803774E+03	8.3296270632E+02	0.000E+00	0.0
	14	1	6	6	0	0	-3.1735678778E+02	-1.3605419488E+01	6.4568128440E+02	7.8957568302E+02	3.2500000000E+02	0.000E+00	0.0
	-14	1	6	6	0	0	1.9140544926E+02	1.0661770411E+02	4.8875326213E+02	6.2650469438E+02	3.2500000000E+02	0.000E+00	0.0
	25	2	5	5	0	0	1.2595133852E+02	-9.3012284627E+01	2.7266466390E+02	3.3842375715E+02	1.2517825570E+02	0.000E+00	0.0
	-5	1	9	9	0	501	2.5280396888E+01	-8.4140800061E+01	1.8389538566E+02	2.0384738892E+02	4.1800000000E+00	0.000E+00	0.0
	5	1	9	9	501	0	1.0067094164E+02	-8.8714845659E+00	8.8769278238E+01	1.3457636823E+02	4.1800000000E+00	0.000E+00	0.0
</event>
<event>
    11  -1  1.0000000E+00  1.0000000E+00  -1.0000000E+00  -1.0000000E+00
	2212	-1	0	0	0	0	0.0000000000E+00	0.0000000000E+00	6.5000000000E+03	6.5000000000E+03	9.3827000000E-01	0.000E+00	0.0
	2212	-1	0	0	0	0	0.0000000000E+00	0.0000000000E+00	-6.5000000000E+03	6.5000000000E+03	9.3827000000E-01	0.000E+00	0.0
	2212	1	0	0	0	0	0.0000000000E+00	0.0000000000E+00	6.2300805029E+03	6.2300805029E+03	9.3827000000E-01	0.000E+00	0.0
	2212	1	0	0	0	0	0.0000000000E+00	0.0000000000E+00	-5.4874339487E+03	5.4874339487E+03	9.3827000000E-01	0.000E+00	0.0
	51	2	1	2	0	0	6.6898600976E+01	-2.6626447604E+01	-6.0671116458E+02	1.2110029335E+03	1.0455837017E+03	0.000E+00	0.0
	1000022	2	5	5	0	0	-6.6898600976E+01	2.6626447604E+01	-7.5333727871E+02	1.1376815970E+03	8.4948100046E+02	0.000E+00	0.0
	14	1	6	6	0	0	4.4936959729E+01	-2.4569426503E+02	-3.0821185400E+02	5.1283969148E+02	3.2500000000E+02	0.000E+00	0.0
	-14	1	6	6	0	0	-1.1183556070E+02	2.7232071263E+02	-4.4512542472E+02	6.2484190552E+02	3.2500000000E+02	0.000E+00	0.0
	25	2	5	5	0	0	6.6898600976E+01	-2.6626447604E+01	1.0690724460E+01	1.4480395138E+02	1.2517788232E+02	0.000E+00	0.0
	-5	1	9	9	0	501	8.2875014329E+01	-5.4809010622E+01	-1.8315011851E+01	1.0111976911E+02	4.1800000000E+00	0.000E+00	0.0
	5	1	9	9	501	0	-1.5976413354E+01	2.8182563018E+01	2.9005736310E+01	4.3684182272E+01	4.1800000000E+00	0.000E+00	0.0
</event>
<event>
    11  -1  1.0000000E+00  1.0000000E+00  -1.0000000E+00  -1.0000000E+00
	2212	-1	0	0	0	0	0.0000000000E+00	0.0000000000E+00	6.5000000000E+03	6.5000000000E+03	9.3827000000E-01	0.000E+00	0.0
	2212	-1	0	0	0	0	0.0000000000E+00	0.0000000000E+00	-6.5000000000E+03	6.5000000000E+03	9.3827000000E-01	0.000E+00	0.0
	2212	1	0	0	0	0	0.0000000000E+00	0.0000000000E+00	6.2445436199E+03	6.2445436199E+03	9.3827000000E-01	0.000E+00	0.0
	2212	1	0	0	0	0	0.0000000000E+00	0.0000000000E+00	-5.4103086677E+03	5.4103086677E+03	9.3827000000E-01	0.000E+00	0.0
	51	2	1	2	0	0	1.4232655466E+02	-2.0307504985E+01	-8.3880771922E+02	1.3556334480E+03	1.0552129703E+03	0.000E+00	0.0
	1000022	2	5	5	0	0	-1.4232655466E+02	2.0307504985E+01	-6.8665452323E+02	1.1040717469E+03	8.5253196135E+02	0.000E+00	0.0
	14	1	6	6	0	0	-2.2410729856E+02	1.5330944945E+02	-1.3398843165E+02	4.4419113946E+02	3.2500000000E+02	0.000E+00	0.0
	-14	1	6	6	0	0	8.1780743907E+01	-1.3300194446E+02	-5.5266609158E+02	6.5988060745E+02	3.2500000000E+02	0.000E+00	0.0
	25	2	5	5	0	0	1.4232655466E+02	-2.0307504985E+01	-1.4758042900E+02	2.4107596550E+02	1.2517346044E+02	0.000E+00	0.0
	-5	1	9	9	0	501	1.4693364708E+02	-1.4232156011E+01	-7.0746553334E+01	1.6375163546E+02	4.1800000000E+00	0.000E+00	0.0
	5	1	9	9	501	0	-4.6070924210E+00	-6.0753489749E+00	-7.6833875662E+01	7.7324330033E+01	4.1800000000E+00	0.000E+00	0.0
</event>
<event>
    11  -1  1.0000000E+00  1.0000000E+00  -1.0000000E+00  -1.0000000E+00
	2212	-1	0	0	0	0	0.0000000000E+00	0.0000000000E+00	6.5000000000E+03	6.5000000000E+03	9.3827000000E-01	0.000E+00	0.0
	2212	-1	0	0	0	0	0.0000000000E+00	0.0000000000E+00	-6.5000000000E+03	6.5000000000E+03	9.3827000000E-01	0.000E+00	0.0
	2212	1	0	0	0	0	0.0000000000E+00	0.0000000000E+00	6.3304187356E+03	6.3304187356E+03	9.3827000000E-01	0.000E+00	0.0
	2212	1	0	0	0	0	0.0000000000E+00	0.0000000000E+00	-4.8900498264E+03	4.8900498264E+03	9.3827000000E-01	0.000E+00	0.0
	51	2	1	2	0	0	7.6685095648E+01	7.8105662878E+01	-1.3517362718E+03	1.7120869112E+03	1.0450213130E+03	0.000E+00	0.0
	1000022	2	5	5	0	0	-7.6685095648E+01	-7.8105662878E+01	-1.2963626025E+03	1.5595577125E+03	8.6004834933E+02	0.000E+00	0.0
	14	1	6	6	0	0	1.6684939342E+02	1.4731716700E+02	-7.0504629579E+02	8.0762388956E+02	3.2500000000E+02	0.000E+00	0.0
	-14	1	6	6	0	0	-2.4353448907E+02	-2.2542282988E+02	-5.9131630669E+02	7.5193382299E+02	3.2500000000E+02	0.000E+00	0.0
	25	2	5	5	0	0	7.6685095648E+01	7.8105662878E+01	-1.4400630668E+02	2.1997372550E+02	1.2517797362E+02	0.000E+00	0.0
	-5	1	9	9	0	501	2.6256048138E+01	9.2358146052E+01	-1.3639512896E+02	1.6685475962E+02	4.1800000000E+00	0.000E+00	0.0
	5	1	9	9	501	0	5.0429047510E+01	-1.4252483174E+01	-7.6111777201E+00	5.3118965875E+01	4.1800000000E+00	0.000E+00	0.0
</event>
<event>
    11  -1  1.0000000E+00  1.0000000E+00  -1.0000000E+00  -1.0000000E+00
	2212	-1	0	0	0	0	0.0000000000E+00	0.0000000000E+00	6.5000000000E+03	6.5000000000E+03	9.3827000000E-01	0.000E+00	0.0
	2212	-1	0	0	0	0	0.0000000000E+00	0.0000000000E+00	-6.5000000000E+03	6.5000000000E+03	9.3827000000E-01	0.000E+00	0.0
	2212	1	0	0	0	0	0.0000000000E+00	0.0000000000E+00	6.3230606853E+03	6.3230606853E+03	9.3827000000E-01	0.000E+00	0.0
	2212	1	0	0	0	0	0.0000000000E+00	0.0000000000E+00	-4.9515449526E+03	4.9515449526E+03	9.3827000000E-01	0.000E+00	0.0
	51	2	1	2	0	0	1.0094479784E+02	-4.9566096976E+01	-1.4271375175E+03	1.7734989269E+03	1.0468668968E+03	0.000E+00	0.0
	1000022	2	5	5	0	0	-1.0094479784E+02	4.9566096976E+01	-1.1006749775E+03	1.4065400061E+03	8.6845997754E+02	0.000E+00	0.0
	14	1	6	6	0	0	-2.8849557464E+02	-6.7013593842E+01	-3.6075483570E+02	5.6876143490E+02	3.2500000000E+02	0.000E+00	0.0
	-14	1	6	6	0	0	1.8755077679E+02	1.1657969082E+02	-7.3992014180E+02	8.3777857124E+02	3.2500000000E+02	0.000E+00	0.0
	25	2	5	5	0	0	1.0094479784E+02	-4.9566096976E+01	-2.7084075522E+02	3.1885435596E+02	1.2516683045E+02	0.000E+00	0.0
	-5	1	9	9	0	501	-3.7738854772E+00	1.9615091145E+00	1.1698421716E+01	1.3130696868E+01	4.1800000000E+00	0.000E+00	0.0
	5	1	9	9	501	0	1.0471868332E+02	-5.1527606090E+01	-2.8253917693E+02	3.0572365909E+02	4.1800000000E+00	0.000E+00	0.0
</event>
<event>
    11  -1  1.0000000E+00  1.0000000E+00  -1.0000000E+00  -1.0000000E+00
	2212	-1	0	0	0	0	0.0000000000E+00	0.0000000000E+00	6.5000000000E+03	6.5000000000E+03	9.3827000000E-01	0.000E+00	0.0
	2212	-1	0	0	0	0	0.0000000000E+00	0.0000000000E+00	-6.5000000000E+03	6.5000000000E+03	9.3827000000E-01	0.000E+00	0.0
	2212	1	0	0	0	0	0.0000000000E+00	0.0000000000E+00	6.1351506766E+03	6.1351506766E+03	9.3827000000E-01	0.000E+00	0.0
	2212	1	0	0	0	0	0.0000000000E+00	0.0000000000E+00	-5.7424049813E+03	5.7424049813E+03	9.3827000000E-01	0.000E+00	0.0
	51	2	1	2	0	0	1.0768417746E+01	3.9171415653E+01	-2.5121093251E+02	1.0818453730E+03	1.0514904278E+03	0.000E+00	0.0
	1000022	2	5	5	0	0	-1.0768417746E+01	-3.9171415653E+01	-4.6717470401E+02	9.7125897100E+02	8.5055359976E+02	0.000E+00	0.0
	14	1	6	6	0	0	-7.1452073277E+01	-7.7961409870E+01	6.0766352364E+01	3.4713243839E+02	3.2500000000E+02	0.000E+00	0.0
	-14	1	6	6	0	0	6.0683655532E+01	3.8789994217E+01	-5.2794105637E+02	6.2412653261E+02	3.2500000000E+02	0.000E+00	0.0
	25	2	5	5	0	0	1.0768417746E+01	3.9171415653E+01	7.4429008701E+01	1.5118537104E+02	1.2516780918E+02	0.000E+00	0.0
	-5	1	9	9	0	501	-5.5612820614E+00	4.0320661815E+01	1.0696528847E+02	1.1452392311E+02	4.1800000000E+00	0.000E+00	0.0
	5	1	9	9	501	0	1.6329699807E+01	-1.1492461623E+00	-3.2536279771E+01	3.6661447924E+01	4.1800000000E+00	0.000E+00	0.0
</event>
<event>
    11  -1  1.0000000E+00  1.0000000E+00  -1.0000000E+00  -1.0000000E+00
	2212	-1	0	0	0	0	0.0000000000E+00	0.0000000000E+00	6.5000000000E+03	6.5000000000E+03	9.3827000000E-01	0.000E+00	0.0
	2212	-1	0	0	0	0	0.0000000000E+00	0.0000000000E+00	-6.5000000000E+03	6.5000000000E+03	9.3827000000E-01	0.000E+00	0.0
	2212	1	0	0	0	0	0.0000000000E+00	0.0000000000E+00	6.1464726612E+03	6.1464726612E+03	9.3827000000E-01	0.000E+00	0.0
	2212	1	0	0	0	0	0.0000000000E+00	0.0000000000E+00	-5.7211505693E+03	5.7211505693E+03	9.3827000000E-01	0.000E+00	0.0
	51	2	1	2	0	0	-1.0579610990E+02	8.9259610943E+01	-4.4773232075E+02	1.1493487689E+03	1.0494657052E+03	0.000E+00	0.0
	1000022	2	5	5	0	0	1.0579610990E+02	-8.9259610943E+01	-3.3068799215E+02	9.2311606680E+02	8.5066364070E+02	0.000E+00	0.0
	14	1	6	6	0	0	-1.8582136592E+01	-1.1797726863E+02	1.0774955333E+02	3.6262776777E+02	3.2500000000E+02	0.000E+00	0.0
	-14	1	6	6	0	0	1.2437824649E+02	2.8717657686E+01	-4.3843754548E+02	5.6048829903E+02	3.2500000000E+02	0.000E+00	0.0
	25	2	5	5	0	0	-1.0579610990E+02	8.9259610943E+01	-9.4634099755E+01	2.0926070280E+02	1.2519718001E+02	0.000E+00	0.0
	-5	1	9	9	0	501	-1.2045483313E+01	4.7847422571E+01	2.1786742767E+01	5.4098096781E+01	4.1800000000E+00	0.000E+00	0.0
	5	1	9	9	501	0	-9.3750626590E+01	4.1412188372E+01	-1.1642084252E+02	1.5516260602E+02	4.1800000000E+00	0.000E+00	0.0
</event>
<event>
    11  -1  1.0000000E+00  1.0000000E+00  -1.0000000E+00  -1.0000000E+00
	2212	-1	0	0	0	0	0.0000000000E+00	0.0000000000E+00	6.5000000000E+03	6.5000000000E+03	9.3827000000E-01	0.000E+00	0.0
	2212	-1	0	0	0	0	0.0000000000E+00	0.0000000000E+00	-6.5000000000E+03	6.5000000000E+03	9.3827000000E-01	0.000E+00	0.0
	2212	1	0	0	0	0	0.0000000000E+00	0.0000000000E+00	6.2941990686E+03	6.2941990686E+03	9.3827000000E-01	0.000E+00	0.0
	2212	1	0	0	0	0	0.0000000000E+00	0.0000000000E+00	-5.1485024440E+03	5.1485024440E+03	9.3827000000E-01	0.000E+00	0.0
	51	2	1	2	0	0	4.1037984589E+00	1.5029088815E+02	-1.0937723385E+03	1.5269249961E+03	1.0547785659E+03	0.000E+00	0.0
	1000022	2	5	5	0	0	-4.1037984589E+00	-1.5029088815E+02	-9.9244056688E+02	1.3087787425E+03	8.3985672937E+02	0.000E+00	0.0
	14	1	6	6	0	0	-1.0565680898E+02	-2.2418634665E+02	-8.2825502974E+02	9.2360937284E+02	3.2500000000E+02	0.000E+00	0.0
	-14	1	6	6	0	0	1.0155301052E+02	7.3895458505E+01	-1.6418553713E+02	3.8516936968E+02	3.2500000000E+02	0.000E+00	0.0
	25	2	5	5	0	0	4.1037984589E+00	1.5029088815E+02	-1.5325605777E+02	2.4851974484E+02	1.2518167641E+02	0.000E+00	0.0
	-5	1	9	9	0	501	1.5838300610E+01	2.4526537139E+01	-1.1163106431E+02	1.1546155078E+02	4.1800000000E+00	0.000E+00	0.0
	5	1	9	9	501	0	-1.1734502151E+01	1.2576435101E+02	-4.1624993465E+01	1.3305819406E+02	4.1800000000E+00	0.000E+00	0.0
</event>
<event>
    11  -1  1.0000000E+00  1.0000000E+00  -1.0000000E+00  -1.0000000E+00
	2212	-1	0	0	0	0	0.0000000000E+00	0.0000000000E+00	6.5000000000E+03	6.5000000000E+03	9.3827000000E-01	0.000E+00	0.0
	2212	-1	0	0	0	0	0.0000000000E+00	0.0000000000E+00	-6.5000000000E+03	6.5000000000E+03	9.3827000000E-01	0.000E+00	0.0
	2212	1	0	0	0	0	0.0000000000E+00	0.0000000000E+00	5.8142407511E+03	5.8142407511E+03	9.3827000000E-01	0.000E+00	0.0
	2212	1	0	0	0	0	0.0000000000E+00	0.0000000000E+00	-5.8764894915E+03	5.8764894915E+03	9.3827000000E-01	0.000E+00	0.0
	51	2	1	2	0	0	2.0989414252E+02	-2.6529173423E+02	1.9970456437E+02	1.3655143940E+03	1.3077891236E+03	0.000E+00	0.0
	1000022	2	5	5	0	0	-2.0989414252E+02	2.6529173423E+02	-9.1169239708E+01	9.1729514404E+02	8.4775190692E+02	0.000E+00	0.0
	14	1	6	6	0	0	1.5442647985E+01	6.7451199081E+01	-2.8186215557E+02	4.3572860174E+02	3.2500000000E+02	0.000E+00	0.0
	-14	1	6	6	0	0	-2.2533679051E+02	1.9784053515E+02	1.9069291586E+02	4.8156654230E+02	3.2500000000E+02	0.000E+00	0.0
	25	2	5	5	0	0	2.0989414252E+02	-2.6529173423E+02	1.5341798005E+02	3.9197461333E+02	1.2518692253E+02	0.000E+00	0.0
	-5	1	9	9	0	501	1.2926519834E+02	-1.6521159662E+02	2.6810780296E+01	2.1151986550E+02	4.1800000000E+00	0.000E+00	0.0
	5	1	9	9	501	0	8.0628944186E+01	-1.0008013761E+02	1.2660719976E+02	1.8045474783E+02	4.1800000000E+00	0.000E+00	0.0
</event>
<event>
    11  -1  1.0000000E+00  1.0000000E+00  -1.0000000E+00  -1.0000000E+00
	2212	-1	0	0	0	0	0.0000000000E+00	0.0000000000E+00	6.5000000000E+03	6.5000000000E+03	9.3827000000E-01	0.000E+00	0.0
	2212	-1	0	0	0	0	0.0000000000E+00	0.0000000000E+00	-6.5000000000E+03	6.5000000000E+03	9.3827000000E-01	0.000E+00	0.0
	2212	1	0	0	0	0	0.0000000000E+00	0.0000000000E+00	5.8472169964E+03	5.8472169964E+03	9.3827000000E-01	0.000E+00	0.0
	2212	1	0	0	0	0	0.0000000000E+00	0.0000000000E+00	-6.0476068254E+03	6.0476068254E+03	9.3827000000E-01	0.000E+00	0.0
	51	2	1	2	0	0	9.3416639563E+01	1.3514718316E+02	2.5817594462E+02	1.1291167120E+03	1.0868570749E+03	0.000E+00	0.0
	1000022	2	5	5	0	0	-9.3416639563E+01	-1.3514718316E+02	1.0574818402E+02	8.7797256814E+02	8.5595661240E+02	0.000E+00	0.0
	14	1	6	6	0	0	1.0484144150E+02	-2.5742668520E+02	1.9223698808E+02	4.6887128905E+02	3.2500000000E+02	0.000E+00	0.0
	-14	1	6	6	0	0	-1.9825808106E+02	1.2227950204E+02	-8.6488804060E+01	4.0910127909E+02	3.2500000000E+02	0.000E+00	0.0
	25	2	5	5	0	0	9.3416639563E+01	1.3514718316E+02	9.4641644979E+01	2.2720361001E+02	1.2519189180E+02	0.000E+00	0.0
	-5	1	9	9	0	501	7.2335237557E+01	3.4027619471E+01	9.4471930261E+01	1.2382521345E+02	4.1800000000E+00	0.000E+00	0.0
	5	1	9	9	501	0	2.1081402006E+01	1.0111956369E+02	1.6971471743E-01	1.0337839655E+02	4.1800000000E+00	0.000E+00	0.0
</event>
<event>
    11  -1  1.0000000E+00  1.0000000E+00  -1.0000000E+00  -1.0000000E+00
	2212	-1	0	0	0	0	0.0000000000E+00	0.0000000000E+00	6.5000000000E+03	6.5000000000E+03	9.3827000000E-01	0.000E+00	0.0
	2212	-1	0	0	0	0	0.0000000000E+00	0.0000000000E+00	-6.5000000000E+03	6.5000000000E+03	9.3827000000E-01	0.000E+00	0.0
	2212	1	0	0	0	0	0.0000000000E+00	0.0000000000E+00	5.5930143493E+03	5.5930143493E+03	9.3827000000E-01	0.000E+00	0.0
	2212	1	0	0	0	0	0.0000000000E+00	0.0000000000E+00	-6.1948800826E+03	6.1948800826E+03	9.3827000000E-01	0.000E+00	0.0
	51	2	1	2	0	0	-1.1019887946E+02	-3.6285436209E+01	6.8905057636E+02	1.2630157046E+03	1.0521205004E+03	0.000E+00	0.0
	1000022	2	5	5	0	0	1.1019887946E+02	3.6285436209E+01	4.1388354540E+02	9.5819829103E+02	8.5637839175E+02	0.000E+00	0.0
	14	1	6	6	0	0	2.6231755772E+02	-1.6665427438E+02	2.5059162639E+02	5.1478666598E+02	3.2500000000E+02	0.000E+00	0.0
	-14	1	6	6	0	0	-1.5211867826E+02	2.0293971059E+02	1.6329191901E+02	4.4341162505E+02	3.2500000000E+02	0.000E+00	0.0
	25	2	5	5	0	0	-1.1019887946E+02	-3.6285436209E+01	1.8798218787E+02	2.5390727707E+02	1.2518456965E+02	0.000E+00	0.0
	-5	1	9	9	0	501	-9.4022791237E+01	3.1521229001E+01	1.2707687236E+02	1.6124477368E+02	4.1800000000E+00	0.000E+00	0.0
	5	1	9	9	501	0	-1.6176088219E+01	-6.7806665211E+01	6.0905315511E+01	9.2662503390E+01	4.1800000000E+00	0.000E+00	0.0
</event>
<event>
    11  -1  1.0000000E+00  1.0000000E+00  -1.0000000E+00  -1.0000000E+00
	2212	-1	0	0	0	0	0.0000000000E+00	0.0000000000E+00	6.5000000000E+03	6.5000000000E+03	9.3827000000E-01	0.000E+00	0.0
	2212	-1	0	0	0	0	0.0000000000E+00	0.0000000000E+00	-6.5000000000E+03	6.5000000000E+03	9.3827000000E-01	0.000E+00	0.0
	2212	1	0	0	0	0	0.0000000000E+00	0.0000000000E+00	6.2524417056E+03	6.2524417056E+03	9.3827000000E-01	0.000E+00	0.0
	2212	1	0	0	0	0	0.0000000000E+00	0.0000000000E+00	-5.3726152211E+03	5.3726152211E+03	9.3827000000E-01	0.000E+00	0.0
	51	2	1	2	0	0	-5.8329175970E+01	-1.4500514361E+02	-9.3847366671E+02	1.4218070965E+03	1.0565859227E+03	0.000E+00	0.0
	1000022	2	5	5	0	0	5.8329175970E+01	1.4500514361E+02	-6.6167993744E+02	1.0788224630E+03	8.3762090623E+02	0.000E+00	0.0
	14	1	6	6	0	0	2.0278409387E+01	-1.9407135520E+02	-2.6046280449E+02	4.5993562302E+02	3.2500000000E+02	0.000E+00	0.0
	-14	1	6	6	0	0	3.8050766583E+01	3.3907649882E+02	-4.0121713295E+02	6.1888683995E+02	3.2500000000E+02	0.000E+00	0.0
	25	2	5	5	0	0	-5.8329175970E+01	-1.4500514361E+02	-2.1814654704E+02	2.9612061036E+02	1.2518272826E+02	0.000E+00	0.0
	-5	1	9	9	0	501	1.2016467142E+01	-1.2683436284E+02	-1.3808470383E+02	1.8792607299E+02	4.1800000000E+00	0.000E+00	0.0
	5	1	9	9	501	0	-7.0345643112E+01	-1.8170780778E+01	-8.0061843212E+01	1.0819453737E+02	4.1800000000E+00	0.000E+00	0.0
</event>
<event>
    11  -1  1.0000000E+00  1.0000000E+00  -1.0000000E+00  -1.0000000E+00
	2212	-1	0	0	0	0	0.0000000000E+00	0.0000000000E+00	6.5000000000E+03	6.5000000000E+03	9.3827000000E-01	0.000E+00	0.0
	2212	-1	0	0	0	0	0.0000000000E+00	0.0000000000E+00	-6.5000000000E+03	6.5000000000E+03	9.3827000000E-01	0.000E+00	0.0
	2212	1	0	0	0	0	0.0000000000E+00	0.0000000000E+00	6.3130164595E+03	6.3130164595E+03	9.3827000000E-01	0.000E+00	0.0
	2212	1	0	0	0	0	0.0000000000E+00	0.0000000000E+00	-5.0608735112E+03	5.0608735112E+03	9.3827000000E-01	0.000E+00	0.0
	51	2	1	2	0	0	-3.2607261648E+01	7.4477871779E+01	-1.1122571656E+03	1.5231868085E+03	1.0374834284E+03	0.000E+00	0.0
	1000022	2	5	5	0	0	3.2607261648E+01	-7.4477871779E+01	-1.1875332793E+03	1.4634628490E+03	8.5139769435E+02	0.000E+00	0.0
	14	1	6	6	0	0	2.3519003235E+02	5.9332554955E+01	-3.6184088069E+02	5.4349657436E+02	3.2500000000E+02	0.000E+00	0.0
	-14	1	6	6	0	0	-2.0258277071E+02	-1.3381042673E+02	-8.2569239862E+02	9.1996627462E+02	3.2500000000E+02	0.000E+00	0.0
	25	2	5	5	0	0	-3.2607261648E+01	7.4477871779E+01	-6.4609669014E+01	1.6264718032E+02	1.2517790955E+02	0.000E+00	0.0
	-5	1	9	9	0	501	8.9710943293E+00	9.6669605719E+01	-2.3519773843E+01	9.9980724967E+01	4.1800000000E+00	0.000E+00	0.0
	5	1	9	9	501	0	-4.1578355977E+01	-2.2191733940E+01	-4.1089895171E+01	6.2666455350E+01	4.1800000000E+00	0.000E+00	0.0
</event>
<event>
    11  -1  1.0000000E+00  1.0000000E+00  -1.0000000E+00  -1.0000000E+00
	2212	-1	0	0	0	0	0.0000000000E+00	0.0000000000E+00	6.5000000000E+03	6.5000000000E+03	9.3827000000E-01	0.000E+00	0.0
	2212	-1	0	0	0	0	0.0000000000E+00	0.0000000000E+00	-6.5000000000E+03	6.5000000000E+03	9.3827000000E-01	0.000E+00	0.0
	2212	1	0	0	0	0	0.0000000000E+00	0.0000000000E+00	6.3128319322E+03	6.3128319322E+03	9.3827000000E-01	0.000E+00	0.0
	2212	1	0	0	0	0	0.0000000000E+00	0.0000000000E+00	-5.0111148616E+03	5.0111148616E+03	9.3827000000E-01	0.000E+00	0.0
	51	2	1	2	0	0	3.5013502795E+01	-2.7511138774E+01	-1.5429406784E+03	1.8701165106E+03	1.0557873925E+03	0.000E+00	0.0
	1000022	2	5	5	0	0	-3.5013502795E+01	2.7511138774E+01	-8.3236909767E+02	1.1882635750E+03	8.4684662178E+02	0.000E+00	0.0
	14	1	6	6	0	0	-5.4734489092E+01	-4.6508503432E+01	-7.8289790087E+02	8.5071324685E+02	3.2500000000E+02	0.000E+00	0.0
	-14	1	6	6	0	0	1.9720986297E+01	7.4019642206E+01	-4.9471196802E+01	3.3755032817E+02	3.2500000000E+02	0.000E+00	0.0
	25	2	5	5	0	0	3.5013502795E+01	-2.7511138774E+01	-4.6934797296E+02	4.8778963119E+02	1.2517346539E+02	0.000E+00	0.0
	-5	1	9	9	0	501	2.1073175026E+01	-2.0879131347E+01	-1.5630858681E+01	3.3790723203E+01	4.1800000000E+00	0.000E+00	0.0
	5	1	9	9	501	0	1.3940327770E+01	-6.6320074261E+00	-4.5371711428E+02	4.5399890799E+02	4.1800000000E+00	0.000E+00	0.0
</event>
<event>
    11  -1  1.0000000E+00  1.0000000E+00  -1.0000000E+00  -1.0000000E+00
	2212	-1	0	0	0	0	0.0000000000E+00	0.0000000000E+00	6.5000000000E+03	6.5000000000E+03	9.3827000000E-01	0.000E+00	0.0
	2212	-1	0	0	0	0	0.0000000000E+00	0.0000000000E+00	-6.5000000000E+03	6.5000000000E+03	9.3827000000E-01	0.000E+00	0.0
	2212	1	0	0	0	0	0.0000000000E+00	0.0000000000E+00	6.3283053331E+03	6.3283053331E+03	9.3827000000E-01	0.000E+00	0.0
	2212	1	0	0	0	0	0.0000000000E+00	0.0000000000E+00	-4.8899462220E+03	4.8899462220E+03	9.3827000000E-01	0.000E+00	0.0
	51	2	1	2	0	0	-3.6467797825E+01	-9.2681201176E+01	-1.2514286698E+03	1.6376031295E+03	1.0515467601E+03	0.000E+00	0.0
	1000022	2	5	5	0	0	3.6467797825E+01	9.2681201176E+01	-1.3677452062E+03	1.6068640865E+03	8.3747569403E+02	0.000E+00	0.0
	14	1	6	6	0	0	1.3697801620E+02	-6.5066478413E+01	-1.0686012366E+03	1.1271779923E+03	3.2500000000E+02	0.000E+00	0.0
	-14	1	6	6	0	0	-1.0051021838E+02	1.5774767959E+02	-2.9914396967E+02	4.7968609424E+02	3.2500000000E+02	0.000E+00	0.0
	25	2	5	5	0	0	-3.6467797825E+01	-9.2681201176E+01	-7.0613904853E+01	1.7488435843E+02	1.2521385680E+02	0.000E+00	0.0
	-5	1	9	9	0	501	-8.2360598220E+01	-7.1977867394E+01	-4.7224016608E+01	1.1921267415E+02	4.1800000000E+00	0.000E+00	0.0
	5	1	9	9	501	0	4.5892800395E+01	-2.0703333782E+01	-2.3389888245E+01	5.5671684274E+01	4.1800000000E+00	0.000E+00	0.0
</event>
<event>
    11  -1  1.0000000E+00  1.0000000E+00  -1.0000000E+00  -1.0000000E+00
	2212	-1	0	0	0	0	0.0000000000E+00	0.0000000000E+00	6.5000000000E+03	6.5000000000E+03	9.3827000000E-01	0.000E+00	0.0
	2212	-1	0	0	0	0	0.0000000000E+00	0.0000000000E+00	-6.5000000000E+03	6.5000000000E+03	9.3827000000E-01	0.000E+00	0.0
	2212	1	0	0	0	0	0.0000000000E+00	0.0000000000E+00	5.7255127259E+03	5.7255127259E+03	9.3827000000E-01	0.000E+00	0.0
	2212	1	0	0	0	0	0.0000000000E+00	0.0000000000E+00	-6.1590722568E+03	6.1590722568E+03	9.3827000000E-01	0.000E+00	0.0
	51	2	1	2	0	0	2.9973805020E+01	-6.5396037604E+01	3.4215090333E+02	1.0855501395E+03	1.0277046239E+03	0.000E+00	0.0
	1000022	2	5	5	0	0	-2.9973805020E+01	6.5396037604E+01	4.5653841192E+02	9.6923125250E+02	8.5194297259E+02	0.000E+00	0.0
	14	1	6	6	0	0	9.1981135041E+00	-1.7523056899E+01	-7.9984132934E+01	3.3528215630E+02	3.2500000000E+02	0.000E+00	0.0
	-14	1	6	6	0	0	-3.9171918524E+01	8.2919094503E+01	5.3652254485E+02	6.3394909620E+02	3.2500000000E+02	0.000E+00	0.0
	25	2	5	5	0	0	2.9973805020E+01	-6.5396037604E+01	-2.2978881037E+01	1.4618376479E+02	1.2516626299E+02	0.000E+00	0.0
	-5	1	9	9	0	501	1.2489154817E+01	3.2100149623E+01	-3.1255935866E+01	4.6699084795E+01	4.1800000000E+00	0.000E+00	0.0
	5	1	9	9	501	0	1.7484650203E+01	-9.7496187227E+01	8.2770548290E+00	9.9484679992E+01	4.1800000000E+00	0.000E+00	0.0
</event>
<event>
    11  -1  1.0000000E+00  1.0000000E+00  -1.0000000E+00  -1.0000000E+00
	2212	-1	0	0	0	0	0.0000000000E+00	0.0000000000E+00	6.5000000000E+03	6.5000000000E+03	9.3827000000E-01	0.000E+00	0.0
	2212	-1	0	0	0	0	0.0000000000E+00	0.0000000000E+00	-6.5000000000E+03	6.5000000000E+03	9.3827000000E-01	0.000E+00	0.0
	2212	1	0	0	0	0	0.0000000000E+00	0.0000000000E+00	5.4750382853E+03	5.4750382853E+03	9.3827000000E-01	0.000E+00	0.0
	2212	1	0	0	0	0	0.0000000000E+00	0.0000000000E+00	-6.2166374620E+03	6.2166374620E+03	9.3827000000E-01	0.000E+00	0.0
	51	2	1	2	0	0	3.9468634354E+01	-7.0229525911E+01	5.8074728041E+02	1.2269883350E+03	1.0778418303E+03	0.000E+00	0.0
	1000022	2	5	5	0	0	-3.9468634354E+01	7.0229525911E+01	7.7039858610E+02	1.1566940657E+03	8.5903272391E+02	0.000E+00	0.0
	14	1	6	6	0	0	-2.0012791973E+02	-1.3185083389E+02	1.9824341701E+02	4.4984583920E+02	3.2500000000E+02	0.000E+00	0.0
	-14	1	6	6	0	0	1.6065928538E+02	2.0208035980E+02	5.7215516909E+02	7.0684822650E+02	3.2500000000E+02	0.000E+00	0.0
	25	2	5	5	0	0	3.9468634354E+01	-7.0229525911E+01	-2.8799409321E+01	1.5163018699E+02	1.2518924963E+02	0.000E+00	0.0
	-5	1	9	9	0	501	2.9246505981E+01	3.0958775617E+01	7.7276520810E+00	4.3485548249E+01	4.1800000000E+00	0.000E+00	0.0
	5	1	9	9	501	0	1.0222128373E+01	-1.0118830153E+02	-3.6527061402E+01	1.0814463874E+02	4.1800000000E+00	0.000E+00	0.0
</event>
<event>
    11  -1  1.0000000E+00  1.0000000E+00  -1.0000000E+00  -1.0000000E+00
	2212	-1	0	0	0	0	0.0000000000E+00	0.0000000000E+00	6.5000000000E+03	6.5000000000E+03	9.3827000000E-01	0.000E+00	0.0
	2212	-1	0	0	0	0	0.0000000000E+00	0.0000000000E+00	-6.5000000000E+03	6.5000000000E+03	9.3827000000E-01	0.000E+00	0.0
	2212	1	0	0	0	0	0.0000000000E+00	0.0000000000E+00	4.8585801930E+03	4.8585801930E+03	9.3827000000E-01	0.000E+00	0.0
	2212	1	0	0	0	0	0.0000000000E+00	0.0000000000E+00	-6.2988491717E+03	6.2988491717E+03	9.3827000000E-01	0.000E+00	0.0
	51	2	1	2	0	0	6.1850497957E+01	2.2992410566E+02	1.2302902976E+03	1.7002930952E+03	1.1492135636E+03	0.000E+00	0.0
	1000022	2	5	5	0	0	-6.1850497957E+01	-2.2992410566E+02	1.3029669282E+03	1.5405636091E+03	7.8671649236E+02	0.000E+00	0.0
	14	1	6	6	0	0	4.8367433858E+01	5.1613508917E+01	3.1786659406E+02	4.6007340130E+02	3.2500000000E+02	0.000E+00	0.0
	-14	1	6	6	0	0	-1.1021793182E+02	-2.8153761458E+02	9.8510033413E+02	1.0804902078E+03	3.2500000000E+02	0.000E+00	0.0
	25	2	5	5	0	0	6.1850497957E+01	2.2992410566E+02	1.3730205052E+02	3.0200702609E+02	1.2516314263E+02	0.000E+00	0.0
	-5	1	9	9	0	501	5.1054304056E+01	5.6127722268E+01	-6.3171982955E+00	7.6251180738E+01	4.1800000000E+00	0.000E+00	0.0
	5	1	9	9	501	0	1.0796193901E+01	1.7379638339E+02	1.4361924881E+02	2.2575584536E+02	4.1800000000E+00	0.000E+00	0.0
</event>
<event>
    11  -1  1.0000000E+00  1.0000000E+00  -1.0000000E+00  -1.0000000E+00
	2212	-1	0	0	0	0	0.0000000000E+00	0.0000000000E+00	6.5000000000E+03	6.5000000000E+03	9.3827000000E-01	0.000E+00	0.0
	2212	-1	0	0	0	0	0.0000000000E+00	0.0000000000E+00	-6.5000000000E+03	6.5000000000E+03	9.3827000000E-01	0.000E+00	0.0
	2212	1	0	0	0	0	0.0000000000E+00	0.0000000000E+00	6.3364237180E+03	6.3364237180E+03	9.3827000000E-01	0.000E+00	0.0
	2212	1	0	0	0	0	0.0000000000E+00	0.0000000000E+00	-4.9773779585E+03	4.9773779585E+03	9.3827000000E-01	0.000E+00	0.0
	51	2	1	2	0	0	-6.3424652411E+01	-3.9171736981E+00	-1.3292480788E+03	1.6634896740E+03	9.9812795256E+02	0.000E+00	0.0
	1000022	2	5	5	0	0	6.3424652411E+01	3.9171736981E+00	-1.1988852919E+03	1.4732216703E+03	8.5382557693E+02	0.000E+00	0.0
	14	1	6	6	0	0	2.5191056033E+02	-1.6441194241E+02	-6.6690278490E+02	8.0054640198E+02	3.2500000000E+02	0.000E+00	0.0
	-14	1	6	6	0	0	-1.8848590792E+02	1.6832911611E+02	-5.3198250702E+02	6.7267526831E+02	3.2500000000E+02	0.000E+00	0.0
	25	2	5	5	0	0	-6.3424652411E+01	-3.9171736981E+00	-1.6016046762E+02	2.1297665322E+02	1.2517846719E+02	0.000E+00	0.0
	-5	1	9	9	0	501	-1.1792931157E+01	-5.8387700349E+01	-4.2268394798E+01	7.3159321868E+01	4.1800000000E+00	0.000E+00	0.0
	5	1	9	9	501	0	-5.1631721254E+01	5.4470526651E+01	-1.1789207282E+02	1.3981733135E+02	4.1800000000E+00	0.000E+00	0.0
</event>
<event>
    11  -1  1.0000000E+00  1.0000000E+00  -1.0000000E+00  -1.0000000E+00
	2212	-1	0	0	0	0	0.0000000000E+00	0.0000000000E+00	6.5000000000E+03	6.5000000000E+03	9.3827000000E-01	0.000E+00	0.0
	2212	-1	0	0	0	0	0.0000000000E+00	0.0000000000E+00	-6.5000000000E+03	6.5000000000E+03	9.3827000000E-01	0.000E+00	0.0
	2212	1	0	0	0	0	0.0000000000E+00	0.0000000000E+00	6.2865742926E+03	6.2865742926E+03	9.3827000000E-01	0.000E+00	0.0
	2212	1	0	0	0	0	0.0000000000E+00	0.0000000000E+00	-5.1581457275E+03	5.1581457275E+03	9.3827000000E-01	0.000E+00	0.0
	51	2	1	2	0	0	6.5462936343E+00	1.0949425734E+02	-1.3032798343E+03	1.6900044268E+03	1.0703012612E+03	0.000E+00	0.0
	1000022	2	5	5	0	0	-6.5462936343E+00	-1.0949425734E+02	-7.5408416150E+02	1.1455999998E+03	8.5540901944E+02	0.000E+00	0.0
	14	1	6	6	0	0	-5.7952190625E+01	1.5472537718E+02	-1.1980396160E+02	3.8376605889E+02	3.2500000000E+02	0.000E+00	0.0
	-14	1	6	6	0	0	5.1405896991E+01	-2.6421963452E+02	-6.3428019990E+02	7.6183394089E+02	3.2500000000E+02	0.000E+00	0.0
	25	2	5	5	0	0	6.5462936343E+00	1.0949425734E+02	-3.7434440360E+02	4.0967998021E+02	1.2518828748E+02	0.000E+00	0.0
	-5	1	9	9	0	501	6.4534635364E+01	4.7206987797E+01	-2.0570647116E+02	2.2073931126E+02	4.1800000000E+00	0.000E+00	0.0
	5	1	9	9	501	0	-5.7988341730E+01	6.2287269541E+01	-1.6863793245E+02	1.8894066895E+02	4.1800000000E+00	0.000E+00	0.0
</event>
<event>
    11  -1  1.0000000E+00  1.0000000E+00  -1.0000000E+00  -1.0000000E+00
	2212	-1	0	0	0	0	0.0000000000E+00	0.0000000000E+00	6.5000000000E+03	6.5000000000E+03	9.3827000000E-01	0.000E+00	0.0
	2212	-1	0	0	0	0	0.0000000000E+00	0.0000000000E+00	-6.5000000000E+03	6.5000000000E+03	9.3827000000E-01	0.000E+00	0.0
	2212	1	0	0	0	0	0.0000000000E+00	0.0000000000E+00	5.3781378617E+03	5.3781378617E+03	9.3827000000E-01	0.000E+00	0.0
	2212	1	0	0	0	0	0.0000000000E+00	0.0000000000E+00	-6.2519575545E+03	6.2519575545E+03	9.3827000000E-01	0.000E+00	0.0
	51	2	1	2	0	0	1.1626845683E+02	5.5388134823E+01	9.5080113824E+02	1.4260738821E+03	1.0550249823E+03	0.000E+00	0.0
	1000022	2	5	5	0	0	-1.1626845683E+02	-5.5388134823E+01	6.4923899990E+02	1.0823409976E+03	8.5636706881E+02	0.000E+00	0.0
	14	1	6	6	0	0	-4.3495286908E+01	-4.4724316254E+01	6.7125221228E+02	7.4839604284E+02	3.2500000000E+02	0.000E+00	0.0
	-14	1	6	6	0	0	-7.2773169927E+01	-1.0663818569E+01	-2.2013212379E+01	3.3394495476E+02	3.2500000000E+02	0.000E+00	0.0
	25	2	5	5	0	0	1.1626845683E+02	5.5388134823E+01	2.2458069286E+02	2.8756358621E+02	1.2518038575E+02	0.000E+00	0.0
	-5	1	9	9	0	501	4.4906310492E+01	-3.3824527378E+01	3.5534662437E+01	6.6639777977E+01	4.1800000000E+00	0.000E+00	0.0
	5	1	9	9	501	0	7.1362146342E+01	8.9212662201E+01	1.8904603042E+02	2.2092380824E+02	4.1800000000E+00	0.000E+00	0.0
</event>
<event>
    11  -1  1.0000000E+00  1.0000000E+00  -1.0000000E+00  -1.0000000E+00
	2212	-1	0	0	0	0	0.0000000000E+00	0.0000000000E+00	6.5000000000E+03	6.5000000000E+03	9.3827000000E-01	0.000E+00	0.0
	2212	-1	0	0	0	0	0.0000000000E+00	0.0000000000E+00	-6.5000000000E+03	6.5000000000E+03	9.3827000000E-01	0.000E+00	0.0
	2212	1	0	0	0	0	0.0000000000E+00	0.0000000000E+00	5.0560002361E+03	5.0560002361E+03	9.3827000000E-01	0.000E+00	0.0
	2212	1	0	0	0	0	0.0000000000E+00	0.0000000000E+00	-6.3095957606E+03	6.3095957606E+03	9.3827000000E-01	0.000E+00	0.0
	51	2	1	2	0	0	5.6849367801E+01	-7.9204560944E+01	1.1043380941E+03	1.5260545685E+03	1.0487014384E+03	0.000E+00	0.0
	1000022	2	5	5	0	0	-5.6849367801E+01	7.9204560944E+01	1.1880797652E+03	1.4627379513E+03	8.4768129185E+02	0.000E+00	0.0
	14	1	6	6	0	0	-2.6089402764E+01	2.3073886848E+02	2.8529358842E+02	4.9085488075E+02	3.2500000000E+02	0.000E+00	0.0
	-14	1	6	6	0	0	-3.0759965037E+01	-1.5153430753E+02	9.0278617679E+02	9.7188307054E+02	3.2500000000E+02	0.000E+00	0.0
	25	2	5	5	0	0	5.6849367801E+01	-7.9204560944E+01	6.5515759254E+01	1.7166605198E+02	1.2518668299E+02	0.000E+00	0.0
	-5	1	9	9	0	501	5.2461233762E+01	-5.0624196644E+01	1.0167371049E+02	1.2517989510E+02	4.1800000000E+00	0.000E+00	0.0
	5	1	9	9	501	0	4.3881340382E+00	-2.8580364300E+01	-3.6157951235E+01	4.6486156879E+01	4.1800000000E+00	0.000E+00	0.0
</event>
<event>
    11  -1  1.0000000E+00  1.0000000E+00  -1.0000000E+00  -1.0000000E+00
	2212	-1	0	0	0	0	0.0000000000E+00	0.0000000000E+00	6.5000000000E+03	6.5000000000E+03	9.3827000000E-01	0.000E+00	0.0
	2212	-1	0	0	0	0	0.0000000000E+00	0.0000000000E+00	-6.5000000000E+03	6.5000000000E+03	9.3827000000E-01	0.000E+00	0.0
	2212	1	0	0	0	0	0.0000000000E+00	0.0000000000E+00	5.3858357423E+03	5.3858357423E+03	9.3827000000E-01	0.000E+00	0.0
	2212	1	0	0	0	0	0.0000000000E+00	0.0000000000E+00	-6.2487699866E+03	6.2487699866E+03	9.3827000000E-01	0.000E+00	0.0
	51	2	1	2	0	0	1.2666960475E+02	4.0457200099E+01	7.9022665919E+02	1.3273229269E+03	1.0581332646E+03	0.000E+00	0.0
	1000022	2	5	5	0	0	-1.2666960475E+02	-4.0457200099E+01	7.8645058717E+02	1.1674049087E+03	8.5243634421E+02	0.000E+00	0.0
	14	1	6	6	0	0	-2.6782718107E+02	7.9624647416E+01	2.0284296581E+02	4.7417481183E+02	3.2500000000E+02	0.000E+00	0.0
	-14	1	6	6	0	0	1.4115757632E+02	-1.2008184752E+02	5.8360762136E+02	6.9323009684E+02	3.2500000000E+02	0.000E+00	0.0
	25	2	5	5	0	0	1.2666960475E+02	4.0457200099E+01	7.6483657161E+01	1.9798936247E+02	1.2517213759E+02	0.000E+00	0.0
	-5	1	9	9	0	501	6.9946987556E+01	-4.2506336277E+01	3.1502408480E+01	8.7802299695E+01	4.1800000000E+00	0.000E+00	0.0
	5	1	9	9	501	0	5.6722617199E+01	8.2963536376E+01	4.4981248682E+01	1.1018706277E+02	4.1800000000E+00	0.000E+00	0.0
</event>
<event>
    11  -1  1.0000000E+00  1.0000000E+00  -1.0000000E+00  -1.0000000E+00
	2212	-1	0	0	0	0	0.0000000000E+00	0.0000000000E+00	6.5000000000E+03	6.5000000000E+03	9.3827000000E-01	0.000E+00	0.0
	2212	-1	0	0	0	0	0.0000000000E+00	0.0000000000E+00	-6.5000000000E+03	6.5000000000E+03	9.3827000000E-01	0.000E+00	0.0
	2212	1	0	0	0	0	0.0000000000E+00	0.0000000000E+00	5.2982227937E+03	5.2982227937E+03	9.3827000000E-01	0.000E+00	0.0
	2212	1	0	0	0	0	0.0000000000E+00	0.0000000000E+00	-6.2664037772E+03	6.2664037772E+03	9.3827000000E-01	0.000E+00	0.0
	51	2	1	2	0	0	4.1716066267E+01	8.0822959792E+00	6.6251946687E+02	1.2504639386E+03	1.0596803594E+03	0.000E+00	0.0
	1000022	2	5	5	0	0	-4.1716066267E+01	-8.0822959792E+00	1.0457301216E+03	1.2820956874E+03	7.4054865516E+02	0.000E+00	0.0
	14	1	6	6	0	0	1.5665515605E+02	-4.7011381950E+00	5.2286737369E+02	6.3527807226E+02	3.2500000000E+02	0.000E+00	0.0
	-14	1	6	6	0	0	-1.9837122232E+02	-3.3811577842E+00	5.2286274795E+02	6.4681761515E+02	3.2500000000E+02	0.000E+00	0.0
	25	2	5	5	0	0	4.1716066267E+01	8.0822959792E+00	-7.7549138083E+01	1.5327774169E+02	1.2519841688E+02	0.000E+00	0.0
	-5	1	9	9	0	501	5.2579018858E+01	4.2662183248E+01	-9.1766696852E+01	1.1411929791E+02	4.1800000000E+00	0.000E+00	0.0
	5	1	9	9	501	0	-1.0862952591E+01	-3.4579887269E+01	1.4217558770E+01	3.9158443788E+01	4.1800000000E+00	0.000E+00	0.0
</event>
<event>
    11  -1  1.0000000E+00  1.0000000E+00  -1.0000000E+00  -1.0000000E+00
	2212	-1	0	0	0	0	0.0000000000E+00	0.0000000000E+00	6.5000000000E+03	6.5000000000E+03	9.3827000000E-01	0.000E+00	0.0
	2212	-1	0	0	0	0	0.0000000000E+00	0.0000000000E+00	-6.5000000000E+03	6.5000000000E+03	9.3827000000E-01	0.000E+00	0.0
	2212	1	0	0	0	0	0.0000000000E+00	0.0000000000E+00	6.3045390928E+03	6.3045390928E+03	9.3827000000E-01	0.000E+00	0.0
	2212	1	0	0	0	0	0.0000000000E+00	0.0000000000E+00	-5.0911315614E+03	5.0911315614E+03	9.3827000000E-01	0.000E+00	0.0
	51	2	1	2	0	0	3.6935442832E+01	1.3142774375E+02	-1.3104525178E+03	1.6844696769E+03	1.0495307582E+03	0.000E+00	0.0
	1000022	2	5	5	0	0	-3.6935442832E+01	-1.3142774375E+02	-9.0466347664E+02	1.2442871522E+03	8.4332498622E+02	0.000E+00	0.0
	14	1	6	6	0	0	8.7090771713E+01	-1.5958222974E+02	-1.2964572626E+02	3.9431498184E+02	3.2500000000E+02	0.000E+00	0.0
	-14	1	6	6	0	0	-1.2402621454E+02	2.8154485994E+01	-7.7501775037E+02	8.4997217035E+02	3.2500000000E+02	0.000E+00	0.0
	25	2	5	5	0	0	3.6935442832E+01	1.3142774375E+02	-3.0874405474E+02	3.6004219353E+02	1.2517991461E+02	0.000E+00	0.0
	-5	1	9	9	0	501	7.4892455762E+01	1.2536740402E+02	-2.3330020355E+02	2.7526773022E+02	4.1800000000E+00	0.000E+00	0.0
	5	1	9	9	501	0	-3.7957012931E+01	6.0603397264E+00	-7.5443851190E+01	8.4774463317E+01	4.1800000000E+00	0.000E+00	0.0
</event>
<event>
    11  -1  1.0000000E+00  1.0000000E+00  -1.0000000E+00  -1.0000000E+00
	2212	-1	0	0	0	0	0.0000000000E+00	0.0000000000E+00	6.5000000000E+03	6.5000000000E+03	9.3827000000E-01	0.000E+00	0.0
	2212	-1	0	0	0	0	0.0000000000E+00	0.0000000000E+00	-6.5000000000E+03	6.5000000000E+03	9.3827000000E-01	0.000E+00	0.0
	2212	1	0	0	0	0	0.0000000000E+00	0.0000000000E+00	6.1612693706E+03	6.1612693706E+03	9.3827000000E-01	0.000E+00	0.0
	2212	1	0	0	0	0	0.0000000000E+00	0.0000000000E+00	-5.6282570470E+03	5.6282570470E+03	9.3827000000E-01	0.000E+00	0.0
	51	2	1	2	0	0	-1.7552969448E+02	4.9976014829E+01	-5.7964824135E+02	1.2451684690E+03	1.0868045623E+03	0.000E+00	0.0
	1000022	2	5	5	0	0	1.7552969448E+02	-4.9976014829E+01	-3.8422767574E+02	9.4379843260E+02	8.4250596371E+02	0.000E+00	0.0
	14	1	6	6	0	0	1.6149277811E+02	-2.5022242187E+02	-6.4201541327E+01	4.4546382086E+02	3.2500000000E+02	0.000E+00	0.0
	-14	1	6	6	0	0	1.4036916371E+01	2.0024640704E+02	-3.2002613441E+02	4.9833461174E+02	3.2500000000E+02	0.000E+00	0.0
	25	2	5	5	0	0	-1.7552969448E+02	4.9976014829E+01	-1.4878464781E+02	2.6667514983E+02	1.2518182141E+02	0.000E+00	0.0
	-5	1	9	9	0	501	-4.4017891082E+01	7.4985834175E+01	-5.1583726386E+01	1.0118697194E+02	4.1800000000E+00	0.000E+00	0.0
	5	1	9	9	501	0	-1.3151180340E+02	-2.5009819346E+01	-9.7200921422E+01	1.6548817789E+02	4.1800000000E+00	0.000E+00	0.0
</event>
<event>
    11  -1  1.0000000E+00  1.0000000E+00  -1.0000000E+00  -1.0000000E+00
	2212	-1	0	0	0	0	0.0000000000E+00	0.0000000000E+00	6.5000000000E+03	6.5000000000E+03	9.3827000000E-01	0.000E+00	0.0
	2212	-1	0	0	0	0	0.0000000000E+00	0.0000000000E+00	-6.5000000000E+03	6.5000000000E+03	9.3827000000E-01	0.000E+00	0.0
	2212	1	0	0	0	0	0.0000000000E+00	0.0000000000E+00	5.9532348581E+03	5.9532348581E+03	9.3827000000E-01	0.000E+00	0.0
	2212	1	0	0	0	0	0.0000000000E+00	0.0000000000E+00	-6.0010540082E+03	6.0010540082E+03	9.3827000000E-01	0.000E+00	0.0
	51	2	1	2	0	0	-9.9229404474E+01	-2.8395728651E+01	-4.5159130858E+01	1.0506746610E+03	1.0446172046E+03	0.000E+00	0.0
	1000022	2	5	5	0	0	9.9229404474E+01	2.8395728651E+01	1.3265224142E+02	8.6262826376E+02	8.4609580555E+02	0.000E+00	0.0
	14	1	6	6	0	0	1.7473602870E+02	2.0900292025E+02	2.1338188639E+02	4.7473332497E+02	3.2500000000E+02	0.000E+00	0.0
	-14	1	6	6	0	0	-7.5506624228E+01	-1.8060719160E+02	-8.0729644972E+01	3.8789493879E+02	3.2500000000E+02	0.000E+00	0.0
	25	2	5	5	0	0	-9.9229404474E+01	-2.8395728651E+01	-8.4833091269E+01	1.8308286998E+02	1.2517943836E+02	0.000E+00	0.0
	-5	1	9	9	0	501	-7.1483341666E+00	-1.9456212277E+01	2.9281875163E+01	3.6118464677E+01	4.1800000000E+00	0.000E+00	0.0
	5	1	9	9	501	0	-9.2081070307E+01	-8.9395163741E+00	-1.1411496643E+02	1.4696440530E+02	4.1800000000E+00	0.000E+00	0.0
</event>
<event>
    11  -1  1.0000000E+00  1.0000000E+00  -1.0000000E+00  -1.0000000E+00
	2212	-1	0	0	0	0	0.0000000000E+00	0.0000000000E+00	6.5000000000E+03	6.5000000000E+03	9.3827000000E-01	0.000E+00	0.0
	2212	-1	0	0	0	0	0.0000000000E+00	0.0000000000E+00	-6.5000000000E+03	6.5000000000E+03	9.3827000000E-01	0.000E+00	0.0
	2212	1	0	0	0	0	0.0000000000E+00	0.0000000000E+00	6.2037432375E+03	6.2037432375E+03	9.3827000000E-01	0.000E+00	0.0
	2212	1	0	0	0	0	0.0000000000E+00	0.0000000000E+00	-5.5146480668E+03	5.5146480668E+03	9.3827000000E-01	0.000E+00	0.0
	51	2	1	2	0	0	-1.4719063233E+02	5.9206543284E+01	-5.8472000505E+02	1.2388448959E+03	1.0805871991E+03	0.000E+00	0.0
	1000022	2	5	5	0	0	1.4719063233E+02	-5.9206543284E+01	-6.6075452566E+02	1.0775419499E+03	8.3625929808E+02	0.000E+00	0.0
	14	1	6	6	0	0	-1.9035988706E+02	9.0147994296E+00	-2.6819433327E+02	4.6246227264E+02	3.2500000000E+02	0.000E+00	0.0
	-14	1	6	6	0	0	3.3755051940E+02	-6.8221342714E+01	-3.9256019239E+02	6.1507967727E+02	3.2500000000E+02	0.000E+00	0.0
	25	2	5	5	0	0	-1.4719063233E+02	5.9206543284E+01	-2.8340645038E+01	2.0406674586E+02	1.2517806354E+02	0.000E+00	0.0
	-5	1	9	9	0	501	-1.0697033385E+02	9.5304160202E+00	-6.9444546813E+01	1.2795897247E+02	4.1800000000E+00	0.000E+00	0.0
	5	1	9	9	501	0	-4.0220298485E+01	4.9676127264E+01	4.1103901775E+01	7.6107773396E+01	4.1800000000E+00	0.000E+00	0.0
</event>
<event>
    11  -1  1.0000000E+00  1.0000000E+00  -1.0000000E+00  -1.0000000E+00
	2212	-1	0	0	0	0	0.0000000000E+00	0.0000000000E+00	6.5000000000E+03	6.5000000000E+03	9.3827000000E-01	0.000E+00	0.0
	2212	-1	0	0	0	0	0.0000000000E+00	0.0000000000E+00	-6.5000000000E+03	6.5000000000E+03	9.3827000000E-01	0.000E+00	0.0
	2212	1	0	0	0	0	0.0000000000E+00	0.0000000000E+00	6.3099814058E+03	6.3099814058E+03	9.3827000000E-01	0.000E+00	0.0
	2212	1	0	0	0	0	0.0000000000E+00	0.0000000000E+00	-5.0589341957E+03	5.0589341957E+03	9.3827000000E-01	0.000E+00	0.0
	51	2	1	2	0	0	7.5710643328E+01	8.6752204627E+01	-1.1287743156E+03	1.5436018578E+03	1.0465740267E+03	0.000E+00	0.0
	1000022	2	5	5	0	0	-7.5710643328E+01	-8.6752204627E+01	-1.1572227158E+03	1.4368245107E+03	8.4382593813E+02	0.000E+00	0.0
	14	1	6	6	0	0	-2.0704246624E+02	1.3471087015E+02	-7.5964318211E+02	8.6237831923E+02	3.2500000000E+02	0.000E+00	0.0
	-14	1	6	6	0	0	1.3133182291E+02	-2.2146307478E+02	-3.9757953373E+02	5.7444619142E+02	3.2500000000E+02	0.000E+00	0.0
	25	2	5	5	0	0	7.5710643328E+01	8.6752204627E+01	-9.3824494232E+01	1.9425988791E+02	1.2520312221E+02	0.000E+00	0.0
	-5	1	9	9	0	501	6.2083736935E+01	-1.5699841075E+01	-2.0141861270E+01	6.7261001904E+01	4.1800000000E+00	0.000E+00	0.0
	5	1	9	9	501	0	1.3626906392E+01	1.0245204570E+02	-7.3682632962E+01	1.2699888601E+02	4.1800000000E+00	0.000E+00	0.0
</event>
<event>
    11  -1  1.0000000E+00  1.0000000E+00  -1.0000000E+00  -1.0000000E+00
	2212	-1	0	0	0	0	0.0000000000E+00	0.0000000000E+00	6.5000000000E+03	6.5000000000E+03	9.3827000000E-01	0.000E+00	0.0
	2212	-1	0	0	0	0	0.0000000000E+00	0.0000000000E+00	-6.5000000000E+03	6.5000000000E+03	9.3827000000E-01	0.000E+00	0.0
	2212	1	0	0	0	0	0.0000000000E+00	0.0000000000E+00	4.8875515188E+03	4.8875515188E+03	9.3827000000E-01	0.000E+00	0.0
	2212	1	0	0	0	0	0.0000000000E+00	0.0000000000E+00	-6.3295088978E+03	6.3295088978E+03	9.3827000000E-01	0.000E+00	0.0
	51	2	1	2	0	0	-1.2386173059E+02	-5.0198451989E+01	1.3998681450E+03	1.7541735694E+03	1.0486336230E+03	0.000E+00	0.0
	1000022	2	5	5	0	0	1.2386173059E+02	5.0198451989E+01	1.2408018473E+03	1.5109403130E+03	8.5175688575E+02	0.000E+00	0.0
	14	1	6	6	0	0	-1.1615798539E+02	-1.4020127016E+02	3.3495702369E+02	5.0096934182E+02	3.2500000000E+02	0.000E+00	0.0
	-14	1	6	6	0	0	2.4001971598E+02	1.9039972215E+02	9.0584482361E+02	1.0099709712E+03	3.2500000000E+02	0.000E+00	0.0
	25	2	5	5	0	0	-1.2386173059E+02	-5.0198451989E+01	2.0115553169E+02	2.7199927039E+02	1.2513369759E+02	0.000E+00	0.0
	-5	1	9	9	0	501	-5.9366995788E+01	3.5703353218E+01	1.1463425836E+02	1.3400617602E+02	4.1800000000E+00	0.000E+00	0.0
	5	1	9	9	501	0	-6.4494734805E+01	-8.5901805207E+01	8.6521273329E+01	1.3799309437E+02	4.1800000000E+00	0.000E+00	0.0
</event>
<event>
    11  -1  1.0000000E+00  1.0000000E+00  -1.0000000E+00  -1.0000000E+00
	2212	-1	0	0	0	0	0.0000000000E+00	0.0000000000E+00	6.5000000000E+03	6.5000000000E+03	9.3827000000E-01	0.000E+00	0.0
	2212	-1	0	0	0	0	0.0000000000E+00	0.0000000000E+00	-6.5000000000E+03	6.5000000000E+03	9.3827000000E-01	0.000E+00	0.0
	2212	1	0	0	0	0	0.0000000000E+00	0.0000000000E+00	5.2225005726E+03	5.2225005726E+03	9.3827000000E-01	0.000E+00	0.0
	2212	1	0	0	0	0	0.0000000000E+00	0.0000000000E+00	-6.2763565040E+03	6.2763565040E+03	9.3827000000E-01	0.000E+00	0.0
	51	2	1	2	0	0	1.1912434330E+02	-4.8089418294E+01	9.2565182941E+02	1.4199127660E+03	1.0690265443E+03	0.000E+00	0.0
	1000022	2	5	5	0	0	-1.1912434330E+02	4.8089418294E+01	9.9177789753E+02	1.3113296933E+03	8.4820926966E+02	0.000E+00	0.0
	14	1	6	6	0	0	-2.3695300357E+02	1.6769100663E+02	3.0081913743E+02	5.2951312830E+02	3.2500000000E+02	0.000E+00	0.0
	-14	1	6	6	0	0	1.1782866026E+02	-1.1960158833E+02	6.9095876010E+02	7.8181656498E+02	3.2500000000E+02	0.000E+00	0.0
	25	2	5	5	0	0	1.1912434330E+02	-4.8089418294E+01	6.2078033857E+01	1.8981323015E+02	1.2518857269E+02	0.000E+00	0.0
	-5	1	9	9	0	501	2.0738247921E+01	-6.0477555755E+00	-3.7573716978E+01	4.3542012836E+01	4.1800000000E+00	0.000E+00	0.0
	5	1	9	9	501	0	9.8386095384E+01	-4.2041662718E+01	9.9651750835E+01	1.4627121731E+02	4.1800000000E+00	0.000E+00	0.0
</event>
<event>
    11  -1  1.0000000E+00  1.0000000E+00  -1.0000000E+00  -1.0000000E+00
	2212	-1	0	0	0	0	0.0000000000E+00	0.0000000000E+00	6.5000000000E+03	6.5000000000E+03	9.3827000000E-01	0.000E+00	0.0
	2212	-1	0	0	0	0	0.0000000000E+00	0.0000000000E+00	-6.5000000000E+03	6.5000000000E+03	9.3827000000E-01	0.000E+00	0.0
	2212	1	0	0	0	0	0.0000000000E+00	0.0000000000E+00	6.1881933074E+03	6.1881933074E+03	9.3827000000E-01	0.000E+00	0.0
	2212	1	0	0	0	0	0.0000000000E+00	0.0000000000E+00	-5.6279463141E+03	5.6279463141E+03	9.3827000000E-01	0.000E+00	0.0
	51	2	1	2	0	0	3.8466222547E+01	-8.4190252182E+01	-5.8277211016E+02	1.1982652810E+03	1.0429039756E+03	0.000E+00	0.0
	1000022	2	5	5	0	0	-3.8466222547E+01	8.4190252182E+01	-4.5582833960E+02	9.9640588417E+02	8.8117964230E+02	0.000E+00	0.0
	14	1	6	6	0	0	-6.3561509802E+01	-2.0543472192E+02	-3.9717399004E+02	5.5643118969E+02	3.2500000000E+02	0.000E+00	0.0
	-14	1	6	6	0	0	2.5095287255E+01	2.8962497410E+02	-5.8654349560E+01	4.3997469449E+02	3.2500000000E+02	0.000E+00	0.0
	25	2	5	5	0	0	3.8466222547E+01	-8.4190252182E+01	-1.0441865373E+02	1.8745449436E+02	1.2517301374E+02	0.000E+00	0.0
	-5	1	9	9	0	501	2.4632527035E+01	-7.6305045358E+01	1.4590499744E+00	8.0304561278E+01	4.1800000000E+00	0.000E+00	0.0
	5	1	9	9	501	0	1.3833695512E+01	-7.8852068237E+00	-1.0587770370E+02	1.0714993308E+02	4.1800000000E+00	0.000E+00	0.0
</event>
<event>
    11  -1  1.0000000E+00  1.0000000E+00  -1.0000000E+00  -1.0000000E+00
	2212	-1	0	0	0	0	0.0000000000E+00	0.0000000000E+00	6.5000000000E+03	6.5000000000E+03	9.3827000000E-01	0.000E+00	0.0
	2212	-1	0	0	0	0	0.0000000000E+00	0.0000000000E+00	-6.5000000000E+03	6.5000000000E+03	9.3827000000E-01	0.000E+00	0.0
	2212	1	0	0	0	0	0.0000000000E+00	0.0000000000E+00	6.2977384192E+03	6.2977384192E+03	9.3827000000E-01	0.000E+00	0.0
	2212	1	0	0	0	0	0.0000000000E+00	0.0000000000E+00	-5.1682383780E+03	5.1682383780E+03	9.3827000000E-01	0.000E+00	0.0
	51	2	1	2	0	0	-1.2940585119E+02	-1.0897963977E+01	-1.1437729415E+03	1.5500122662E+03	1.0380061867E+03	0.000E+00	0.0
	1000022	2	5	5	0	0	1.2940585119E+02	1.0897963977E+01	-9.2771232460E+02	1.2633620999E+03	8.4768449221E+02	0.000E+00	0.0
	14	1	6	6	0	0	1.6257203698E+01	2.7247362663E+02	-4.8846620274E+02	6.4709381476E+02	3.2500000000E+02	0.000E+00	0.0
	-14	1	6	6	0	0	1.1314864749E+02	-2.6157566265E+02	-4.3924612186E+02	6.1626828516E+02	3.2500000000E+02	0.000E+00	0.0
	25	2	5	5	0	0	-1.2940585119E+02	-1.0897963977E+01	-2.0178771665E+02	2.7066110292E+02	1.2519788378E+02	0.000E+00	0.0
	-5	1	9	9	0	501	-7.0842483544E+01	-2.9485954024E+01	-1.9390043434E+02	2.0857355967E+02	4.1800000000E+00	0.000E+00	0.0
	5	1	9	9	501	0	-5.8563367646E+01	1.8587990047E+01	-7.8872823105E+00	6.2087543246E+01	4.1800000000E+00	0.000E+00	0.0
</event>
<event>
    11  -1  1.0000000E+00  1.0000000E+00  -1.0000000E+00  -1.0000000E+00
	2212	-1	0	0	0	0	0.0000000000E+00	0.0000000000E+00	6.5000000000E+03	6.5000000000E+03	9.3827000000E-01	0.000E+00	0.0
	2212	-1	0	0	0	0	0.0000000000E+00	0.0000000000E+00	-6.5000000000E+03	6.5000000000E+03	9.3827000000E-01	0.000E+00	0.0
	2212	1	0	0	0	0	0.0000000000E+00	0.0000000000E+00	5.7338612837E+03	5.7338612837E+03	9.3827000000E-01	0.000E+00	0.0
	2212	1	0	0	0	0	0.0000000000E+00	0.0000000000E+00	-6.1384163828E+03	6.1384163828E+03	9.3827000000E-01	0.000E+00	0.0
	51	2	1	2	0	0	1.1865416493E+02	-5.8406142128E+01	3.5698366969E+02	1.1193838760E+03	1.0526598848E+03	0.000E+00	0.0
	1000022	2	5	5	0	0	-1.1865416493E+02	5.8406142128E+01	3.8336890755E+02	9.4439467446E+02	8.5288891045E+02	0.000E+00	0.0
	14	1	6	6	0	0	1.6279245088E+02	1.6155579701E+02	2.9064813979E+02	4.9264896100E+02	3.2500000000E+02	0.000E+00	0.0
	-14	1	6	6	0	0	-2.8144661581E+02	-1.0314965488E+02	9.2720767754E+01	4.5174571345E+02	3.2500000000E+02	0.000E+00	0.0
	25	2	5	5	0	0	1.1865416493E+02	-5.8406142128E+01	2.1186191538E+01	1.8332765898E+02	1.2518022026E+02	0.000E+00	0.0
	-5	1	9	9	0	501	8.7518037878E+01	7.0261161995E+00	5.4543045733E+01	1.0344655384E+02	4.1800000000E+00	0.000E+00	0.0
	5	1	9	9	501	0	3.1136127050E+01	-6.5432258328E+01	-3.3356854195E+01	7.9881105146E+01	4.1800000000E+00	0.000E+00	0.0
</event>
<event>
    11  -1  1.0000000E+00  1.0000000E+00  -1.0000000E+00  -1.0000000E+00
	2212	-1	0	0	0	0	0.0000000000E+00	0.0000000000E+00	6.5000000000E+03	6.5000000000E+03	9.3827000000E-01	0.000E+00	0.0
	2212	-1	0	0	0	0	0.0000000000E+00	0.0000000000E+00	-6.5000000000E+03	6.5000000000E+03	9.3827000000E-01	0.000E+00	0.0
	2212	1	0	0	0	0	0.0000000000E+00	0.0000000000E+00	6.0273333601E+03	6.0273333601E+03	9.3827000000E-01	0.000E+00	0.0
	2212	1	0	0	0	0	0.0000000000E+00	0.0000000000E+00	-5.9136132356E+03	5.9136132356E+03	9.3827000000E-01	0.000E+00	0.0
	51	2	1	2	0	0	-1.3218550642E+02	-5.6693410091E+01	-1.3807315383E+02	1.0716404215E+03	1.0529301242E+03	0.000E+00	0.0
	1000022	2	5	5	0	0	1.3218550642E+02	5.6693410091E+01	-6.9704710810E+01	8.6335442374E+02	8.4843088312E+02	0.000E+00	0.0
	14	1	6	6	0	0	1.2372063265E+01	2.8930803460E+01	-3.0248572029E+02	4.4509849507E+02	3.2500000000E+02	0.000E+00	0.0
	-14	1	6	6	0	0	1.1981344316E+02	2.7762606631E+01	2.3278100948E+02	4.1825592866E+02	3.2500000000E+02	0.000E+00	0.0
	25	2	5	5	0	0	-1.3218550642E+02	-5.6693410091E+01	-4.4015413778E+01	1.9569898056E+02	1.2519418311E+02	0.000E+00	0.0
	-5	1	9	9	0	501	-8.9745990445E+01	-1.8823873468E+01	-8.5287123298E+01	1.2529982767E+02	4.1800000000E+00	0.000E+00	0.0
	5	1	9	9	501	0	-4.2439515979E+01	-3.7869536624E+01	4.1271709520E+01	7.0399152888E+01	4.1800000000E+00	0.000E+00	0.0
</event>
<event>
    11  -1  1.0000000E+00  1.0000000E+00  -1.0000000E+00  -1.0000000E+00
	2212	-1	0	0	0	0	0.0000000000E+00	0.0000000000E+00	6.5000000000E+03	6.5000000000E+03	9.3827000000E-01	0.000E+00	0.0
	2212	-1	0	0	0	0	0.0000000000E+00	0.0000000000E+00	-6.5000000000E+03	6.5000000000E+03	9.3827000000E-01	0.000E+00	0.0
	2212	1	0	0	0	0	0.0000000000E+00	0.0000000000E+00	5.8653092027E+03	5.8653092027E+03	9.3827000000E-01	0.000E+00	0.0
	2212	1	0	0	0	0	0.0000000000E+00	0.0000000000E+00	-6.0404217207E+03	6.0404217207E+03	9.3827000000E-01	0.000E+00	0.0
	51	2	1	2	0	0	-1.5101108823E+02	-2.0430948565E+01	1.0784676121E+02	1.0961811503E+03	1.0801668473E+03	0.000E+00	0.0
	1000022	2	5	5	0	0	1.5101108823E+02	2.0430948565E+01	2.1061849550E+02	8.9389178294E+02	8.5525469688E+02	0.000E+00	0.0
	14	1	6	6	0	0	-5.3563050777E+01	1.1561194942E+02	-1.2931782974E+02	3.7226767835E+02	3.2500000000E+02	0.000E+00	0.0
	-14	1	6	6	0	0	2.0457413900E+02	-9.5181000856E+01	3.3993632524E+02	5.2162410459E+02	3.2500000000E+02	0.000E+00	0.0
	25	2	5	5	0	0	-1.5101108823E+02	-2.0430948565E+01	-3.5505977484E+01	2.0037729361E+02	1.2517433016E+02	0.000E+00	0.0
	-5	1	9	9	0	501	2.2000515756E+01	-7.6829145911E+00	-4.1891988958E+00	2.4043120794E+01	4.1800000000E+00	0.000E+00	0.0
	5	1	9	9	501	0	-1.7301160398E+02	-1.2748033974E+01	-3.1316778589E+01	1.7633417282E+02	4.1800000000E+00	0.000E+00	0.0
</event>
<event>
    11  -1  1.0000000E+00  1.0000000E+00  -1.0000000E+00  -1.0000000E+00
	2212	-1	0	0	0	0	0.0000000000E+00	0.0000000000E+00	6.5000000000E+03	6.5000000000E+03	9.3827000000E-01	0.000E+00	0.0
	2212	-1	0	0	0	0	0.0000000000E+00	0.0000000000E+00	-6.5000000000E+03	6.5000000000E+03	9.3827000000E-01	0.000E+00	0.0
	2212	1	0	0	0	0	0.0000000000E+00	0.0000000000E+00	6.1784925043E+03	6.1784925043E+03	9.3827000000E-01	0.000E+00	0.0
	2212	1	0	0	0	0	0.0000000000E+00	0.0000000000E+00	-5.6358693118E+03	5.6358693118E+03	9.3827000000E-01	0.000E+00	0.0
	51	2	1	2	0	0	-8.9980946354E+01	-3.5540731890E+01	-4.3848487601E+02	1.1458301247E+03	1.0541811865E+03	0.000E+00	0.0
	1000022	2	5	5	0	0	8.9980946354E+01	3.5540731890E+01	-5.5587734441E+02	1.0268632531E+03	8.5795617854E+02	0.000E+00	0.0
	14	1	6	6	0	0	3.1368925473E+02	9.2181363754E+01	-2.4997753342E+02	5.2441597952E+02	3.2500000000E+02	0.000E+00	0.0
	-14	1	6	6	0	0	-2.2370830837E+02	-5.6640631864E+01	-3.0589981098E+02	5.0244727362E+02	3.2500000000E+02	0.000E+00	0.0
	25	2	5	5	0	0	-8.9980946354E+01	-3.5540731890E+01	1.3254151870E+01	1.5877493072E+02	1.2519621302E+02	0.000E+00	0.0
	-5	1	9	9	0	501	-7.6308203753E+01	-7.5001389028E+01	3.3473219333E+01	1.1218769598E+02	4.1800000000E+00	0.000E+00	0.0
	5	1	9	9	501	0	-1.3672742601E+01	3.9460657138E+01	-2.0219067463E+01	4.6587234744E+01	4.1800000000E+00	0.000E+00	0.0
</event>
<event>
    11  -1  1.0000000E+00  1.0000000E+00  -1.0000000E+00  -1.0000000E+00
	2212	-1	0	0	0	0	0.0000000000E+00	0.0000000000E+00	6.5000000000E+03	6.5000000000E+03	9.3827000000E-01	0.000E+00	0.0
	2212	-1	0	0	0	0	0.0000000000E+00	0.0000000000E+00	-6.5000000000E+03	6.5000000000E+03	9.3827000000E-01	0.000E+00	0.0
	2212	1	0	0	0	0	0.0000000000E+00	0.0000000000E+00	6.2208633774E+03	6.2208633774E+03	9.3827000000E-01	0.000E+00	0.0
	2212	1	0	0	0	0	0.0000000000E+00	0.0000000000E+00	-5.5221814524E+03	5.5221814524E+03	9.3827000000E-01	0.000E+00	0.0
	51	2	1	2	0	0	-9.6415327700E+01	9.4966881411E+01	-6.8182279597E+02	1.2549808033E+03	1.0448827052E+03	0.000E+00	0.0
	1000022	2	5	5	0	0	9.6415327700E+01	-9.4966881411E+01	-5.9757260469E+02	1.0466998415E+03	8.4863002326E+02	0.000E+00	0.0
	14	1	6	6	0	0	7.4736387389E+01	-1.9475752531E+02	-5.9097627706E+02	7.0597024110E+02	3.2500000000E+02	0.000E+00	0.0
	-14	1	6	6	0	0	2.1678940310E+01	9.9790643903E+01	-6.5963276321E+00	3.4072960042E+02	3.2500000000E+02	0.000E+00	0.0
	25	2	5	5	0	0	-9.6415327700E+01	9.4966881411E+01	-1.0110932026E+02	2.1025532866E+02	1.2517821138E+02	0.000E+00	0.0
	-5	1	9	9	0	501	-3.5975922530E+01	3.6096749940E+00	2.4243608386E+01	4.3732387347E+01	4.1800000000E+00	0.000E+00	0.0
	5	1	9	9	501	0	-6.0439405169E+01	9.1357206417E+01	-1.2535292865E+02	1.6652294131E+02	4.1800000000E+00	0.000E+00	0.0
</event>
<event>
    11  -1  1.0000000E+00  1.0000000E+00  -1.0000000E+00  -1.0000000E+00
	2212	-1	0	0	0	0	0.0000000000E+00	0.0000000000E+00	6.5000000000E+03	6.5000000000E+03	9.3827000000E-01	0.000E+00	0.0
	2212	-1	0	0	0	0	0.0000000000E+00	0.0000000000E+00	-6.5000000000E+03	6.5000000000E+03	9.3827000000E-01	0.000E+00	0.0
	2212	1	0	0	0	0	0.0000000000E+00	0.0000000000E+00	5.7070444574E+03	5.7070444574E+03	9.3827000000E-01	0.000E+00	0.0
	2212	1	0	0	0	0	0.0000000000E+00	0.0000000000E+00	-6.1499400559E+03	6.1499400559E+03	9.3827000000E-01	0.000E+00	0.0
	51	2	1	2	0	0	1.2769911550E+02	4.1149518577E+01	5.1353914518E+02	1.1798519790E+03	1.0537209744E+03	0.000E+00	0.0
	1000022	2	5	5	0	0	-1.2769911550E+02	-4.1149518577E+01	2.9526711432E+02	9.0749791466E+02	8.4756678164E+02	0.000E+00	0.0
	14	1	6	6	0	0	5.4783890106E+01	9.2780496429E+01	3.7036181157E+02	5.0438315456E+02	3.2500000000E+02	0.000E+00	0.0
	-14	1	6	6	0	0	-1.8248300561E+02	-1.3393001501E+02	-7.5094697254E+01	4.0311476010E+02	3.2500000000E+02	0.000E+00	0.0
	25	2	5	5	0	0	1.2769911550E+02	4.1149518577E+01	1.4762848416E+02	2.3551757211E+02	1.2519588835E+02	0.000E+00	0.0
	-5	1	9	9	0	501	1.0217154287E+02	7.3418328626E+01	6.1780109597E+01	1.4022670748E+02	4.1800000000E+00	0.000E+00	0.0
	5	1	9	9	501	0	2.5527572639E+01	-3.2268810049E+01	8.5848374562E+01	9.5290864629E+01	4.1800000000E+00	0.000E+00	0.0
</event>
<event>
    11  -1  1.0000000E+00  1.0000000E+00  -1.0000000E+00  -1.0000000E+00
	2212	-1	0	0	0	0	0.0000000000E+00	0.0000000000E+00	6.5000000000E+03	6.5000000000E+03	9.3827000000E-01	0.000E+00	0.0
	2212	-1	0	0	0	0	0.0000000000E+00	0.0000000000E+00	-6.5000000000E+03	6.5000000000E+03	9.3827000000E-01	0.000E+00	0.0
	2212	1	0	0	0	0	0.0000000000E+00	0.0000000000E+00	6.2454547926E+03	6.2454547926E+03	9.3827000000E-01	0.000E+00	0.0
	2212	1	0	0	0	0	0.0000000000E+00	0.0000000000E+00	-5.4165491096E+03	5.4165491096E+03	9.3827000000E-01	0.000E+00	0.0
	51	2	1	2	0	0	-5.7053072599E+01	1.0573022319E+02	-9.1406777591E+02	1.3975345285E+03	1.0503089671E+03	0.000E+00	0.0
	1000022	2	5	5	0	0	5.7053072599E+01	-1.0573022319E+02	-6.0527734504E+02	1.0549493724E+03	8.5564220371E+02	0.000E+00	0.0
	14	1	6	6	0	0	-4.8065710294E+01	1.2166346053E+02	-5.3369129858E+02	6.3840716813E+02	3.2500000000E+02	0.000E+00	0.0
	-14	1	6	6	0	0	1.0511878289E+02	-2.2739368372E+02	-7.1586046458E+01	4.1654220430E+02	3.2500000000E+02	0.000E+00	0.0
	25	2	5	5	0	0	-5.7053072599E+01	1.0573022319E+02	-2.2362833797E+02	2.8304672535E+02	1.2518738755E+02	0.000E+00	0.0
	-5	1	9	9	0	501	-6.7055046361E+01	1.2321277969E+02	-2.2170056831E+02	2.6238594229E+02	4.1800000000E+00	0.000E+00	0.0
	5	1	9	9	501	0	1.0001973762E+01	-1.7482556501E+01	-1.9277696562E+00	2.0660783063E+01	4.1800000000E+00	0.000E+00	0.0
</event>
<event>
    11  -1  1.0000000E+00  1.0000000E+00  -1.0000000E+00  -1.0000000E+00
	2212	-1	0	0	0	0	0.0000000000E+00	0.0000000000E+00	6.5000000000E+03	6.5000000000E+03	9.3827000000E-01	0.000E+00	0.0
	2212	-1	0	0	0	0	0.0000000000E+00	0.0000000000E+00	-6.5000000000E+03	6.5000000000E+03	9.3827000000E-01	0.000E+00	0.0
	2212	1	0	0	0	0	0.0000000000E+00	0.0000000000E+00	5.5677301371E+03	5.5677301371E+03	9.3827000000E-01	0.000E+00	0.0
	2212	1	0	0	0	0	0.0000000000E+00	0.0000000000E+00	-6.2095508382E+03	6.2095508382E+03	9.3827000000E-01	0.000E+00	0.0
	51	2	1	2	0	0	-8.8851695690E+01	-5.0973771322E+00	6.9684055327E+02	1.2556334516E+03	1.0407247480E+03	0.000E+00	0.0
	1000022	2	5	5	0	0	8.8851695690E+01	5.0973771322E+00	4.9108716265E+02	1.0074624813E+03	8.7515338243E+02	0.000E+00	0.0
	14	1	6	6	0	0	3.3218088333E+02	-4.1882410339E+01	2.1168921460E+02	5.1238227831E+02	3.2500000000E+02	0.000E+00	0.0
	-14	1	6	6	0	0	-2.4332918764E+02	4.6979787471E+01	2.7939794805E+02	4.9508020296E+02	3.2500000000E+02	0.000E+00	0.0
	25	2	5	5	0	0	-8.8851695690E+01	-5.0973771322E+00	1.5073353843E+02	2.1525654346E+02	1.2527638570E+02	0.000E+00	0.0
	-5	1	9	9	0	501	-1.0209969297E+02	-2.7790096578E+01	6.2203080296E+01	1.2281421893E+02	4.1800000000E+00	0.000E+00	0.0
	5	1	9	9	501	0	1.3247997279E+01	2.2692719445E+01	8.8530458130E+01	9.2442324530E+01	4.1800000000E+00	0.000E+00	0.0
</event>
<event>
    11  -1  1.0000000E+00  1.0000000E+00  -1.0000000E+00  -1.0000000E+00
	2212	-1	0	0	0	0	0.0000000000E+00	0.0000000000E+00	6.5000000000E+03	6.5000000000E+03	9.3827000000E-01	0.000E+00	0.0
	2212	-1	0	0	0	0	0.0000000000E+00	0.0000000000E+00	-6.5000000000E+03	6.5000000000E+03	9.3827000000E-01	0.000E+00	0.0
	2212	1	0	0	0	0	0.0000000000E+00	0.0000000000E+00	4.9642558015E+03	4.9642558015E+03	9.3827000000E-01	0.000E+00	0.0
	2212	1	0	0	0	0	0.0000000000E+00	0.0000000000E+00	-6.3153623781E+03	6.3153623781E+03	9.3827000000E-01	0.000E+00	0.0
	51	2	1	2	0	0	7.9237288331E+01	-2.9542353802E+01	1.5860488830E+03	1.9123093327E+03	1.0649998246E+03	0.000E+00	0.0
	1000022	2	5	5	0	0	-7.9237288331E+01	2.9542353802E+01	8.7342213493E+02	1.2193675461E+03	8.4666385784E+02	0.000E+00	0.0
	14	1	6	6	0	0	1.4334094751E+02	-1.8154065170E+02	4.7854065947E+02	6.2300064062E+02	3.2500000000E+02	0.000E+00	0.0
	-14	1	6	6	0	0	-2.2257823584E+02	2.1108300550E+02	3.9488147546E+02	5.9636690547E+02	3.2500000000E+02	0.000E+00	0.0
	25	2	5	5	0	0	7.9237288331E+01	-2.9542353802E+01	4.7768444169E+02	5.0101427424E+02	1.2522611001E+02	0.000E+00	0.0
	-5	1	9	9	0	501	1.3201432111E+01	4.6787607332E+01	1.8770823850E+02	1.9394641840E+02	4.1800000000E+00	0.000E+00	0.0
	5	1	9	9	501	0	6.6035856220E+01	-7.6329961133E+01	2.8997620319E+02	3.0706785584E+02	4.1800000000E+00	0.000E+00	0.0
</event>
<event>
    11  -1  1.0000000E+00  1.0000000E+00  -1.0000000E+00  -1.0000000E+00
	2212	-1	0	0	0	0	0.0000000000E+00	0.0000000000E+00	6.5000000000E+03	6.5000000000E+03	9.3827000000E-01	0.000E+00	0.0
	2212	-1	0	0	0	0	0.0000000000E+00	0.0000000000E+00	-6.5000000000E+03	6.5000000000E+03	9.3827000000E-01	0.000E+00	0.0
	2212	1	0	0	0	0	0.0000000000E+00	0.0000000000E+00	4.8890329844E+03	4.8890329844E+03	9.3827000000E-01	0.000E+00	0.0
	2212	1	0	0	0	0	0.0000000000E+00	0.0000000000E+00	-6.3282346409E+03	6.3282346409E+03	9.3827000000E-01	0.000E+00	0.0
	51	2	1	2	0	0	-3.2332476611E+01	4.6402314356E+00	1.2298439315E+03	1.6187700048E+03	1.0520614582E+03	0.000E+00	0.0
	1000022	2	5	5	0	0	3.2332476611E+01	-4.6402314356E+00	1.4089247067E+03	1.6498603914E+03	8.5784821576E+02	0.000E+00	0.0
	14	1	6	6	0	0	1.9842502136E+02	1.6628111600E+02	4.6556346985E+02	6.2401622022E+02	3.2500000000E+02	0.000E+00	0.0
	-14	1	6	6	0	0	-1.6609254474E+02	-1.7092134743E+02	9.4336123682E+02	1.0258441712E+03	3.2500000000E+02	0.000E+00	0.0
	25	2	5	5	0	0	-3.2332476611E+01	4.6402314356E+00	3.0276949822E+01	1.3287198332E+02	1.2518526059E+02	0.000E+00	0.0
	-5	1	9	9	0	501	-5.2697284630E+01	4.5603561563E+01	4.6804386839E+01	8.4052434004E+01	4.1800000000E+00	0.000E+00	0.0
	5	1	9	9	501	0	2.0364808019E+01	-4.0963330128E+01	-1.6527437017E+01	4.8819549313E+01	4.1800000000E+00	0.000E+00	0.0
</event>
<event>
    11  -1  1.0000000E+00  1.0000000E+00  -1.0000000E+00  -1.0000000E+00
	2212	-1	0	0	0	0	0.0000000000E+00	0.0000000000E+00	6.5000000000E+03	6.5000000000E+03	9.3827000000E-01	0.000E+00	0.0
	2212	-1	0	0	0	0	0.0000000000E+00	0.0000000000E+00	-6.5000000000E+03	6.5000000000E+03	9.3827000000E-01	0.000E+00	0.0
	2212	1	0	0	0	0	0.0000000000E+00	0.0000000000E+00	5.3284519498E+03	5.3284519498E+03	9.3827000000E-01	0.000E+00	0.0
	2212	1	0	0	0	0	0.0000000000E+00	0.0000000000E+00	-6.2676640472E+03	6.2676640472E+03	9.3827000000E-01	0.000E+00	0.0
	51	2	1	2	0	0	-5.5844954139E+01	1.2285107824E+02	8.7253108866E+02	1.3668549583E+03	1.0434418671E+03	0.000E+00	0.0
	1000022	2	5	5	0	0	5.5844954139E+01	-1.2285107824E+02	8.4179177881E+02	1.1956231619E+03	8.3826624648E+02	0.000E+00	0.0
	14	1	6	6	0	0	-8.5086195956E+01	1.3418713777E+01	7.2392928584E+02	7.9819692653E+02	3.2500000000E+02	0.000E+00	0.0
	-14	1	6	6	0	0	1.4093115010E+02	-1.3626979202E+02	1.1786249297E+02	3.9742623534E+02	3.2500000000E+02	0.000E+00	0.0
	25	2	5	5	0	0	-5.5844954139E+01	1.2285107824E+02	9.7420318510E+01	2.0826084113E+02	1.2518311851E+02	0.000E+00	0.0
	-5	1	9	9	0	501	-3.2160771975E+01	-1.4222630094E+01	-4.5915622564E+00	3.5709288774E+01	4.1800000000E+00	0.000E+00	0.0
	5	1	9	9	501	0	-2.3684182165E+01	1.3707370834E+02	1.0201188077E+02	1.7255155235E+02	4.1800000000E+00	0.000E+00	0.0
</event>
<event>
    11  -1  1.0000000E+00  1.0000000E+00  -1.0000000E+00  -1.0000000E+00
	2212	-1	0	0	0	0	0.0000000000E+00	0.0000000000E+00	6.5000000000E+03	6.5000000000E+03	9.3827000000E-01	0.000E+00	0.0
	2212	-1	0	0	0	0	0.0000000000E+00	0.0000000000E+00	-6.5000000000E+03	6.5000000000E+03	9.3827000000E-01	0.000E+00	0.0
	2212	1	0	0	0	0	0.0000000000E+00	0.0000000000E+00	6.2252211686E+03	6.2252211686E+03	9.3827000000E-01	0.000E+00	0.0
	2212	1	0	0	0	0	0.0000000000E+00	0.0000000000E+00	-5.4986472252E+03	5.4986472252E+03	9.3827000000E-01	0.000E+00	0.0
	51	2	1	2	0	0	4.0642421854E+01	-9.7392762536E+01	-6.3628664940E+02	1.2315031619E+03	1.0490958874E+03	0.000E+00	0.0
	1000022	2	5	5	0	0	-4.0642421854E+01	9.7392762536E+01	-6.9668968455E+02	1.1096945172E+03	8.5726789764E+02	0.000E+00	0.0
	14	1	6	6	0	0	-9.5760333841E+01	-1.9596991263E+02	-4.7615562488E+02	6.1637928851E+02	3.2500000000E+02	0.000E+00	0.0
	-14	1	6	6	0	0	5.5117911987E+01	2.9336267516E+02	-2.2053405967E+02	4.9331522871E+02	3.2500000000E+02	0.000E+00	0.0
	25	2	5	5	0	0	4.0642421854E+01	-9.7392762536E+01	-2.9884258840E+01	1.6643708893E+02	1.2518418029E+02	0.000E+00	0.0
	-5	1	9	9	0	501	9.1659193233E-01	-9.8943387597E+01	-6.0528027997E+01	1.1606786232E+02	4.1800000000E+00	0.000E+00	0.0
	5	1	9	9	501	0	3.9725829921E+01	1.5506250604E+00	3.0643769157E+01	5.0369226608E+01	4.1800000000E+00	0.000E+00	0.0
</event>
<event>
    11  -1  1.0000000E+00  1.0000000E+00  -1.0000000E+00  -1.0000000E+00
	2212	-1	0	0	0	0	0.0000000000E+00	0.0000000000E+00	6.5000000000E+03	6.5000000000E+03	9.3827000000E-01	0.000E+00	0.0
	2212	-1	0	0	0	0	0.0000000000E+00	0.0000000000E+00	-6.5000000000E+03	6.5000000000E+03	9.3827000000E-01	0.000E+00	0.0
	2212	1	0	0	0	0	0.0000000000E+00	0.0000000000E+00	6.0836956559E+03	6.0836956559E+03	9.3827000000E-01	0.000E+00	0.0
	2212	1	0	0	0	0	0.0000000000E+00	0.0000000000E+00	-5.8376049367E+03	5.8376049367E+03	9.3827000000E-01	0.000E+00	0.0
	51	2	1	2	0	0	7.4806390943E+01	-1.1877912086E+02	-2.1225706167E+02	1.0806430055E+03	1.0502531930E+03	0.000E+00	0.0
	1000022	2	5	5	0	0	-7.4806390943E+01	1.1877912086E+02	-2.3740513787E+02	8.9037950878E+02	8.4658726336E+02	0.000E+00	0.0
	14	1	6	6	0	0	-2.8859920340E+02	1.5480911594E+02	-1.8112104291E+02	4.9566641481E+02	3.2500000000E+02	0.000E+00	0.0
	-14	1	6	6	0	0	2.1379281246E+02	-3.6029995085E+01	-5.6284094965E+01	3.9471309397E+02	3.2500000000E+02	0.000E+00	0.0
	25	2	5	5	0	0	7.4806390943E+01	-1.1877912086E+02	-8.6855813718E+00	1.8831989864E+02	1.2523765098E+02	0.000E+00	0.0
	-5	1	9	9	0	501	1.9648744641E+01	-1.0801139881E+02	-4.7706988254E+01	1.1977464076E+02	4.1800000000E+00	0.000E+00	0.0
	5	1	9	9	501	0	5.5157646302E+01	-1.0767722045E+01	3.9021406883E+01	6.8545257886E+01	4.1800000000E+00	0.000E+00	0.0
</event>
<event>
    11  -1  1.0000000E+00  1.0000000E+00  -1.0000000E+00  -1.0000000E+00
	2212	-1	0	0	0	0	0.0000000000E+00	0.0000000000E+00	6.5000000000E+03	6.5000000000E+03	9.3827000000E-01	0.000E+00	0.0
	2212	-1	0	0	0	0	0.0000000000E+00	0.0000000000E+00	-6.5000000000E+03	6.5000000000E+03	9.3827000000E-01	0.000E+00	0.0
	2212	1	0	0	0	0	0.0000000000E+00	0.0000000000E+00	5.8652927579E+03	5.8652927579E+03	9.3827000000E-01	0.000E+00	0.0
	2212	1	0	0	0	0	0.0000000000E+00	0.0000000000E+00	-6.0664900463E+03	6.0664900463E+03	9.3827000000E-01	0.000E+00	0.0
	51	2	1	2	0	0	-6.7817640782E+01	1.2671661367E+02	2.1102714021E+02	1.0797205263E+03	1.0490984837E+03	0.000E+00	0.0
	1000022	2	5	5	0	0	6.7817640782E+01	-1.2671661367E+02	1.5666879905E+02	8.7248831374E+02	8.4618816609E+02	0.000E+00	0.0
	14	1	6	6	0	0	-1.0329694990E+02	-1.3191582120E+02	3.0518269548E+02	4.7627042881E+02	3.2500000000E+02	0.000E+00	0.0
	-14	1	6	6	0	0	1.7111459068E+02	5.1992075225E+00	-1.4851389643E+02	3.9621788493E+02	3.2500000000E+02	0.000E+00	0.0
	25	2	5	5	0	0	-6.7817640782E+01	1.2671661367E+02	4.4528489418E+01	1.9572888205E+02	1.2518257194E+02	0.000E+00	0.0
	-5	1	9	9	0	501	-1.5132971793E+01	-1.7054177156E+01	-1.8929568432E+01	2.9927458208E+01	4.1800000000E+00	0.000E+00	0.0
	5	1	9	9	501	0	-5.2684668989E+01	1.4377079083E+02	6.3458057851E+01	1.6580142384E+02	4.1800000000E+00	0.000E+00	0.0
</event>
<event>
    11  -1  1.0000000E+00  1.0000000E+00  -1.0000000E+00  -1.0000000E+00
	2212	-1	0	0	0	0	0.0000000000E+00	0.0000000000E+00	6.5000000000E+03	6.5000000000E+03	9.3827000000E-01	0.000E+00	0.0
	2212	-1	0	0	0	0	0.0000000000E+00	0.0000000000E+00	-6.5000000000E+03	6.5000000000E+03	9.3827000000E-01	0.000E+00	0.0
	2212	1	0	0	0	0	0.0000000000E+00	0.0000000000E+00	5.7947563692E+03	5.7947563692E+03	9.3827000000E-01	0.000E+00	0.0
	2212	1	0	0	0	0	0.0000000000E+00	0.0000000000E+00	-6.1135586840E+03	6.1135586840E+03	9.3827000000E-01	0.000E+00	0.0
	51	2	1	2	0	0	-1.1561868582E+02	-4.8225077272E+01	2.6057078994E+02	1.0833889340E+03	1.0440982268E+03	0.000E+00	0.0
	1000022	2	5	5	0	0	1.1561868582E+02	4.8225077272E+01	3.2288119712E+02	9.1454433645E+02	8.4643117694E+02	0.000E+00	0.0
	14	1	6	6	0	0	1.9949223644E+02	-1.9088997659E+02	7.3174660560E+01	4.3268425730E+02	3.2500000000E+02	0.000E+00	0.0
	-14	1	6	6	0	0	-8.3873550622E+01	2.3911505387E+02	2.4970653656E+02	4.8186007915E+02	3.2500000000E+02	0.000E+00	0.0
	25	2	5	5	0	0	-1.1561868582E+02	-4.8225077272E+01	-4.0788823081E+00	1.7714061034E+02	1.2517515712E+02	0.000E+00	0.0
	-5	1	9	9	0	501	-1.0642760408E+02	1.9217962176E+01	4.9958771891E+00	1.0834480223E+02	4.1800000000E+00	0.000E+00	0.0
	5	1	9	9	501	0	-9.1910817391E+00	-6.7443039449E+01	-9.0747594973E+00	6.8795808110E+01	4.1800000000E+00	0.000E+00	0.0
</event>
<event>
    11  -1  1.0000000E+00  1.0000000E+00  -1.0000000E+00  -1.0000000E+00
	2212	-1	0	0	0	0	0.0000000000E+00	0.0000000000E+00	6.5000000000E+03	6.5000000000E+03	9.3827000000E-01	0.000E+00	0.0
	2212	-1	0	0	0	0	0.0000000000E+00	0.0000000000E+00	-6.5000000000E+03	6.5000000000E+03	9.3827000000E-01	0.000E+00	0.0
	2212	1	0	0	0	0	0.0000000000E+00	0.0000000000E+00	5.2397813759E+03	5.2397813759E+03	9.3827000000E-01	0.000E+00	0.0
	2212	1	0	0	0	0	0.0000000000E+00	0.0000000000E+00	-6.2806501252E+03	6.2806501252E+03	9.3827000000E-01	0.000E+00	0.0
	51	2	1	2	0	0	1.2811457805E+02	4.3448941207E+01	1.0910161588E+03	1.5212930697E+03	1.0515299280E+03	0.000E+00	0.0
	1000022	2	5	5	0	0	-1.2811457805E+02	-4.3448941207E+01	8.1496802661E+02	1.1880150557E+03	8.5375976284E+02	0.000E+00	0.0
	14	1	6	6	0	0	-3.2944131538E+02	-7.8255661156E+01	3.5246823538E+02	5.8695347834E+02	3.2500000000E+02	0.000E+00	0.0
	-14	1	6	6	0	0	2.0132673734E+02	3.4806719948E+01	4.6249979123E+02	6.0106157739E+02	3.2500000000E+02	0.000E+00	0.0
	25	2	5	5	0	0	1.2811457805E+02	4.3448941207E+01	2.2590072276E+02	2.9155344317E+02	1.2518433641E+02	0.000E+00	0.0
	-5	1	9	9	0	501	5.4281535139E+01	6.0622853458E+01	1.9167733371E+02	2.0827695042E+02	4.1800000000E+00	0.000E+00	0.0
	5	1	9	9	501	0	7.3833042908E+01	-1.7173912251E+01	3.4223389054E+01	8.3276492754E+01	4.1800000000E+00	0.000E+00	0.0
</event>
<event>
    11  -1  1.0000000E+00  1.0000000E+00  -1.0000000E+00  -1.0000000E+00
	2212	-1	0	0	0	0	0.0000000000E+00	0.0000000000E+00	6.5000000000E+03	6.5000000000E+03	9.3827000000E-01	0.000E+00	0.0
	2212	-1	0	0	0	0	0.0000000000E+00	0.0000000000E+00	-6.5000000000E+03	6.5000000000E+03	9.3827000000E-01	0.000E+00	0.0
	2212	1	0	0	0	0	0.0000000000E+00	0.0000000000E+00	5.7972851576E+03	5.7972851576E+03	9.3827000000E-01	0.000E+00	0.0
	2212	1	0	0	0	0	0.0000000000E+00	0.0000000000E+00	-6.1101486510E+03	6.1101486510E+03	9.3827000000E-01	0.000E+00	0.0
	51	2	1	2	0	0	7.9261302439E+01	-1.1278089767E+02	3.1827223142E+02	1.1027766843E+03	1.0468129332E+03	0.000E+00	0.0
	1000022	2	5	5	0	0	-7.9261302439E+01	1.1278089767E+02	2.5449863780E+02	8.9742500259E+02	8.4947053727E+02	0.000E+00	0.0
	14	1	6	6	0	0	1.7158441861E+02	9.2848977150E+01	3.0064489443E+02	4.8381246141E+02	3.2500000000E+02	0.000E+00	0.0
	-14	1	6	6	0	0	-2.5084572105E+02	1.9931920521E+01	-4.6146256632E+01	4.1361254118E+02	3.2500000000E+02	0.000E+00	0.0
	25	2	5	5	0	0	7.9261302439E+01	-1.1278089767E+02	5.8364855543E+01	1.9514118883E+02	1.2518682946E+02	0.000E+00	0.0
	-5	1	9	9	0	501	9.1118184445E+01	-1.1881547366E+02	7.9683849772E+01	1.6966622714E+02	4.1800000000E+00	0.000E+00	0.0
	5	1	9	9	501	0	-1.1856882006E+01	6.0345759844E+00	-2.1318994229E+01	2.5474961691E+01	4.1800000000E+00	0.000E+00	0.0
</event>
<event>
    11  -1  1.0000000E+00  1.0000000E+00  -1.0000000E+00  -1.0000000E+00
	2212	-1	0	0	0	0	0.0000000000E+00	0.0000000000E+00	6.5000000000E+03	6.5000000000E+03	9.3827000000E-01	0.000E+00	0.0
	2212	-1	0	0	0	0	0.0000000000E+00	0.0000000000E+00	-6.5000000000E+03	6.5000000000E+03	9.3827000000E-01	0.000E+00	0.0
	2212	1	0	0	0	0	0.0000000000E+00	0.0000000000E+00	5.3534405748E+03	5.3534405748E+03	9.3827000000E-01	0.000E+00	0.0
	2212	1	0	0	0	0	0.0000000000E+00	0.0000000000E+00	-6.2610976992E+03	6.2610976992E+03	9.3827000000E-01	0.000E+00	0.0
	51	2	1	2	0	0	3.3437011809E+01	-6.6224475236E+01	1.0633483968E+03	1.4939465408E+03	1.0467390978E+03	0.000E+00	0.0
	1000022	2	5	5	0	0	-3.3437011809E+01	6.6224475236E+01	6.0020284474E+02	1.0453235345E+03	8.5261604611E+02	0.000E+00	0.0
	14	1	6	6	0	0	-2.6520575572E+02	-5.4823963054E+01	4.0168995237E+02	5.8336916068E+02	3.2500000000E+02	0.000E+00	0.0
	-14	1	6	6	0	0	2.3176874392E+02	1.2104843829E+02	1.9851289237E+02	4.6195437384E+02	3.2500000000E+02	0.000E+00	0.0
	25	2	5	5	0	0	3.3437011809E+01	-6.6224475236E+01	3.0745427959E+02	3.4013819152E+02	1.2514847347E+02	0.000E+00	0.0
	-5	1	9	9	0	501	5.8244939341E+01	-8.1395566532E+01	1.5274452978E+02	1.8266383054E+02	4.1800000000E+00	0.000E+00	0.0
	5	1	9	9	501	0	-2.4807927532E+01	1.5171091296E+01	1.5470974981E+02	1.5747436098E+02	4.1800000000E+00	0.000E+00	0.0
</event>
<event>
    11  -1  1.0000000E+00  1.0000000E+00  -1.0000000E+00  -1.0000000E+00
	2212	-1	0	0	0	0	0.0000000000E+00	0.0000000000E+00	6.5000000000E+03	6.5000000000E+03	9.3827000000E-01	0.000E+00	0.0
	2212	-1	0	0	0	0	0.0000000000E+00	0.0000000000E+00	-6.5000000000E+03	6.5000000000E+03	9.3827000000E-01	0.000E+00	0.0
	2212	1	0	0	0	0	0.0000000000E+00	0.0000000000E+00	6.2886836289E+03	6.2886836289E+03	9.3827000000E-01	0.000E+00	0.0
	2212	1	0	0	0	0	0.0000000000E+00	0.0000000000E+00	-5.1927530679E+03	5.1927530679E+03	9.3827000000E-01	0.000E+00	0.0
	51	2	1	2	0	0	-3.8358266836E+01	-4.6301587622E+01	-9.4884437299E+02	1.4173537135E+03	1.0511758708E+03	0.000E+00	0.0
	1000022	2	5	5	0	0	3.8358266836E+01	4.6301587622E+01	-1.0677273016E+03	1.3768851301E+03	8.6726920690E+02	0.000E+00	0.0
	14	1	6	6	0	0	-1.4413946645E+02	-1.8151136653E+02	-7.0024008959E+02	8.0602961796E+02	3.2500000000E+02	0.000E+00	0.0
	-14	1	6	6	0	0	1.8249773328E+02	2.2781295416E+02	-3.6748721203E+02	5.7085551214E+02	3.2500000000E+02	0.000E+00	0.0
	25	2	5	5	0	0	-3.8358266836E+01	-4.6301587622E+01	-2.8203259338E+01	1.4167817309E+02	1.2514826104E+02	0.000E+00	0.0
	-5	1	9	9	0	501	-2.3000063394E+01	-6.3120408048E+01	3.3923997502E+01	7.5375717807E+01	4.1800000000E+00	0.000E+00	0.0
	5	1	9	9	501	0	-1.5358203442E+01	1.6818820426E+01	-6.2127256840E+01	6.6302455279E+01	4.1800000000E+00	0.000E+00	0.0
</event>
<event>
    11  -1  1.0000000E+00  1.0000000E+00  -1.0000000E+00  -1.0000000E+00
	2212	-1	0	0	0	0	0.0000000000E+00	0.0000000000E+00	6.5000000000E+03	6.5000000000E+03	9.3827000000E-01	0.000E+00	0.0
	2212	-1	0	0	0	0	0.0000000000E+00	0.0000000000E+00	-6.5000000000E+03	6.5000000000E+03	9.3827000000E-01	0.000E+00	0.0
	2212	1	0	0	0	0	0.0000000000E+00	0.0000000000E+00	5.7258338966E+03	5.7258338966E+03	9.3827000000E-01	0.000E+00	0.0
	2212	1	0	0	0	0	0.0000000000E+00	0.0000000000E+00	-6.1393972191E+03	6.1393972191E+03	9.3827000000E-01	0.000E+00	0.0
	51	2	1	2	0	0	-1.3603257818E+02	5.5985793911E+01	3.6576947380E+02	1.1278707277E+03	1.0567240883E+03	0.000E+00	0.0
	1000022	2	5	5	0	0	1.3603257818E+02	-5.5985793911E+01	3.8782657275E+02	9.3990776806E+02	8.4343220859E+02	0.000E+00	0.0
	14	1	6	6	0	0	-2.3530235309E+01	-1.3209413233E+02	4.4329010124E+02	5.6580353978E+02	3.2500000000E+02	0.000E+00	0.0
	-14	1	6	6	0	0	1.5956281349E+02	7.6108338416E+01	-5.5463528497E+01	3.7410422828E+02	3.2500000000E+02	0.000E+00	0.0
	25	2	5	5	0	0	-1.3603257818E+02	5.5985793911E+01	2.5736749764E+01	1.9486111617E+02	1.2517668656E+02	0.000E+00	0.0
	-5	1	9	9	0	501	-1.2812602881E+02	6.1414937562E+01	6.3493015037E+01	1.5568207724E+02	4.1800000000E+00	0.000E+00	0.0
	5	1	9	9	501	0	-7.9065493700E+00	-5.4291436502E+00	-3.7756265273E+01	3.9179038925E+01	4.1800000000E+00	0.000E+00	0.0
</event>
<event>
    11  -1  1.0000000E+00  1.0000000E+00  -1.0000000E+00  -1.0000000E+00
	2212	-1	0	0	0	0	0.0000000000E+00	0.0000000000E+00	6.5000000000E+03	6.5000000000E+03	9.3827000000E-01	0.000E+00	0.0
	2212	-1	0	0	0	0	0.0000000000E+00	0.0000000000E+00	-6.5000000000E+03	6.5000000000E+03	9.3827000000E-01	0.000E+00	0.0
	2212	1	0	0	0	0	0.0000000000E+00	0.0000000000E+00	6.2900259300E+03	6.2900259300E+03	9.3827000000E-01	0.000E+00	0.0
	2212	1	0	0	0	0	0.0000000000E+00	0.0000000000E+00	-5.1966530663E+03	5.1966530663E+03	9.3827000000E-01	0.000E+00	0.0
	51	2	1	2	0	0	7.8889565689E+01	-6.4581790104E+01	-9.7982555057E+02	1.4370555736E+03	1.0462677673E+03	0.000E+00	0.0
	1000022	2	5	5	0	0	-7.8889565689E+01	6.4581790104E+01	-1.0252023325E+03	1.3380734872E+03	8.5381875315E+02	0.000E+00	0.0
	14	1	6	6	0	0	1.4354425687E+02	-1.6753684264E+02	-5.7579707860E+02	6.9702282821E+02	3.2500000000E+02	0.000E+00	0.0
	-14	1	6	6	0	0	-2.2243382256E+02	2.3211863274E+02	-4.4940525392E+02	6.4105065895E+02	3.2500000000E+02	0.000E+00	0.0
	25	2	5	5	0	0	7.8889565689E+01	-6.4581790104E+01	-6.8170531192E+01	1.7524751649E+02	1.2518026811E+02	0.000E+00	0.0
	-5	1	9	9	0	501	-2.4606813324E+01	-2.9804991879E+00	1.4579135749E+01	2.9058600045E+01	4.1800000000E+00	0.000E+00	0.0
	5	1	9	9	501	0	1.0349637901E+02	-6.1601290916E+01	-8.2749666941E+01	1.4618891644E+02	4.1800000000E+00	0.000E+00	0.0
</event>
<event>
    11  -1  1.0000000E+00  1.0000000E+00  -1.0000000E+00  -1.0000000E+00
	2212	-1	0	0	0	0	0.0000000000E+00	0.0000000000E+00	6.5000000000E+03	6.5000000000E+03	9.3827000000E-01	0.000E+00	0.0
	2212	-1	0	0	0	0	0.0000000000E+00	0.0000000000E+00	-6.5000000000E+03	6.5000000000E+03	9.3827000000E-01	0.000E+00	0.0
	2212	1	0	0	0	0	0.0000000000E+00	0.0000000000E+00	5.4106465186E+03	5.4106465186E+03	9.3827000000E-01	0.000E+00	0.0
	2212	1	0	0	0	0	0.0000000000E+00	0.0000000000E+00	-6.2447679981E+03	6.2447679981E+03	9.3827000000E-01	0.000E+00	0.0
	51	2	1	2	0	0	4.4685775861E+01	-1.3923051473E+02	8.7361376637E+02	1.3772198253E+03	1.0545859280E+03	0.000E+00	0.0
	1000022	2	5	5	0	0	-4.4685775861E+01	1.3923051473E+02	6.4936942702E+02	1.0777955936E+03	8.4769141435E+02	0.000E+00	0.0
	14	1	6	6	0	0	-1.9173358495E+01	-7.0921114512E+01	1.4123712468E+01	3.3349947738E+02	3.2500000000E+02	0.000E+00	0.0
	-14	1	6	6	0	0	-2.5512417366E+01	2.1015162925E+02	6.3524571455E+02	7.4429611619E+02	3.2500000000E+02	0.000E+00	0.0
	25	2	5	5	0	0	4.4685775861E+01	-1.3923051473E+02	1.8475205240E+02	2.6678988973E+02	1.2514619291E+02	0.000E+00	0.0
	-5	1	9	9	0	501	-2.1371760711E+00	1.8837284453E+01	3.6634882973E-01	1.9416936385E+01	4.1800000000E+00	0.000E+00	0.0
	5	1	9	9	501	0	4.6822951932E+01	-1.5806779919E+02	1.8438570357E+02	2.4737295335E+02	4.1800000000E+00	0.000E+00	0.0
</event>
<event>
    11  -1  1.0000000E+00  1.0000000E+00  -1.0000000E+00  -1.0000000E+00
	2212	-1	0	0	0	0	0.0000000000E+00	0.0000000000E+00	6.5000000000E+03	6.5000000000E+03	9.3827000000E-01	0.000E+00	0.0
	2212	-1	0	0	0	0	0.0000000000E+00	0.0000000000E+00	-6.5000000000E+03	6.5000000000E+03	9.3827000000E-01	0.000E+00	0.0
	2212	1	0	0	0	0	0.0000000000E+00	0.0000000000E+00	5.0415880347E+03	5.0415880347E+03	9.3827000000E-01	0.000E+00	0.0
	2212	1	0	0	0	0	0.0000000000E+00	0.0000000000E+00	-6.3089364686E+03	6.3089364686E+03	9.3827000000E-01	0.000E+00	0.0
	51	2	1	2	0	0	-6.6459110684E+01	1.1095634111E+02	1.2481121203E+03	1.6398504046E+03	1.0557449320E+03	0.000E+00	0.0
	1000022	2	5	5	0	0	6.6459110684E+01	-1.1095634111E+02	1.0790435416E+03	1.3889821870E+03	8.6499042083E+02	0.000E+00	0.0
	14	1	6	6	0	0	2.6268357595E+00	-2.9468903806E+02	8.2040104284E+02	9.3033940071E+02	3.2500000000E+02	0.000E+00	0.0
	-14	1	6	6	0	0	6.3832274924E+01	1.8373269694E+02	2.5864249872E+02	4.5864278626E+02	3.2500000000E+02	0.000E+00	0.0
	25	2	5	5	0	0	-6.6459110684E+01	1.1095634111E+02	1.8830489228E+02	2.6049330969E+02	1.2517950676E+02	0.000E+00	0.0
	-5	1	9	9	0	501	-6.2867995926E+01	-3.9418101445E+00	4.9521365337E+01	8.0235657932E+01	4.1800000000E+00	0.000E+00	0.0
	5	1	9	9	501	0	-3.5911147579E+00	1.1489815126E+02	1.3878352694E+02	1.8025765176E+02	4.1800000000E+00	0.000E+00	0.0
</event>
<event>
    11  -1  1.0000000E+00  1.0000000E+00  -1.0000000E+00  -1.0000000E+00
	2212	-1	0	0	0	0	0.0000000000E+00	0.0000000000E+00	6.5000000000E+03	6.5000000000E+03	9.3827000000E-01	0.000E+00	0.0
	2212	-1	0	0	0	0	0.0000000000E+00	0.0000000000E+00	-6.5000000000E+03	6.5000000000E+03	9.3827000000E-01	0.000E+00	0.0
	2212	1	0	0	0	0	0.0000000000E+00	0.0000000000E+00	5.0341077868E+03	5.0341077868E+03	9.3827000000E-01	0.000E+00	0.0
	2212	1	0	0	0	0	0.0000000000E+00	0.0000000000E+00	-6.3109679548E+03	6.3109679548E+03	9.3827000000E-01	0.000E+00	0.0
	51	2	1	2	0	0	-1.0849156244E+02	5.2678648497E+01	1.4169095015E+03	1.7693446264E+03	1.0528069208E+03	0.000E+00	0.0
	1000022	2	5	5	0	0	1.0849156244E+02	-5.2678648497E+01	9.1617112418E+02	1.2545352166E+03	8.4849491557E+02	0.000E+00	0.0
	14	1	6	6	0	0	-1.1580565414E+02	-8.3492704676E+01	7.4060933301E+02	8.2128506951E+02	3.2500000000E+02	0.000E+00	0.0
	-14	1	6	6	0	0	2.2429721657E+02	3.0814056179E+01	1.7556179118E+02	4.3325014708E+02	3.2500000000E+02	0.000E+00	0.0
	25	2	5	5	0	0	-1.0849156244E+02	5.2678648497E+01	3.6068904379E+02	4.0038904184E+02	1.2517723192E+02	0.000E+00	0.0
	-5	1	9	9	0	501	-5.5233679428E+01	7.7179647447E+00	3.0768434787E+02	3.1272584902E+02	4.1800000000E+00	0.000E+00	0.0
	5	1	9	9	501	0	-5.3257883008E+01	4.4960683752E+01	5.3004695919E+01	8.7663192820E+01	4.1800000000E+00	0.000E+00	0.0
</event>
<event>
    11  -1  1.0000000E+00  1.0000000E+00  -1.0000000E+00  -1.0000000E+00
	2212	-1	0	0	0	0	0.0000000000E+00	0.0000000000E+00	6.5000000000E+03	6.5000000000E+03	9.3827000000E-01	0.000E+00	0.0
	2212	-1	0	0	0	0	0.0000000000E+00	0.0000000000E+00	-6.5000000000E+03	6.5000000000E+03	9.3827000000E-01	0.000E+00	0.0
	2212	1	0	0	0	0	0.0000000000E+00	0.0000000000E+00	6.2018274821E+03	6.2018274821E+03	9.3827000000E-01	0.000E+00	0.0
	2212	1	0	0	0	0	0.0000000000E+00	0.0000000000E+00	-5.5754999747E+03	5.5754999747E+03	9.3827000000E-01	0.000E+00	0.0
	51	2	1	2	0	0	9.4792893919E+01	-3.2224178989E+01	-6.3721761595E+02	1.2323604919E+03	1.0500676176E+03	0.000E+00	0.0
	1000022	2	5	5	0	0	-9.4792893919E+01	3.2224178989E+01	-5.2256385646E+02	1.0316833919E+03	8.8389679640E+02	0.000E+00	0.0
	14	1	6	6	0	0	2.3355045659E+02	1.1275585002E+02	-2.9916613595E+02	5.1223537011E+02	3.2500000000E+02	0.000E+00	0.0
	-14	1	6	6	0	0	-3.2834335051E+02	-8.0531671032E+01	-2.2339772051E+02	5.1944802184E+02	3.2500000000E+02	0.000E+00	0.0
	25	2	5	5	0	0	9.4792893919E+01	-3.2224178989E+01	-1.0376365097E+02	1.9098915130E+02	1.2524324414E+02	0.000E+00	0.0
	-5	1	9	9	0	501	7.9116380913E+00	-9.1531223719E+00	-1.0011059083E+02	1.0092559865E+02	4.1800000000E+00	0.000E+00	0.0
	5	1	9	9	501	0	8.6881255827E+01	-2.3071056618E+01	-3.6530601442E+00	9.0063552650E+01	4.1800000000E+00	0.000E+00	0.0
</event>
<event>
    11  -1  1.0000000E+00  1.0000000E+00  -1.0000000E+00  -1.0000000E+00
	2212	-1	0	0	0	0	0.0000000000E+00	0.0000000000E+00	6.5000000000E+03	6.5000000000E+03	9.3827000000E-01	0.000E+00	0.0
	2212	-1	0	0	0	0	0.0000000000E+00	0.0000000000E+00	-6.5000000000E+03	6.5000000000E+03	9.3827000000E-01	0.000E+00	0.0
	2212	1	0	0	0	0	0.0000000000E+00	0.0000000000E+00	5.5992806639E+03	5.5992806639E+03	9.3827000000E-01	0.000E+00	0.0
	2212	1	0	0	0	0	0.0000000000E+00	0.0000000000E+00	-6.1942353084E+03	6.1942353084E+03	9.3827000000E-01	0.000E+00	0.0
	51	2	1	2	0	0	5.7157461167E+01	1.2954663340E+02	5.5781586911E+02	1.1970131701E+03	1.0495869092E+03	0.000E+00	0.0
	1000022	2	5	5	0	0	-5.7157461167E+01	-1.2954663340E+02	5.2866490392E+02	1.0062164559E+03	8.4435517999E+02	0.000E+00	0.0
	14	1	6	6	0	0	1.8354652660E+02	-1.0801185847E+02	4.4840766842E+02	5.9333828976E+02	3.2500000000E+02	0.000E+00	0.0
	-14	1	6	6	0	0	-2.4070398777E+02	-2.1534774926E+01	8.0257235498E+01	4.1287816618E+02	3.2500000000E+02	0.000E+00	0.0
	25	2	5	5	0	0	5.7157461167E+01	1.2954663340E+02	6.6289740646E+01	2.0026757176E+02	1.2515376540E+02	0.000E+00	0.0
	-5	1	9	9	0	501	4.8931307032E+00	8.7636472565E+01	-2.0811597599E+01	9.0303316918E+01	4.1800000000E+00	0.000E+00	0.0
	5	1	9	9	501	0	5.2264330464E+01	4.1910160832E+01	8.7101338245E+01	1.0996425485E+02	4.1800000000E+00	0.000E+00	0.0
</event>
<event>
    11  -1  1.0000000E+00  1.0000000E+00  -1.0000000E+00  -1.0000000E+00
	2212	-1	0	0	0	0	0.0000000000E+00	0.0000000000E+00	6.5000000000E+03	6.5000000000E+03	9.3827000000E-01	0.000E+00	0.0
	2212	-1	0	0	0	0	0.0000000000E+00	0.0000000000E+00	-6.5000000000E+03	6.5000000000E+03	9.3827000000E-01	0.000E+00	0.0
	2212	1	0	0	0	0	0.0000000000E+00	0.0000000000E+00	6.2388713099E+03	6.2388713099E+03	9.3827000000E-01	0.000E+00	0.0
	2212	1	0	0	0	0	0.0000000000E+00	0.0000000000E+00	-5.4616137219E+03	5.4616137219E+03	9.3827000000E-01	0.000E+00	0.0
	51	2	1	2	0	0	-7.6573247438E+01	3.6645038065E+01	-9.2079173535E+02	1.3927216289E+03	1.0414460114E+03	0.000E+00	0.0
	1000022	2	5	5	0	0	7.6573247438E+01	-3.6645038065E+01	-5.0119973169E+02	9.8473884844E+02	8.4338787490E+02	0.000E+00	0.0
	14	1	6	6	0	0	8.6390960005E+01	2.2937554505E+01	-5.5548146558E+02	6.4974932703E+02	3.2500000000E+02	0.000E+00	0.0
	-14	1	6	6	0	0	-9.8177125667E+00	-5.9582592571E+01	5.4281733884E+01	3.3498952140E+02	3.2500000000E+02	0.000E+00	0.0
	25	2	5	5	0	0	-7.6573247438E+01	3.6645038065E+01	-2.7605785630E+02	3.1477611981E+02	1.2517885022E+02	0.000E+00	0.0
	-5	1	9	9	0	501	1.6862753001E+00	-1.0642959901E+01	9.4658373848E+00	1.4939564828E+01	4.1800000000E+00	0.000E+00	0.0
	5	1	9	9	501	0	-7.8259522738E+01	4.7287997967E+01	-2.8552369368E+02	2.9983655499E+02	4.1800000000E+00	0.000E+00	0.0
</event>
<event>
    11  -1  1.0000000E+00  1.0000000E+00  -1.0000000E+00  -1.0000000E+00
	2212	-1	0	0	0	0	0.0000000000E+00	0.0000000000E+00	6.5000000000E+03	6.5000000000E+03	9.3827000000E-01	0.000E+00	0.0
	2212	-1	0	0	0	0	0.0000000000E+00	0.0000000000E+00	-6.5000000000E+03	6.5000000000E+03	9.3827000000E-01	0.000E+00	0.0
	2212	1	0	0	0	0	0.0000000000E+00	0.0000000000E+00	4.9969946172E+03	4.9969946172E+03	9.3827000000E-01	0.000E+00	0.0
	2212	1	0	0	0	0	0.0000000000E+00	0.0000000000E+00	-6.3170632418E+03	6.3170632418E+03	9.3827000000E-01	0.000E+00	0.0
	51	2	1	2	0	0	-9.5300353288E+01	-6.3511883015E+01	1.1950848977E+03	1.5941027440E+03	1.0487229038E+03	0.000E+00	0.0
	1000022	2	5	5	0	0	9.5300353288E+01	6.3511883015E+01	1.2181814035E+03	1.4880304715E+03	8.4684876795E+02	0.000E+00	0.0
	14	1	6	6	0	0	2.4698836215E+02	-8.5076105312E+01	8.7748118009E+02	9.7151398145E+02	3.2500000000E+02	0.000E+00	0.0
	-14	1	6	6	0	0	-1.5168800887E+02	1.4858798833E+02	3.4070022342E+02	5.1651649010E+02	3.2500000000E+02	0.000E+00	0.0
	25	2	5	5	0	0	-9.5300353288E+01	-6.3511883015E+01	1.0188722106E+02	1.9791166940E+02	1.2518828399E+02	0.000E+00	0.0
	-5	1	9	9	0	501	-3.2666521357E+01	3.8015819670E+01	2.9383757105E+01	5.8251023548E+01	4.1800000000E+00	0.000E+00	0.0
	5	1	9	9	501	0	-6.2633831931E+01	-1.0152770269E+02	7.2503463953E+01	1.3966064585E+02	4.1800000000E+00	0.000E+00	0.0
</event>
<event>
    11  -1  1.0000000E+00  1.0000000E+00  -1.0000000E+00  -1.0000000E+00
	2212	-1	0	0	0	0	0.0000000000E+00	0.0000000000E+00	6.5000000000E+03	6.5000000000E+03	9.3827000000E-01	0.000E+00	0.0
	2212	-1	0	0	0	0	0.0000000000E+00	0.0000000000E+00	-6.5000000000E+03	6.5000000000E+03	9.3827000000E-01	0.000E+00	0.0
	2212	1	0	0	0	0	0.0000000000E+00	0.0000000000E+00	6.0423393947E+03	6.0423393947E+03	9.3827000000E-01	0.000E+00	0.0
	2212	1	0	0	0	0	0.0000000000E+00	0.0000000000E+00	-5.8936325267E+03	5.8936325267E+03	9.3827000000E-01	0.000E+00	0.0
	51	2	1	2	0	0	-8.7774092262E+01	-1.0287762998E+02	-1.2411366831E+02	1.0694551511E+03	1.0535853167E+03	0.000E+00	0.0
	1000022	2	5	5	0	0	8.7774092262E+01	1.0287762998E+02	-1.4830399958E+02	8.7974902177E+02	8.5654898692E+02	0.000E+00	0.0
	14	1	6	6	0	0	-2.0270971078E+02	-2.3938532107E+01	-1.8156138664E+02	4.2456308988E+02	3.2500000000E+02	0.000E+00	0.0
	-14	1	6	6	0	0	2.9048380305E+02	1.2681616209E+02	3.3257387058E+01	4.5518593189E+02	3.2500000000E+02	0.000E+00	0.0
	25	2	5	5	0	0	-8.7774092262E+01	-1.0287762998E+02	-4.0286847423E-01	1.8427905687E+02	1.2518190953E+02	0.000E+00	0.0
	-5	1	9	9	0	501	-1.1280350116E+01	-1.0685768248E+02	-1.9985801991E+00	1.0755127766E+02	4.1800000000E+00	0.000E+00	0.0
	5	1	9	9	501	0	-7.6493742147E+01	3.9800525011E+00	1.5957117249E+00	7.6727779203E+01	4.1800000000E+00	0.000E+00	0.0
</event>
<event>
    11  -1  1.0000000E+00  1.0000000E+00  -1.0000000E+00  -1.0000000E+00
	2212	-1	0	0	0	0	0.0000000000E+00	0.0000000000E+00	6.5000000000E+03	6.5000000000E+03	9.3827000000E-01	0.000E+00	0.0
	2212	-1	0	0	0	0	0.0000000000E+00	0.0000000000E+00	-6.5000000000E+03	6.5000000000E+03	9.3827000000E-01	0.000E+00	0.0
	2212	1	0	0	0	0	0.0000000000E+00	0.0000000000E+00	5.9921261656E+03	5.9921261656E+03	9.3827000000E-01	0.000E+00	0.0
	2212	1	0	0	0	0	0.0000000000E+00	0.0000000000E+00	-5.9577912611E+03	5.9577912611E+03	9.3827000000E-01	0.000E+00	0.0
	51	2	1	2	0	0	-2.2406444764E+01	1.2421757648E+02	1.2559652548E+01	1.0571586091E+03	1.0495210931E+03	0.000E+00	0.0
	1000022	2	5	5	0	0	2.2406444764E+01	-1.2421757648E+02	-7.5494616585E+01	8.6761473496E+02	8.5505779694E+02	0.000E+00	0.0
	14	1	6	6	0	0	2.4146043665E+02	-2.0088989534E+02	-1.1478552527E+02	4.6632671951E+02	3.2500000000E+02	0.000E+00	0.0
	-14	1	6	6	0	0	-2.1905399188E+02	7.6672318867E+01	3.9290908685E+01	4.0128801545E+02	3.2500000000E+02	0.000E+00	0.0
	25	2	5	5	0	0	-2.2406444764E+01	1.2421757648E+02	4.1159712070E+01	1.8246783826E+02	1.2517322009E+02	0.000E+00	0.0
	-5	1	9	9	0	501	4.9897384420E+01	7.3126679731E+01	2.7459859751E+01	9.2783492918E+01	4.1800000000E+00	0.000E+00	0.0
	5	1	9	9	501	0	-7.2303829185E+01	5.1090896746E+01	1.3699852320E+01	8.9684345338E+01	4.1800000000E+00	0.000E+00	0.0
</event>
<event>
    11  -1  1.0000000E+00  1.0000000E+00  -1.0000000E+00  -1.0000000E+00
	2212	-1	0	0	0	0	0.0000000000E+00	0.0000000000E+00	6.5000000000E+03	6.5000000000E+03	9.3827000000E-01	0.000E+00	0.0
	2212	-1	0	0	0	0	0.0000000000E+00	0.0000000000E+00	-6.5000000000E+03	6.5000000000E+03	9.3827000000E-01	0.000E+00	0.0
	2212	1	0	0	0	0	0.0000000000E+00	0.0000000000E+00	5.6615946881E+03	5.6615946881E+03	9.3827000000E-01	0.000E+00	0.0
	2212	1	0	0	0	0	0.0000000000E+00	0.0000000000E+00	-6.1989159441E+03	6.1989159441E+03	9.3827000000E-01	0.000E+00	0.0
	51	2	1	2	0	0	5.8385580447E+01	-3.9157406181E+01	6.1075111660E+02	1.1779987233E+03	1.0048491863E+03	0.000E+00	0.0
	1000022	2	5	5	0	0	-5.8385580447E+01	3.9157406181E+01	3.8247889035E+02	9.2832969763E+02	8.4294943352E+02	0.000E+00	0.0
	14	1	6	6	0	0	-1.2384916788E+02	6.4714939103E+01	-7.6125403526E+01	3.6186560598E+02	3.2500000000E+02	0.000E+00	0.0
	-14	1	6	6	0	0	6.5463587430E+01	-2.5557532922E+01	4.5860429388E+02	5.6646409165E+02	3.2500000000E+02	0.000E+00	0.0
	25	2	5	5	0	0	5.8385580447E+01	-3.9157406181E+01	1.5484236566E+02	2.1115967015E+02	1.2518014871E+02	0.000E+00	0.0
	-5	1	9	9	0	501	3.3070945882E+01	4.3542761510E+01	4.2828442039E+01	6.9580222685E+01	4.1800000000E+00	0.000E+00	0.0
	5	1	9	9	501	0	2.5314634565E+01	-8.2700167691E+01	1.1201392362E+02	1.4157944746E+02	4.1800000000E+00	0.000E+00	0.0
</event>
<event>
    11  -1  1.0000000E+00  1.0000000E+00  -1.0000000E+00  -1.0000000E+00
	2212	-1	0	0	0	0	0.0000000000E+00	0.0000000000E+00	6.5000000000E+03	6.5000000000E+03	9.3827000000E-01	0.000E+00	0.0
	2212	-1	0	0	0	0	0.0000000000E+00	0.0000000000E+00	-6.5000000000E+03	6.5000000000E+03	9.3827000000E-01	0.000E+00	0.0
	2212	1	0	0	0	0	0.0000000000E+00	0.0000000000E+00	5.0424891896E+03	5.0424891896E+03	9.3827000000E-01	0.000E+00	0.0
	2212	1	0	0	0	0	0.0000000000E+00	0.0000000000E+00	-6.3116360250E+03	6.3116360250E+03	9.3827000000E-01	0.000E+00	0.0
	51	2	1	2	0	0	-2.7212739995E+01	-2.2524895522E+01	1.0666756707E+03	1.4957322654E+03	1.0479361237E+03	0.000E+00	0.0
	1000022	2	5	5	0	0	2.7212739995E+01	2.2524895522E+01	1.2549365239E+03	1.5150170551E+03	8.4803484256E+02	0.000E+00	0.0
	14	1	6	6	0	0	-1.2293848973E+02	-1.6256269892E+02	8.9857685962E+02	9.7703934209E+02	3.2500000000E+02	0.000E+00	0.0
	-14	1	6	6	0	0	1.5015122973E+02	1.8508759445E+02	3.5635966424E+02	5.3797771302E+02	3.2500000000E+02	0.000E+00	0.0
	25	2	5	5	0	0	-2.7212739995E+01	-2.2524895522E+01	1.4210311566E+01	1.3085773028E+02	1.2519548108E+02	0.000E+00	0.0
	-5	1	9	9	0	501	-4.0358728576E+01	-2.3889167853E+01	-4.7931017516E+01	6.7189092516E+01	4.1800000000E+00	0.000E+00	0.0
	5	1	9	9	501	0	1.3145988582E+01	1.3642723309E+00	6.2141329082E+01	6.3668637765E+01	4.1800000000E+00	0.000E+00	0.0
</event>
<event>
    11  -1  1.0000000E+00  1.0000000E+00  -1.0000000E+00  -1.0000000E+00
	2212	-1	0	0	0	0	0.0000000000E+00	0.0000000000E+00	6.5000000000E+03	6.5000000000E+03	9.3827000000E-01	0.000E+00	0.0
	2212	-1	0	0	0	0	0.0000000000E+00	0.0000000000E+00	-6.5000000000E+03	6.5000000000E+03	9.3827000000E-01	0.000E+00	0.0
	2212	1	0	0	0	0	0.0000000000E+00	0.0000000000E+00	6.1008649283E+03	6.1008649283E+03	9.3827000000E-01	0.000E+00	0.0
	2212	1	0	0	0	0	0.0000000000E+00	0.0000000000E+00	-5.7393194301E+03	5.7393194301E+03	9.3827000000E-01	0.000E+00	0.0
	51	2	1	2	0	0	3.0627954736E+01	-1.8719292402E+02	-3.1457536649E+02	1.1616342363E+03	1.1020241264E+03	0.000E+00	0.0
	1000022	2	5	5	0	0	-3.0627954736E+01	1.8719292402E+02	-3.3785274990E+02	9.3131488932E+02	8.4689059509E+02	0.000E+00	0.0
	14	1	6	6	0	0	2.0948778846E+02	1.6434476869E+02	-3.1652157338E+02	5.2602779673E+02	3.2500000000E+02	0.000E+00	0.0
	-14	1	6	6	0	0	-2.4011574320E+02	2.2848155332E+01	-2.1331176516E+01	4.0528709260E+02	3.2500000000E+02	0.000E+00	0.0
	25	2	5	5	0	0	3.0627954736E+01	-1.8719292402E+02	-2.3692748351E+01	2.2850075231E+02	1.2518779919E+02	0.000E+00	0.0
	-5	1	9	9	0	501	6.7886630679E+01	-9.7469452333E+01	-4.8139023138E+01	1.2823309523E+02	4.1800000000E+00	0.000E+00	0.0
	5	1	9	9	501	0	-3.7258675943E+01	-8.9723471690E+01	2.4446274787E+01	1.0026765708E+02	4.1800000000E+00	0.000E+00	0.0
</event>
<event>
    11  -1  1.0000000E+00  1.0000000E+00  -1.0000000E+00  -1.0000000E+00
	2212	-1	0	0	0	0	0.0000000000E+00	0.0000000000E+00	6.5000000000E+03	6.5000000000E+03	9.3827000000E-01	0.000E+00	0.0
	2212	-1	0	0	0	0	0.0000000000E+00	0.0000000000E+00	-6.5000000000E+03	6.5000000000E+03	9.3827000000E-01	0.000E+00	0.0
	2212	1	0	0	0	0	0.0000000000E+00	0.0000000000E+00	4.8508628084E+03	4.8508628084E+03	9.3827000000E-01	0.000E+00	0.0
	2212	1	0	0	0	0	0.0000000000E+00	0.0000000000E+00	-6.3297345186E+03	6.3297345186E+03	9.3827000000E-01	0.000E+00	0.0
	51	2	1	2	0	0	1.3026645270E+02	-2.9838542112E+01	1.6131424688E+03	1.9347487856E+03	1.0597945799E+03	0.000E+00	0.0
	1000022	2	5	5	0	0	-1.3026645270E+02	2.9838542112E+01	1.0861438168E+03	1.3860860438E+03	8.5068586607E+02	0.000E+00	0.0
	14	1	6	6	0	0	-2.6663173286E+02	-3.6346184542E+01	8.7117667788E+02	9.6798105880E+02	3.2500000000E+02	0.000E+00	0.0
	-14	1	6	6	0	0	1.3636528015E+02	6.6184726654E+01	2.1496713895E+02	4.1810498503E+02	3.2500000000E+02	0.000E+00	0.0
	25	2	5	5	0	0	1.3026645270E+02	-2.9838542112E+01	3.9272789330E+02	4.3331662919E+02	1.2517354220E+02	0.000E+00	0.0
	-5	1	9	9	0	501	1.0648243795E+02	2.0243451996E+01	3.3926291916E+02	3.5618128482E+02	4.1800000000E+00	0.000E+00	0.0
	5	1	9	9	501	0	2.3784014756E+01	-5.0081994109E+01	5.3464974133E+01	7.7135344368E+01	4.1800000000E+00	0.000E+00	0.0
</event>
<event>
    11  -1  1.0000000E+00  1.0000000E+00  -1.0000000E+00  -1.0000000E+00
	2212	-1	0	0	0	0	0.0000000000E+00	0.0000000000E+00	6.5000000000E+03	6.5000000000E+03	9.3827000000E-01	0.000E+00	0.0
	2212	-1	0	0	0	0	0.0000000000E+00	0.0000000000E+00	-6.5000000000E+03	6.5000000000E+03	9.3827000000E-01	0.000E+00	0.0
	2212	1	0	0	0	0	0.0000000000E+00	0.0000000000E+00	6.0458158346E+03	6.0458158346E+03	9.3827000000E-01	0.000E+00	0.0
	2212	1	0	0	0	0	0.0000000000E+00	0.0000000000E+00	-5.8955691886E+03	5.8955691886E+03	9.3827000000E-01	0.000E+00	0.0
	51	2	1	2	0	0	-5.8820533642E+01	1.2481780599E+02	-1.6718109988E+02	1.0700843306E+03	1.0478986662E+03	0.000E+00	0.0
	1000022	2	5	5	0	0	5.8820533642E+01	-1.2481780599E+02	-1.0782371237E+02	8.6755767781E+02	8.4970055402E+02	0.000E+00	0.0
	14	1	6	6	0	0	5.6763564549E+01	8.8881554330E+01	-2.8041490147E+02	4.4201759006E+02	3.2500000000E+02	0.000E+00	0.0
	-14	1	6	6	0	0	2.0569690929E+00	-2.1369936032E+02	1.7259118910E+02	4.2554008775E+02	3.2500000000E+02	0.000E+00	0.0
	25	2	5	5	0	0	-5.8820533642E+01	1.2481780599E+02	-4.2422933653E+01	1.9105729905E+02	1.2515528894E+02	0.000E+00	0.0
	-5	1	9	9	0	501	2.8404849907E+01	8.3796223672E+01	-9.3724464492E+00	8.9072766614E+01	4.1800000000E+00	0.000E+00	0.0
	5	1	9	9	501	0	-8.7225383549E+01	4.1021582320E+01	-3.3050487204E+01	1.0198453243E+02	4.1800000000E+00	0.000E+00	0.0
</event>
<event>
    11  -1  1.0000000E+00  1.0000000E+00  -1.0000000E+00  -1.0000000E+00
	2212	-1	0	0	0	0	0.0000000000E+00	0.0000000000E+00	6.5000000000E+03	6.5000000000E+03	9.3827000000E-01	0.000E+00	0.0
	2212	-1	0	0	0	0	0.0000000000E+00	0.0000000000E+00	-6.5000000000E+03	6.5000000000E+03	9.3827000000E-01	0.000E+00	0.0
	2212	1	0	0	0	0	0.0000000000E+00	0.0000000000E+00	6.2760266005E+03	6.2760266005E+03	9.3827000000E-01	0.000E+00	0.0
	2212	1	0	0	0	0	0.0000000000E+00	0.0000000000E+00	-5.2851634780E+03	5.2851634780E+03	9.3827000000E-01	0.000E+00	0.0
	51	2	1	2	0	0	-1.1231838361E+02	-3.4433177078E+01	-9.1755076603E+02	1.3942972186E+03	1.0432469806E+03	0.000E+00	0.0
	1000022	2	5	5	0	0	1.1231838361E+02	3.4433177078E+01	-8.9964796157E+02	1.2444159388E+03	8.5170623515E+02	0.000E+00	0.0
	14	1	6	6	0	0	2.7029857930E+02	8.4106878105E+01	-2.4701487919E+02	4.9676618188E+02	3.2500000000E+02	0.000E+00	0.0
	-14	1	6	6	0	0	-1.5798019569E+02	-4.9673701027E+01	-6.5263308238E+02	7.4764975692E+02	3.2500000000E+02	0.000E+00	0.0
	25	2	5	5	0	0	-1.1231838361E+02	-3.4433177078E+01	-9.1215160941E+01	1.9439398267E+02	1.2517089091E+02	0.000E+00	0.0
	-5	1	9	9	0	501	-1.6720553982E+01	3.3296932466E+01	-6.3793781507E+01	7.3995821477E+01	4.1800000000E+00	0.000E+00	0.0
	5	1	9	9	501	0	-9.5597829628E+01	-6.7730109544E+01	-2.7421379434E+01	1.2039816119E+02	4.1800000000E+00	0.000E+00	0.0
</event>
<event>
    11  -1  1.0000000E+00  1.0000000E+00  -1.0000000E+00  -1.0000000E+00
	2212	-1	0	0	0	0	0.0000000000E+00	0.0000000000E+00	6.5000000000E+03	6.5000000000E+03	9.3827000000E-01	0.000E+00	0.0
	2212	-1	0	0	0	0	0.0000000000E+00	0.0000000000E+00	-6.5000000000E+03	6.5000000000E+03	9.3827000000E-01	0.000E+00	0.0
	2212	1	0	0	0	0	0.0000000000E+00	0.0000000000E+00	6.2584657870E+03	6.2584657870E+03	9.3827000000E-01	0.000E+00	0.0
	2212	1	0	0	0	0	0.0000000000E+00	0.0000000000E+00	-5.3510278781E+03	5.3510278781E+03	9.3827000000E-01	0.000E+00	0.0
	51	2	1	2	0	0	-1.1584945059E+01	6.7904628158E+01	-7.4069763457E+02	1.2897451470E+03	1.0535958945E+03	0.000E+00	0.0
	1000022	2	5	5	0	0	1.1584945059E+01	-6.7904628158E+01	-9.1504310307E+02	1.2474179603E+03	8.4498664939E+02	0.000E+00	0.0
	14	1	6	6	0	0	-5.1444014129E+01	4.0766183309E+01	-7.7804138136E+01	3.4056842514E+02	3.2500000000E+02	0.000E+00	0.0
	-14	1	6	6	0	0	6.3028959188E+01	-1.0867081147E+02	-8.3723896493E+02	9.0684953513E+02	3.2500000000E+02	0.000E+00	0.0
	25	2	5	5	0	0	-1.1584945059E+01	6.7904628158E+01	7.6051941391E+00	1.4308837466E+02	1.2518464166E+02	0.000E+00	0.0
	-5	1	9	9	0	501	-6.1987803547E+01	3.1962288702E+01	3.1446821890E+01	7.6618866441E+01	4.1800000000E+00	0.000E+00	0.0
	5	1	9	9	501	0	5.0402858489E+01	3.5942339456E+01	-2.3841627751E+01	6.6469508222E+01	4.1800000000E+00	0.000E+00	0.0
</event>
<event>
    11  -1  1.0000000E+00  1.0000000E+00  -1.0000000E+00  -1.0000000E+00
	2212	-1	0	0	0	0	0.0000000000E+00	0.0000000000E+00	6.5000000000E+03	6.5000000000E+03	9.3827000000E-01	0.000E+00	0.0
	2212	-1	0	0	0	0	0.0000000000E+00	0.0000000000E+00	-6.5000000000E+03	6.5000000000E+03	9.3827000000E-01	0.000E+00	0.0
	2212	1	0	0	0	0	0.0000000000E+00	0.0000000000E+00	6.3327512946E+03	6.3327512946E+03	9.3827000000E-01	0.000E+00	0.0
	2212	1	0	0	0	0	0.0000000000E+00	0.0000000000E+00	-4.8597053997E+03	4.8597053997E+03	9.3827000000E-01	0.000E+00	0.0
	51	2	1	2	0	0	9.4672903053E+01	-8.2099698323E+01	-1.5217323921E+03	1.8516806921E+03	1.0475440771E+03	0.000E+00	0.0
	1000022	2	5	5	0	0	-9.4672903053E+01	8.2099698323E+01	-1.1841106994E+03	1.4686018484E+03	8.5963359738E+02	0.000E+00	0.0
	14	1	6	6	0	0	-1.8790495239E+02	7.7742934745E+01	-2.0925025803E+02	4.3676413030E+02	3.2500000000E+02	0.000E+00	0.0
	-14	1	6	6	0	0	9.3232049334E+01	4.3567635784E+00	-9.7486044135E+02	1.0318377181E+03	3.2500000000E+02	0.000E+00	0.0
	25	2	5	5	0	0	9.4672903053E+01	-8.2099698323E+01	-2.8893519550E+02	3.3894145728E+02	1.2527747295E+02	0.000E+00	0.0
	-5	1	9	9	0	501	-2.4740342280E+01	-4.2786138602E+01	-1.0477369672E+02	1.1592125826E+02	4.1800000000E+00	0.000E+00	0.0
	5	1	9	9	501	0	1.1941324533E+02	-3.9313559721E+01	-1.8416149878E+02	2.2302019902E+02	4.1800000000E+00	0.000E+00	0.0
</event>
<event>
    11  -1  1.0000000E+00  1.0000000E+00  -1.0000000E+00  -1.0000000E+00
	2212	-1	0	0	0	0	0.0000000000E+00	0.0000000000E+00	6.5000000000E+03	6.5000000000E+03	9.3827000000E-01	0.000E+00	0.0
	2212	-1	0	0	0	0	0.0000000000E+00	0.0000000000E+00	-6.5000000000E+03	6.5000000000E+03	9.3827000000E-01	0.000E+00	0.0
	2212	1	0	0	0	0	0.0000000000E+00	0.0000000000E+00	5.8806465529E+03	5.8806465529E+03	9.3827000000E-01	0.000E+00	0.0
	2212	1	0	0	0	0	0.0000000000E+00	0.0000000000E+00	-6.0516419038E+03	6.0516419038E+03	9.3827000000E-01	0.000E+00	0.0
	51	2	1	2	0	0	8.9991642058E+01	-6.3968409315E+01	2.7127158067E+02	1.0938680237E+03	1.0539300403E+03	0.000E+00	0.0
	1000022	2	5	5	0	0	-8.9991642058E+01	6.3968409315E+01	4.1028390793E+01	8.5616326493E+02	8.4802226052E+02	0.000E+00	0.0
	14	1	6	6	0	0	-2.9752778866E+02	-1.2592752335E+00	-7.7757681358E+01	4.4743226058E+02	3.2500000000E+02	0.000E+00	0.0
	-14	1	6	6	0	0	2.0753614660E+02	6.5227684549E+01	1.1878607215E+02	4.0873100435E+02	3.2500000000E+02	0.000E+00	0.0
	25	2	5	5	0	0	8.9991642058E+01	-6.3968409315E+01	1.2996696013E+02	2.1154827844E+02	1.2518310730E+02	0.000E+00	0.0
	-5	1	9	9	0	501	1.5384419401E+01	3.7375654753E+01	3.7901245196E+01	5.5566147212E+01	4.1800000000E+00	0.000E+00	0.0
	5	1	9	9	501	0	7.4607222657E+01	-1.0134406407E+02	9.2065714938E+01	1.5598213123E+02	4.1800000000E+00	0.000E+00	0.0
</event>
<event>
    11  -1  1.0000000E+00  1.0000000E+00  -1.0000000E+00  -1.0000000E+00
	2212	-1	0	0	0	0	0.0000000000E+00	0.0000000000E+00	6.5000000000E+03	6.5000000000E+03	9.3827000000E-01	0.000E+00	0.0
	2212	-1	0	0	0	0	0.0000000000E+00	0.0000000000E+00	-6.5000000000E+03	6.5000000000E+03	9.3827000000E-01	0.000E+00	0.0
	2212	1	0	0	0	0	0.0000000000E+00	0.0000000000E+00	5.6493129025E+03	5.6493129025E+03	9.3827000000E-01	0.000E+00	0.0
	2212	1	0	0	0	0	0.0000000000E+00	0.0000000000E+00	-6.1806470244E+03	6.1806470244E+03	9.3827000000E-01	0.000E+00	0.0
	51	2	1	2	0	0	9.9845234371E+01	6.9311290378E+01	5.6171558021E+02	1.1903677341E+03	1.0424384027E+03	0.000E+00	0.0
	1000022	2	5	5	0	0	-9.9845234371E+01	-6.9311290378E+01	4.1493325341E+02	9.6029081669E+02	8.5744721239E+02	0.000E+00	0.0
	14	1	6	6	0	0	-2.1616072524E+01	-1.0852756503E+02	5.0612358340E+02	6.1158120363E+02	3.2500000000E+02	0.000E+00	0.0
	-14	1	6	6	0	0	-7.8229161846E+01	3.9216274655E+01	-9.1190329980E+01	3.4870961306E+02	3.2500000000E+02	0.000E+00	0.0
	25	2	5	5	0	0	9.9845234371E+01	6.9311290378E+01	1.1640086853E+02	2.0974925640E+02	1.2518970631E+02	0.000E+00	0.0
	-5	1	9	9	0	501	1.2815942020E+02	5.6715368019E+01	7.8770374734E+01	1.6082199567E+02	4.1800000000E+00	0.000E+00	0.0
	5	1	9	9	501	0	-2.8314185831E+01	1.2595922358E+01	3.7630493795E+01	4.8927260731E+01	4.1800000000E+00	0.000E+00	0.0
</event>
<event>
    11  -1  1.0000000E+00  1.0000000E+00  -1.0000000E+00  -1.0000000E+00
	2212	-1	0	0	0	0	0.0000000000E+00	0.0000000000E+00	6.5000000000E+03	6.5000000000E+03	9.3827000000E-01	0.000E+00	0.0
	2212	-1	0	0	0	0	0.0000000000E+00	0.0000000000E+00	-6.5000000000E+03	6.5000000000E+03	9.3827000000E-01	0.000E+00	0.0
	2212	1	0	0	0	0	0.0000000000E+00	0.0000000000E+00	6.2830676441E+03	6.2830676441E+03	9.3827000000E-01	0.000E+00	0.0
	2212	1	0	0	0	0	0.0000000000E+00	0.0000000000E+00	-5.2307195975E+03	5.2307195975E+03	9.3827000000E-01	0.000E+00	0.0
	51	2	1	2	0	0	1.9804204870E+01	-1.3224345904E+02	-1.1146473698E+03	1.5367860131E+03	1.0494722256E+03	0.000E+00	0.0
	1000022	2	5	5	0	0	-1.9804204870E+01	1.3224345904E+02	-8.1172499493E+02	1.1837960179E+03	8.5123146424E+02	0.000E+00	0.0
	14	1	6	6	0	0	1.5296088838E+02	2.1937418470E+02	-2.0337674830E+02	4.6744964225E+02	3.2500000000E+02	0.000E+00	0.0
	-14	1	6	6	0	0	-1.7276509325E+02	-8.7130725660E+01	-6.0834824662E+02	7.1634637569E+02	3.2500000000E+02	0.000E+00	0.0
	25	2	5	5	0	0	1.9804204870E+01	-1.3224345904E+02	-2.4062305164E+02	3.0241674049E+02	1.2520340635E+02	0.000E+00	0.0
	-5	1	9	9	0	501	-1.7871646188E+01	-1.3570996446E+02	-1.4475867311E+02	1.9927151335E+02	4.1800000000E+00	0.000E+00	0.0
	5	1	9	9	501	0	3.7675851058E+01	3.4665054195E+00	-9.5864378525E+01	1.0314522714E+02	4.1800000000E+00	0.000E+00	0.0
</event>
<event>
    11  -1  1.0000000E+00  1.0000000E+00  -1.0000000E+00  -1.0000000E+00
	2212	-1	0	0	0	0	0.0000000000E+00	0.0000000000E+00	6.5000000000E+03	6.5000000000E+03	9.3827000000E-01	0.000E+00	0.0
	2212	-1	0	0	0	0	0.0000000000E+00	0.0000000000E+00	-6.5000000000E+03	6.5000000000E+03	9.3827000000E-01	0.000E+00	0.0
	2212	1	0	0	0	0	0.0000000000E+00	0.0000000000E+00	6.3270520438E+03	6.3270520438E+03	9.3827000000E-01	0.000E+00	0.0
	2212	1	0	0	0	0	0.0000000000E+00	0.0000000000E+00	-4.9250305805E+03	4.9250305805E+03	9.3827000000E-01	0.000E+00	0.0
	51	2	1	2	0	0	1.1729834770E+02	4.9278698769E+01	-1.3440962967E+03	1.7065559223E+03	1.0438155817E+03	0.000E+00	0.0
	1000022	2	5	5	0	0	-1.1729834770E+02	-4.9278698769E+01	-1.2253066647E+03	1.4967503030E+03	8.5011631817E+02	0.000E+00	0.0
	14	1	6	6	0	0	1.7652938324E+02	-1.0818726215E+02	-7.7609170141E+02	8.6649318280E+02	3.2500000000E+02	0.000E+00	0.0
	-14	1	6	6	0	0	-2.9382773094E+02	5.8908563376E+01	-4.4921496329E+02	6.3025712019E+02	3.2500000000E+02	0.000E+00	0.0
	25	2	5	5	0	0	1.1729834770E+02	4.9278698769E+01	-1.7671479857E+02	2.5116707268E+02	1.2517781687E+02	0.000E+00	0.0
	-5	1	9	9	0	501	9.6537773458E+01	8.2589653567E+01	-1.6812560251E+02	2.1077068866E+02	4.1800000000E+00	0.000E+00	0.0
	5	1	9	9	501	0	2.0760574245E+01	-3.3310954797E+01	-8.5891960616E+00	4.0396384015E+01	4.1800000000E+00	0.000E+00	0.0
</event>
<event>
    11  -1  1.0000000E+00  1.0000000E+00  -1.0000000E+00  -1.0000000E+00
	2212	-1	0	0	0	0	0.0000000000E+00	0.0000000000E+00	6.5000000000E+03	6.5000000000E+03	9.3827000000E-01	0.000E+00	0.0
	2212	-1	0	0	0	0	0.0000000000E+00	0.0000000000E+00	-6.5000000000E+03	6.5000000000E+03	9.3827000000E-01	0.000E+00	0.0
	2212	1	0	0	0	0	0.0000000000E+00	0.0000000000E+00	5.7113534190E+03	5.7113534190E+03	9.3827000000E-01	0.000E+00	0.0
	2212	1	0	0	0	0	0.0000000000E+00	0.0000000000E+00	-6.1509177167E+03	6.1509177167E+03	9.3827000000E-01	0.000E+00	0.0
	51	2	1	2	0	0	-3.4885146090E+01	1.3039689884E+02	4.0719327227E+02	1.1336828844E+03	1.0493856282E+03	0.000E+00	0.0
	1000022	2	5	5	0	0	3.4885146090E+01	-1.3039689884E+02	3.9740577297E+02	9.4886923086E+02	8.5100008475E+02	0.000E+00	0.0
	14	1	6	6	0	0	2.4432591367E+01	1.1234541363E+01	-9.7156891529E+01	3.4027581168E+02	3.2500000000E+02	0.000E+00	0.0
	-14	1	6	6	0	0	1.0452554723E+01	-1.4163144021E+02	4.9456266450E+02	6.0859341919E+02	3.2500000000E+02	0.000E+00	0.0
	25	2	5	5	0	0	-3.4885146090E+01	1.3039689884E+02	4.2158524700E+01	1.8885963338E+02	1.2518104997E+02	0.000E+00	0.0
	-5	1	9	9	0	501	-7.9649621223E+01	1.0573824574E+02	3.5725106821E+01	1.3718015320E+02	4.1800000000E+00	0.000E+00	0.0
	5	1	9	9	501	0	4.4764475133E+01	2.4658653101E+01	6.4334178790E+00	5.1679480186E+01	4.1800000000E+00	0.000E+00	0.0
</event>
<event>
    11  -1  1.0000000E+00  1.0000000E+00  -1.0000000E+00  -1.0000000E+00
	2212	-1	0	0	0	0	0.0000000000E+00	0.0000000000E+00	6.5000000000E+03	6.5000000000E+03	9.3827000000E-01	0.000E+00	0.0
	2212	-1	0	0	0	0	0.0000000000E+00	0.0000000000E+00	-6.5000000000E+03	6.5000000000E+03	9.3827000000E-01	0.000E+00	0.0
	2212	1	0	0	0	0	0.0000000000E+00	0.0000000000E+00	5.8991688912E+03	5.8991688912E+03	9.3827000000E-01	0.000E+00	0.0
	2212	1	0	0	0	0	0.0000000000E+00	0.0000000000E+00	-6.0312220695E+03	6.0312220695E+03	9.3827000000E-01	0.000E+00	0.0
	51	2	1	2	0	0	1.1193233634E+02	-1.2655528471E+02	1.6880292826E+01	1.0749211540E+03	1.0614261420E+03	0.000E+00	0.0
	1000022	2	5	5	0	0	-1.1193233634E+02	1.2655528471E+02	2.1975463138E+02	8.4178283796E+02	7.9483404573E+02	0.000E+00	0.0
	14	1	6	6	0	0	3.0675746158E+01	-1.4002459142E+02	2.2121860487E+01	3.5589642358E+02	3.2500000000E+02	0.000E+00	0.0
	-14	1	6	6	0	0	-1.4260808250E+02	2.6657987612E+02	1.9763277089E+02	4.8588641438E+02	3.2500000000E+02	0.000E+00	0.0
	25	2	5	5	0	0	1.1193233634E+02	-1.2655528471E+02	-8.7701453112E+01	2.2782620130E+02	1.2517246149E+02	0.000E+00	0.0
	-5	1	9	9	0	501	4.0029915161E+01	8.4161529791E+00	-5.9402135274E+01	7.2244804753E+01	4.1800000000E+00	0.000E+00	0.0
	5	1	9	9	501	0	7.1902421179E+01	-1.3497143768E+02	-2.8299317838E+01	1.5558139655E+02	4.1800000000E+00	0.000E+00	0.0
</event>
<event>
    11  -1  1.0000000E+00  1.0000000E+00  -1.0000000E+00  -1.0000000E+00
	2212	-1	0	0	0	0	0.0000000000E+00	0.0000000000E+00	6.5000000000E+03	6.5000000000E+03	9.3827000000E-01	0.000E+00	0.0
	2212	-1	0	0	0	0	0.0000000000E+00	0.0000000000E+00	-6.5000000000E+03	6.5000000000E+03	9.3827000000E-01	0.000E+00	0.0
	2212	1	0	0	0	0	0.0000000000E+00	0.0000000000E+00	5.7344751881E+03	5.7344751881E+03	9.3827000000E-01	0.000E+00	0.0
	2212	1	0	0	0	0	0.0000000000E+00	0.0000000000E+00	-6.1366856230E+03	6.1366856230E+03	9.3827000000E-01	0.000E+00	0.0
	51	2	1	2	0	0	-1.2440092128E+02	5.7107832201E+01	3.9062472092E+02	1.1330618900E+03	1.0547533742E+03	0.000E+00	0.0
	1000022	2	5	5	0	0	1.2440092128E+02	-5.7107832201E+01	3.4627175338E+02	9.3510329449E+02	8.5777453358E+02	0.000E+00	0.0
	14	1	6	6	0	0	-2.1422317706E+02	2.6950968230E+01	1.8433985449E+02	4.3153691179E+02	3.2500000000E+02	0.000E+00	0.0
	-14	1	6	6	0	0	3.3862409834E+02	-8.4058800431E+01	1.6193189889E+02	5.0356638270E+02	3.2500000000E+02	0.000E+00	0.0
	25	2	5	5	0	0	-1.2440092128E+02	5.7107832201E+01	5.5938681520E+01	1.9373589435E+02	1.2517015202E+02	0.000E+00	0.0
	-5	1	9	9	0	501	-1.2155864471E+02	4.2653665614E+01	-6.8816986879E+00	1.2907621574E+02	4.1800000000E+00	0.000E+00	0.0
	5	1	9	9	501	0	-2.8422765666E+00	1.4454166588E+01	6.2820380207E+01	6.4659678604E+01	4.1800000000E+00	0.000E+00	0.0
</event>
<event>
    11  -1  1.0000000E+00  1.0000000E+00  -1.0000000E+00  -1.0000000E+00
	2212	-1	0	0	0	0	0.0000000000E+00	0.0000000000E+00	6.5000000000E+03	6.5000000000E+03	9.3827000000E-01	0.000E+00	0.0
	2212	-1	0	0	0	0	0.0000000000E+00	0.0000000000E+00	-6.5000000000E+03	6.5000000000E+03	9.3827000000E-01	0.000E+00	0.0
	2212	1	0	0	0	0	0.0000000000E+00	0.0000000000E+00	4.9660617171E+03	4.9660617171E+03	9.3827000000E-01	0.000E+00	0.0
	2212	1	0	0	0	0	0.0000000000E+00	0.0000000000E+00	-6.3219254275E+03	6.3219254275E+03	9.3827000000E-01	0.000E+00	0.0
	51	2	1	2	0	0	9.6205877146E+01	8.7381128783E+01	1.3631737388E+03	1.7227174146E+03	1.0452854232E+03	0.000E+00	0.0
	1000022	2	5	5	0	0	-9.6205877146E+01	-8.7381128783E+01	1.1249158154E+03	1.4189267414E+03	8.5500086165E+02	0.000E+00	0.0
	14	1	6	6	0	0	-2.5490738479E+02	-1.7059979907E+02	3.7970607854E+02	5.8641604032E+02	3.2500000000E+02	0.000E+00	0.0
	-14	1	6	6	0	0	1.5870150764E+02	8.3218670287E+01	7.4520973681E+02	8.3251070110E+02	3.2500000000E+02	0.000E+00	0.0
	25	2	5	5	0	0	9.6205877146E+01	8.7381128783E+01	2.3094789505E+02	2.9308611401E+02	1.2518589190E+02	0.000E+00	0.0
	-5	1	9	9	0	501	-1.0117557956E+00	8.2598686773E+01	1.1470681399E+02	1.4141673268E+02	4.1800000000E+00	0.000E+00	0.0
	5	1	9	9	501	0	9.7217632942E+01	4.7824420097E+00	1.1624108106E+02	1.5166938133E+02	4.1800000000E+00	0.000E+00	0.0
</event>
<event>
    11  -1  1.0000000E+00  1.0000000E+00  -1.0000000E+00  -1.0000000E+00
	2212	-1	0	0	0	0	0.0000000000E+00	0.0000000000E+00	6.5000000000E+03	6.5000000000E+03	9.3827000000E-01	0.000E+00	0.0
	2212	-1	0	0	0	0	0.0000000000E+00	0.0000000000E+00	-6.5000000000E+03	6.5000000000E+03	9.3827000000E-01	0.000E+00	0.0
	2212	1	0	0	0	0	0.0000000000E+00	0.0000000000E+00	6.1443882057E+03	6.1443882057E+03	9.3827000000E-01	0.000E+00	0.0
	2212	1	0	0	0	0	0.0000000000E+00	0.0000000000E+00	-5.7095682287E+03	5.7095682287E+03	9.3827000000E-01	0.000E+00	0.0
	51	2	1	2	0	0	-1.4223017148E+02	-3.7850282828E+01	-4.0771370418E+02	1.1455304325E+03	1.0603525082E+03	0.000E+00	0.0
	1000022	2	5	5	0	0	1.4223017148E+02	3.7850282828E+01	-3.8613400339E+02	9.4679306991E+02	8.5185420295E+02	0.000E+00	0.0
	14	1	6	6	0	0	2.6509065649E+01	1.6939635001E+02	5.4987683094E+01	3.7154609303E+02	3.2500000000E+02	0.000E+00	0.0
	-14	1	6	6	0	0	1.1572110583E+02	-1.3154606718E+02	-4.4112168648E+02	5.7524697688E+02	3.2500000000E+02	0.000E+00	0.0
	25	2	5	5	0	0	-1.4223017148E+02	-3.7850282828E+01	-4.8685973645E+01	1.9925049562E+02	1.2517336133E+02	0.000E+00	0.0
	-5	1	9	9	0	501	-2.7261621414E+01	-5.2972174280E+01	2.1694208421E+01	6.3540210333E+01	4.1800000000E+00	0.000E+00	0.0
	5	1	9	9	501	0	-1.1496855007E+02	1.5121891453E+01	-7.0380182066E+01	1.3571028529E+02	4.1800000000E+00	0.000E+00	0.0
</event>
<event>
    11  -1  1.0000000E+00  1.0000000E+00  -1.0000000E+00  -1.0000000E+00
	2212	-1	0	0	0	0	0.0000000000E+00	0.0000000000E+00	6.5000000000E+03	6.5000000000E+03	9.3827000000E-01	0.000E+00	0.0
	2212	-1	0	0	0	0	0.0000000000E+00	0.0000000000E+00	-6.5000000000E+03	6.5000000000E+03	9.3827000000E-01	0.000E+00	0.0
	2212	1	0	0	0	0	0.0000000000E+00	0.0000000000E+00	5.7249454684E+03	5.7249454684E+03	9.3827000000E-01	0.000E+00	0.0
	2212	1	0	0	0	0	0.0000000000E+00	0.0000000000E+00	-6.1474595270E+03	6.1474595270E+03	9.3827000000E-01	0.000E+00	0.0
	51	2	1	2	0	0	3.7534975146E+01	-8.2630602737E+01	5.3734663214E+02	1.1789531198E+03	1.0454436210E+03	0.000E+00	0.0
	1000022	2	5	5	0	0	-3.7534975146E+01	8.2630602737E+01	2.3620433640E+02	8.8548045371E+02	8.4855551056E+02	0.000E+00	0.0
	14	1	6	6	0	0	-1.3797842174E+02	1.7661314650E+02	-8.9986559490E+01	4.0491089053E+02	3.2500000000E+02	0.000E+00	0.0
	-14	1	6	6	0	0	1.0044344659E+02	-9.3982543758E+01	3.2619089589E+02	4.8056956318E+02	3.2500000000E+02	0.000E+00	0.0
	25	2	5	5	0	0	3.7534975146E+01	-8.2630602737E+01	1.8630972225E+02	2.4211455091E+02	1.2518567126E+02	0.000E+00	0.0
	-5	1	9	9	0	501	1.7330524461E+01	-1.0340648707E+02	1.8514278190E+02	2.1281111516E+02	4.1800000000E+00	0.000E+00	0.0
	5	1	9	9	501	0	2.0204450685E+01	2.0775884329E+01	1.1669403532E+00	2.9303435753E+01	4.1800000000E+00	0.000E+00	0.0
</event>
<event>
    11  -1  1.0000000E+00  1.0000000E+00  -1.0000000E+00  -1.0000000E+00
	2212	-1	0	0	0	0	0.0000000000E+00	0.0000000000E+00	6.5000000000E+03	6.5000000000E+03	9.3827000000E-01	0.000E+00	0.0
	2212	-1	0	0	0	0	0.0000000000E+00	0.0000000000E+00	-6.5000000000E+03	6.5000000000E+03	9.3827000000E-01	0.000E+00	0.0
	2212	1	0	0	0	0	0.0000000000E+00	0.0000000000E+00	5.5142753156E+03	5.5142753156E+03	9.3827000000E-01	0.000E+00	0.0
	2212	1	0	0	0	0	0.0000000000E+00	0.0000000000E+00	-6.2199581023E+03	6.2199581023E+03	9.3827000000E-01	0.000E+00	0.0
	51	2	1	2	0	0	-1.0100971498E+00	1.4508286653E+02	6.6893731599E+02	1.2540749723E+03	1.0507981942E+03	0.000E+00	0.0
	1000022	2	5	5	0	0	1.0100971498E+00	-1.4508286653E+02	6.1855455085E+02	1.0552688442E+03	8.4257494786E+02	0.000E+00	0.0
	14	1	6	6	0	0	-1.4678393981E+02	1.4349276701E+02	3.6858613536E+02	5.3255651189E+02	3.2500000000E+02	0.000E+00	0.0
	-14	1	6	6	0	0	1.4779403696E+02	-2.8857563355E+02	2.4996841549E+02	5.2271233234E+02	3.2500000000E+02	0.000E+00	0.0
	25	2	5	5	0	0	-1.0100971498E+00	1.4508286653E+02	8.7128235793E+01	2.1049773787E+02	1.2517152120E+02	0.000E+00	0.0
	-5	1	9	9	0	501	5.4913394126E+01	9.7819787645E+01	2.6499865477E+01	1.1534256361E+02	4.1800000000E+00	0.000E+00	0.0
	5	1	9	9	501	0	-5.5923491275E+01	4.7263078886E+01	6.0628370316E+01	9.5155174265E+01	4.1800000000E+00	0.000E+00	0.0
</event>
<event>
    11  -1  1.0000000E+00  1.0000000E+00  -1.0000000E+00  -1.0000000E+00
	2212	-1	0	0	0	0	0.0000000000E+00	0.0000000000E+00	6.5000000000E+03	6.5000000000E+03	9.3827000000E-01	0.000E+00	0.0
	2212	-1	0	0	0	0	0.0000000000E+00	0.0000000000E+00	-6.5000000000E+03	6.5000000000E+03	9.3827000000E-01	0.000E+00	0.0
	2212	1	0	0	0	0	0.0000000000E+00	0.0000000000E+00	6.1241767076E+03	6.1241767076E+03	9.3827000000E-01	0.000E+00	0.0
	2212	1	0	0	0	0	0.0000000000E+00	0.0000000000E+00	-5.7963896394E+03	5.7963896394E+03	9.3827000000E-01	0.000E+00	0.0
	51	2	1	2	0	0	-1.4448330805E+01	2.2682850644E+01	-2.1161861875E+02	1.0503515387E+03	1.0284613017E+03	0.000E+00	0.0
	1000022	2	5	5	0	0	1.4448330805E+01	-2.2682850644E+01	-3.9167189779E+02	9.3634088825E+02	8.5006124339E+02	0.000E+00	0.0
	14	1	6	6	0	0	1.9695042946E+02	1.2729550734E+02	-3.5057361891E+02	5.3246641221E+02	3.2500000000E+02	0.000E+00	0.0
	-14	1	6	6	0	0	-1.8250209865E+02	-1.4997835798E+02	-4.1098278879E+01	4.0387447605E+02	3.2500000000E+02	0.000E+00	0.0
	25	2	5	5	0	0	-1.4448330805E+01	2.2682850644E+01	6.3884829586E+01	1.4309276468E+02	1.2518387227E+02	0.000E+00	0.0
	-5	1	9	9	0	501	6.1966690523E+00	7.2447115327E+01	2.7043204370E+01	7.7690350296E+01	4.1800000000E+00	0.000E+00	0.0
	5	1	9	9	501	0	-2.0644999857E+01	-4.9764264683E+01	3.6841625216E+01	6.5402414383E+01	4.1800000000E+00	0.000E+00	0.0
</event>
<event>
    11  -1  1.0000000E+00  1.0000000E+00  -1.0000000E+00  -1.0000000E+00
	2212	-1	0	0	0	0	0.0000000000E+00	0.0000000000E+00	6.5000000000E+03	6.5000000000E+03	9.3827000000E-01	0.000E+00	0.0
	2212	-1	0	0	0	0	0.0000000000E+00	0.0000000000E+00	-6.5000000000E+03	6.5000000000E+03	9.3827000000E-01	0.000E+00	0.0
	2212	1	0	0	0	0	0.0000000000E+00	0.0000000000E+00	6.3360455067E+03	6.3360455067E+03	9.3827000000E-01	0.000E+00	0.0
	2212	1	0	0	0	0	0.0000000000E+00	0.0000000000E+00	-4.8582494672E+03	4.8582494672E+03	9.3827000000E-01	0.000E+00	0.0
	51	2	1	2	0	0	1.0686259661E+02	-3.7806757839E+00	-1.3721929739E+03	1.7236696239E+03	1.0376365004E+03	0.000E+00	0.0
	1000022	2	5	5	0	0	-1.0686259661E+02	3.7806757839E+00	-1.3411674910E+03	1.5917599062E+03	8.5060887142E+02	0.000E+00	0.0
	14	1	6	6	0	0	1.3113731590E+02	-1.3963069777E+02	-9.0727384199E+02	9.8258055738E+02	3.2500000000E+02	0.000E+00	0.0
	-14	1	6	6	0	0	-2.3799991251E+02	1.4341137356E+02	-4.3389364896E+02	6.0917934882E+02	3.2500000000E+02	0.000E+00	0.0
	25	2	5	5	0	0	1.0686259661E+02	-3.7806757839E+00	-1.3662854859E+02	2.1394511992E+02	1.2518484726E+02	0.000E+00	0.0
	-5	1	9	9	0	501	3.9278374746E+01	1.9478810139E+01	1.4784986258E+01	4.6457324350E+01	4.1800000000E+00	0.000E+00	0.0
	5	1	9	9	501	0	6.7584221867E+01	-2.3259485922E+01	-1.5141353485E+02	1.6748779557E+02	4.1800000000E+00	0.000E+00	0.0
</event>
<event>
    11  -1  1.0000000E+00  1.0000000E+00  -1.0000000E+00  -1.0000000E+00
	2212	-1	0	0	0	0	0.0000000000E+00	0.0000000000E+00	6.5000000000E+03	6.5000000000E+03	9.3827000000E-01	0.000E+00	0.0
	2212	-1	0	0	0	0	0.0000000000E+00	0.0000000000E+00	-6.5000000000E+03	6.5000000000E+03	9.3827000000E-01	0.000E+00	0.0
	2212	1	0	0	0	0	0.0000000000E+00	0.0000000000E+00	5.6409916681E+03	5.6409916681E+03	9.3827000000E-01	0.000E+00	0.0
	2212	1	0	0	0	0	0.0000000000E+00	0.0000000000E+00	-6.1671538296E+03	6.1671538296E+03	9.3827000000E-01	0.000E+00	0.0
	51	2	1	2	0	0	1.1644432988E+02	-9.4208732585E+01	5.7887544269E+02	1.2252354385E+03	1.0694253290E+03	0.000E+00	0.0
	1000022	2	5	5	0	0	-1.1644432988E+02	9.4208732585E+01	3.8071949857E+02	9.4842438498E+02	8.5564414927E+02	0.000E+00	0.0
	14	1	6	6	0	0	4.1404593013E+01	-9.8975385678E+01	-5.9126683298E+01	3.4732035928E+02	3.2500000000E+02	0.000E+00	0.0
	-14	1	6	6	0	0	-1.5784892290E+02	1.9318411826E+02	4.3984618187E+02	6.0110402570E+02	3.2500000000E+02	0.000E+00	0.0
	25	2	5	5	0	0	1.1644432988E+02	-9.4208732585E+01	1.4544266292E+02	2.4343011725E+02	1.2518021622E+02	0.000E+00	0.0
	-5	1	9	9	0	501	5.4573325156E+01	-1.0255683120E+02	1.3796950132E+02	1.8041398820E+02	4.1800000000E+00	0.000E+00	0.0
	5	1	9	9	501	0	6.1871004727E+01	8.3480986135E+00	7.4731615963E+00	6.3016129052E+01	4.1800000000E+00	0.000E+00	0.0
</event>
<event>
    11  -1  1.0000000E+00  1.0000000E+00  -1.0000000E+00  -1.0000000E+00
	2212	-1	0	0	0	0	0.0000000000E+00	0.0000000000E+00	6.5000000000E+03	6.5000000000E+03	9.3827000000E-01	0.000E+00	0.0
	2212	-1	0	0	0	0	0.0000000000E+00	0.0000000000E+00	-6.5000000000E+03	6.5000000000E+03	9.3827000000E-01	0.000E+00	0.0
	2212	1	0	0	0	0	0.0000000000E+00	0.0000000000E+00	5.0205253894E+03	5.0205253894E+03	9.3827000000E-01	0.000E+00	0.0
	2212	1	0	0	0	0	0.0000000000E+00	0.0000000000E+00	-6.3147639780E+03	6.3147639780E+03	9.3827000000E-01	0.000E+00	0.0
	51	2	1	2	0	0	-1.6466219353E+01	1.2333142090E+02	1.3191782225E+03	1.6887631346E+03	1.0469995063E+03	0.000E+00	0.0
	1000022	2	5	5	0	0	1.6466219353E+01	-1.2333142090E+02	1.0599458637E+03	1.3713783243E+03	8.6122674063E+02	0.000E+00	0.0
	14	1	6	6	0	0	-1.3269580125E+02	-2.2317942529E+02	2.6288309869E+02	4.9208714180E+02	3.2500000000E+02	0.000E+00	0.0
	-14	1	6	6	0	0	1.4916202060E+02	9.9848004393E+01	7.9706276499E+02	8.7929118255E+02	3.2500000000E+02	0.000E+00	0.0
	25	2	5	5	0	0	-1.6466219353E+01	1.2333142090E+02	2.3429272486E+02	2.9333230822E+02	1.2517582180E+02	0.000E+00	0.0
	-5	1	9	9	0	501	-4.9164625467E+01	1.8299812091E+01	2.8257816324E+01	5.9732906369E+01	4.1800000000E+00	0.000E+00	0.0
	5	1	9	9	501	0	3.2698406114E+01	1.0503160881E+02	2.0603490853E+02	2.3359940185E+02	4.1800000000E+00	0.000E+00	0.0
</event>
<event>
    11  -1  1.0000000E+00  1.0000000E+00  -1.0000000E+00  -1.0000000E+00
	2212	-1	0	0	0	0	0.0000000000E+00	0.0000000000E+00	6.5000000000E+03	6.5000000000E+03	9.3827000000E-01	0.000E+00	0.0
	2212	-1	0	0	0	0	0.0000000000E+00	0.0000000000E+00	-6.5000000000E+03	6.5000000000E+03	9.3827000000E-01	0.000E+00	0.0
	2212	1	0	0	0	0	0.0000000000E+00	0.0000000000E+00	5.5032278732E+03	5.5032278732E+03	9.3827000000E-01	0.000E+00	0.0
	2212	1	0	0	0	0	0.0000000000E+00	0.0000000000E+00	-6.2287188076E+03	6.2287188076E+03	9.3827000000E-01	0.000E+00	0.0
	51	2	1	2	0	0	1.6752576769E+01	-8.7229746832E+01	6.1654490862E+02	1.2122868581E+03	1.0400106367E+03	0.000E+00	0.0
	1000022	2	5	5	0	0	-1.6752576769E+01	8.7229746832E+01	7.1447802130E+02	1.1141488892E+03	8.5027009054E+02	0.000E+00	0.0
	14	1	6	6	0	0	1.5119840349E+02	2.4150983633E+01	6.4232959928E+02	7.3597319336E+02	3.2500000000E+02	0.000E+00	0.0
	-14	1	6	6	0	0	-1.6795098026E+02	6.3078763199E+01	7.2148422012E+01	3.7817569585E+02	3.2500000000E+02	0.000E+00	0.0
	25	2	5	5	0	0	1.6752576769E+01	-8.7229746832E+01	1.1012913153E+01	1.5390443004E+02	1.2520228340E+02	0.000E+00	0.0
	-5	1	9	9	0	501	-2.2580722880E+01	2.4864321336E+01	8.9847606976E+00	3.5018878424E+01	4.1800000000E+00	0.000E+00	0.0
	5	1	9	9	501	0	3.9333299648E+01	-1.1209406817E+02	2.0281524553E+00	1.1888555161E+02	4.1800000000E+00	0.000E+00	0.0
</event>
<event>
    11  -1  1.0000000E+00  1.0000000E+00  -1.0000000E+00  -1.0000000E+00
	2212	-1	0	0	0	0	0.0000000000E+00	0.0000000000E+00	6.5000000000E+03	6.5000000000E+03	9.3827000000E-01	0.000E+00	0.0
	2212	-1	0	0	0	0	0.0000000000E+00	0.0000000000E+00	-6.5000000000E+03	6.5000000000E+03	9.3827000000E-01	0.000E+00	0.0
	2212	1	0	0	0	0	0.0000000000E+00	0.0000000000E+00	5.7092164626E+03	5.7092164626E+03	9.3827000000E-01	0.000E+00	0.0
	2212	1	0	0	0	0	0.0000000000E+00	0.0000000000E+00	-6.1541269470E+03	6.1541269470E+03	9.3827000000E-01	0.000E+00	0.0
	51	2	1	2	0	0	-5.7717794437E+01	9.5355748535E+01	3.8241587019E+02	1.1192447568E+03	1.0459650402E+03	0.000E+00	0.0
	1000022	2	5	5	0	0	5.7717794437E+01	-9.5355748535E+01	4.3486335743E+02	9.6873890030E+02	8.5844327404E+02	0.000E+00	0.0
	14	1	6	6	0	0	2.2279668785E+02	-8.2800871690E+01	1.9332108837E+00	4.0264511145E+02	3.2500000000E+02	0.000E+00	0.0
	-14	1	6	6	0	0	-1.6507889341E+02	-1.2554876845E+01	4.3293014654E+02	5.6609378885E+02	3.2500000000E+02	0.000E+00	0.0
	25	2	5	5	0	0	-5.7717794437E+01	9.5355748535E+01	1.0047126939E+01	1.6791769005E+02	1.2518523595E+02	0.000E+00	0.0
	-5	1	9	9	0	501	-6.0433124446E+01	-2.9114418891E+00	2.9780727506E+01	6.7564807074E+01	4.1800000000E+00	0.000E+00	0.0
	5	1	9	9	501	0	2.7153300084E+00	9.8267190424E+01	-1.9733600567E+01	1.0035288298E+02	4.1800000000E+00	0.000E+00	0.0
</event>
<event>
    11  -1  1.0000000E+00  1.0000000E+00  -1.0000000E+00  -1.0000000E+00
	2212	-1	0	0	0	0	0.0000000000E+00	0.0000000000E+00	6.5000000000E+03	6.5000000000E+03	9.3827000000E-01	0.000E+00	0.0
	2212	-1	0	0	0	0	0.0000000000E+00	0.0000000000E+00	-6.5000000000E+03	6.5000000000E+03	9.3827000000E-01	0.000E+00	0.0
	2212	1	0	0	0	0	0.0000000000E+00	0.0000000000E+00	5.6925683574E+03	5.6925683574E+03	9.3827000000E-01	0.000E+00	0.0
	2212	1	0	0	0	0	0.0000000000E+00	0.0000000000E+00	-6.1591169378E+03	6.1591169378E+03	9.3827000000E-01	0.000E+00	0.0
	51	2	1	2	0	0	6.5437669694E+01	1.4592382758E+01	5.9723848207E+02	1.2091930838E+03	1.0492659736E+03	0.000E+00	0.0
	1000022	2	5	5	0	0	-6.5437669694E+01	-1.4592382758E+01	2.5812608691E+02	8.9611331656E+02	8.5550860494E+02	0.000E+00	0.0
	14	1	6	6	0	0	-8.5688383062E+01	2.5910041459E+02	1.9136238324E+02	4.6553204568E+02	3.2500000000E+02	0.000E+00	0.0
	-14	1	6	6	0	0	2.0250713369E+01	-2.7369279734E+02	6.6763703669E+01	4.3058127089E+02	3.2500000000E+02	0.000E+00	0.0
	25	2	5	5	0	0	6.5437669694E+01	1.4592382758E+01	2.0842249353E+02	2.5220138821E+02	1.2518217986E+02	0.000E+00	0.0
	-5	1	9	9	0	501	-8.9279738068E-02	6.0116404772E+01	6.9916336435E+01	9.2302527560E+01	4.1800000000E+00	0.000E+00	0.0
	5	1	9	9	501	0	6.5526949432E+01	-4.5524022014E+01	1.3850615710E+02	1.5989886065E+02	4.1800000000E+00	0.000E+00	0.0
</event>
<event>
    11  -1  1.0000000E+00  1.0000000E+00  -1.0000000E+00  -1.0000000E+00
	2212	-1	0	0	0	0	0.0000000000E+00	0.0000000000E+00	6.5000000000E+03	6.5000000000E+03	9.3827000000E-01	0.000E+00	0.0
	2212	-1	0	0	0	0	0.0000000000E+00	0.0000000000E+00	-6.5000000000E+03	6.5000000000E+03	9.3827000000E-01	0.000E+00	0.0
	2212	1	0	0	0	0	0.0000000000E+00	0.0000000000E+00	5.5647019351E+03	5.5647019351E+03	9.3827000000E-01	0.000E+00	0.0
	2212	1	0	0	0	0	0.0000000000E+00	0.0000000000E+00	-6.2322269157E+03	6.2322269157E+03	9.3827000000E-01	0.000E+00	0.0
	51	2	1	2	0	0	1.8632891344E+01	9.0652401775E+00	5.8312962930E+02	1.1585595013E+03	1.0008948947E+03	0.000E+00	0.0
	1000022	2	5	5	0	0	-1.8632891344E+01	-9.0652401775E+00	6.5656570246E+02	1.0757264517E+03	8.5186824916E+02	0.000E+00	0.0
	14	1	6	6	0	0	1.0679978531E+02	-2.4766771908E+02	3.9970128579E+02	5.8149085210E+02	3.2500000000E+02	0.000E+00	0.0
	-14	1	6	6	0	0	-1.2543267666E+02	2.3860247890E+02	2.5686441667E+02	4.9423559955E+02	3.2500000000E+02	0.000E+00	0.0
	25	2	5	5	0	0	1.8632891344E+01	9.0652401775E+00	1.0959278158E+01	1.2734469755E+02	1.2516869815E+02	0.000E+00	0.0
	-5	1	9	9	0	501	3.8932707577E+01	5.8183704445E+01	2.0757026366E+01	7.3139768429E+01	4.1800000000E+00	0.000E+00	0.0
	5	1	9	9	501	0	-2.0299816233E+01	-4.9118464267E+01	-9.7977482076E+00	5.4204929121E+01	4.1800000000E+00	0.000E+00	0.0
</event>
<event>
    11  -1  1.0000000E+00  1.0000000E+00  -1.0000000E+00  -1.0000000E+00
	2212	-1	0	0	0	0	0.0000000000E+00	0.0000000000E+00	6.5000000000E+03	6.5000000000E+03	9.3827000000E-01	0.000E+00	0.0
	2212	-1	0	0	0	0	0.0000000000E+00	0.0000000000E+00	-6.5000000000E+03	6.5000000000E+03	9.3827000000E-01	0.000E+00	0.0
	2212	1	0	0	0	0	0.0000000000E+00	0.0000000000E+00	6.3176776398E+03	6.3176776398E+03	9.3827000000E-01	0.000E+00	0.0
	2212	1	0	0	0	0	0.0000000000E+00	0.0000000000E+00	-4.9821492221E+03	4.9821492221E+03	9.3827000000E-01	0.000E+00	0.0
	51	2	1	2	0	0	1.0904434408E+02	8.8905784844E+01	-1.3844608139E+03	1.7445570205E+03	1.0521181230E+03	0.000E+00	0.0
	1000022	2	5	5	0	0	-1.0904434408E+02	-8.8905784844E+01	-1.0579761724E+03	1.3647484054E+03	8.5054671888E+02	0.000E+00	0.0
	14	1	6	6	0	0	1.4143882169E+02	1.4123435771E+02	-3.7147702893E+02	5.3251503932E+02	3.2500000000E+02	0.000E+00	0.0
	-14	1	6	6	0	0	-2.5048316577E+02	-2.3014014256E+02	-6.8649914349E+02	8.3223336605E+02	3.2500000000E+02	0.000E+00	0.0
	25	2	5	5	0	0	1.0904434408E+02	8.8905784844E+01	-2.7755224531E+02	3.3542473269E+02	1.2521818907E+02	0.000E+00	0.0
	-5	1	9	9	0	501	3.2467363684E+01	2.5965015498E+00	-1.8375879975E+02	1.8666987012E+02	4.1800000000E+00	0.000E+00	0.0
	5	1	9	9	501	0	7.6576980400E+01	8.6309283294E+01	-9.3793445552E+01	1.4875486257E+02	4.1800000000E+00	0.000E+00	0.0
</event>
<event>
    11  -1  1.0000000E+00  1.0000000E+00  -1.0000000E+00  -1.0000000E+00
	2212	-1	0	0	0	0	0.0000000000E+00	0.0000000000E+00	6.5000000000E+03	6.5000000000E+03	9.3827000000E-01	0.000E+00	0.0
	2212	-1	0	0	0	0	0.0000000000E+00	0.0000000000E+00	-6.5000000000E+03	6.5000000000E+03	9.3827000000E-01	0.000E+00	0.0
	2212	1	0	0	0	0	0.0000000000E+00	0.0000000000E+00	5.2630987372E+03	5.2630987372E+03	9.3827000000E-01	0.000E+00	0.0
	2212	1	0	0	0	0	0.0000000000E+00	0.0000000000E+00	-6.2802067608E+03	6.2802067608E+03	9.3827000000E-01	0.000E+00	0.0
	51	2	1	2	0	0	-7.1969633538E+01	6.2109505725E+01	8.9390261685E+02	1.3767894711E+03	1.0428087746E+03	0.000E+00	0.0
	1000022	2	5	5	0	0	7.1969633538E+01	-6.2109505725E+01	9.6995123172E+02	1.2926080665E+03	8.4911306830E+02	0.000E+00	0.0
	14	1	6	6	0	0	1.6640218652E+02	-1.3140484183E+02	1.7469765746E+02	4.2555985672E+02	3.2500000000E+02	0.000E+00	0.0
	-14	1	6	6	0	0	-9.4432552977E+01	6.9295336100E+01	7.9525357426E+02	8.6704820976E+02	3.2500000000E+02	0.000E+00	0.0
	25	2	5	5	0	0	-7.1969633538E+01	6.2109505725E+01	4.7156791913E+01	1.6408643549E+02	1.2515341160E+02	0.000E+00	0.0
	-5	1	9	9	0	501	-9.0769945956E+01	5.2159277577E+01	-7.7466169902E+00	1.0505834475E+02	4.1800000000E+00	0.000E+00	0.0
	5	1	9	9	501	0	1.8800312418E+01	9.9502281476E+00	5.4903408903E+01	5.9028090740E+01	4.1800000000E+00	0.000E+00	0.0
</event>
<event>
    11  -1  1.0000000E+00  1.0000000E+00  -1.0000000E+00  -1.0000000E+00
	2212	-1	0	0	0	0	0.0000000000E+00	0.0000000000E+00	6.5000000000E+03	6.5000000000E+03	9.3827000000E-01	0.000E+00	0.0
	2212	-1	0	0	0	0	0.0000000000E+00	0.0000000000E+00	-6.5000000000E+03	6.5000000000E+03	9.3827000000E-01	0.000E+00	0.0
	2212	1	0	0	0	0	0.0000000000E+00	0.0000000000E+00	6.2916527629E+03	6.2916527629E+03	9.3827000000E-01	0.000E+00	0.0
	2212	1	0	0	0	0	0.0000000000E+00	0.0000000000E+00	-5.1494942297E+03	5.1494942297E+03	9.3827000000E-01	0.000E+00	0.0
	51	2	1	2	0	0	2.1449614990E+01	-1.1553935431E+02	-9.9308855709E+02	1.4579200576E+03	1.0608942378E+03	0.000E+00	0.0
	1000022	2	5	5	0	0	-2.1449614990E+01	1.1553935431E+02	-1.0845926263E+03	1.3777629645E+03	8.4147501028E+02	0.000E+00	0.0
	14	1	6	6	0	0	1.2587398151E+02	2.7988606559E+02	-4.7241679259E+02	6.5037150526E+02	3.2500000000E+02	0.000E+00	0.0
	-14	1	6	6	0	0	-1.4732359650E+02	-1.6434671128E+02	-6.1217583367E+02	7.2739145920E+02	3.2500000000E+02	0.000E+00	0.0
	25	2	5	5	0	0	2.1449614990E+01	-1.1553935431E+02	-5.7565906956E+01	1.8109004298E+02	1.2518123520E+02	0.000E+00	0.0
	-5	1	9	9	0	501	5.8240566785E+01	-8.3782708496E+01	4.4125001004E+00	1.0221765219E+02	4.1800000000E+00	0.000E+00	0.0
	5	1	9	9	501	0	-3.6790951796E+01	-3.1756645813E+01	-6.1978407057E+01	7.8872390788E+01	4.1800000000E+00	0.000E+00	0.0
</event>
<event>
    11  -1  1.0000000E+00  1.0000000E+00  -1.0000000E+00  -1.0000000E+00
	2212	-1	0	0	0	0	0.0000000000E+00	0.0000000000E+00	6.5000000000E+03	6.5000000000E+03	9.3827000000E-01	0.000E+00	0.0
	2212	-1	0	0	0	0	0.0000000000E+00	0.0000000000E+00	-6.5000000000E+03	6.5000000000E+03	9.3827000000E-01	0.000E+00	0.0
	2212	1	0	0	0	0	0.0000000000E+00	0.0000000000E+00	6.3433568974E+03	6.3433568974E+03	9.3827000000E-01	0.000E+00	0.0
	2212	1	0	0	0	0	0.0000000000E+00	0.0000000000E+00	-4.8465054985E+03	4.8465054985E+03	9.3827000000E-01	0.000E+00	0.0
	51	2	1	2	0	0	-6.4034924645E+01	3.6214371099E+01	-1.3901920015E+03	1.7245520545E+03	1.0178575713E+03	0.000E+00	0.0
	1000022	2	5	5	0	0	6.4034924645E+01	-3.6214371099E+01	-1.3771098654E+03	1.6219372329E+03	8.5371942337E+02	0.000E+00	0.0
	14	1	6	6	0	0	1.7697114982E+02	-2.0896256477E+02	-9.8327405105E+02	1.0711848584E+03	3.2500000000E+02	0.000E+00	0.0
	-14	1	6	6	0	0	-1.1293622518E+02	1.7274819367E+02	-3.9383581430E+02	5.5075237448E+02	3.2500000000E+02	0.000E+00	0.0
	25	2	5	5	0	0	-6.4034924645E+01	3.6214371099E+01	-1.1974153349E+02	1.8820037121E+02	1.2517744459E+02	0.000E+00	0.0
	-5	1	9	9	0	501	-4.1120990081E+01	6.7289059613E+01	-1.2616112857E+02	1.4883835571E+02	4.1800000000E+00	0.000E+00	0.0
	5	1	9	9	501	0	-2.2913934564E+01	-3.1074688514E+01	6.4195950800E+00	3.9362015503E+01	4.1800000000E+00	0.000E+00	0.0
</event>
<event>
    11  -1  1.0000000E+00  1.0000000E+00  -1.0000000E+00  -1.0000000E+00
	2212	-1	0	0	0	0	0.0000000000E+00	0.0000000000E+00	6.5000000000E+03	6.5000000000E+03	9.3827000000E-01	0.000E+00	0.0
	2212	-1	0	0	0	0	0.0000000000E+00	0.0000000000E+00	-6.5000000000E+03	6.5000000000E+03	9.3827000000E-01	0.000E+00	0.0
	2212	1	0	0	0	0	0.0000000000E+00	0.0000000000E+00	5.6573948615E+03	5.6573948615E+03	9.3827000000E-01	0.000E+00	0.0
	2212	1	0	0	0	0	0.0000000000E+00	0.0000000000E+00	-6.1742670293E+03	6.1742670293E+03	9.3827000000E-01	0.000E+00	0.0
	51	2	1	2	0	0	-1.0131038131E+02	-1.5077886247E+01	3.1861389829E+02	1.0999377491E+03	1.0477867625E+03	0.000E+00	0.0
	1000022	2	5	5	0	0	1.0131038131E+02	1.5077886247E+01	6.0366911187E+02	9.8479123297E+02	7.7130165298E+02	0.000E+00	0.0
	14	1	6	6	0	0	7.8052399756E+01	5.6721494163E+01	5.5832723966E+02	6.5319507925E+02	3.2500000000E+02	0.000E+00	0.0
	-14	1	6	6	0	0	2.3257981558E+01	-4.1643607916E+01	4.5341872207E+01	3.3159615372E+02	3.2500000000E+02	0.000E+00	0.0
	25	2	5	5	0	0	-1.0131038131E+02	-1.5077886247E+01	-8.6796944045E+01	1.8354687626E+02	1.2515834080E+02	0.000E+00	0.0
	-5	1	9	9	0	501	-4.7144755175E+01	4.8709581778E+01	-7.7509106848E+00	6.8357884065E+01	4.1800000000E+00	0.000E+00	0.0
	5	1	9	9	501	0	-5.4165626139E+01	-6.3787468025E+01	-7.9046033360E+01	1.1518899219E+02	4.1800000000E+00	0.000E+00	0.0
</event>
<event>
    11  -1  1.0000000E+00  1.0000000E+00  -1.0000000E+00  -1.0000000E+00
	2212	-1	0	0	0	0	0.0000000000E+00	0.0000000000E+00	6.5000000000E+03	6.5000000000E+03	9.3827000000E-01	0.000E+00	0.0
	2212	-1	0	0	0	0	0.0000000000E+00	0.0000000000E+00	-6.5000000000E+03	6.5000000000E+03	9.3827000000E-01	0.000E+00	0.0
	2212	1	0	0	0	0	0.0000000000E+00	0.0000000000E+00	6.2163129169E+03	6.2163129169E+03	9.3827000000E-01	0.000E+00	0.0
	2212	1	0	0	0	0	0.0000000000E+00	0.0000000000E+00	-5.5457158004E+03	5.5457158004E+03	9.3827000000E-01	0.000E+00	0.0
	51	2	1	2	0	0	5.7202511382E+01	-1.1489958115E+02	-6.5398524724E+02	1.2357358734E+03	1.0406115530E+03	0.000E+00	0.0
	1000022	2	5	5	0	0	-5.7202511382E+01	1.1489958115E+02	-5.7629562571E+02	1.0354525242E+03	8.5062990813E+02	0.000E+00	0.0
	14	1	6	6	0	0	9.9643305655E+01	-1.1784160334E+00	-5.6113766262E+02	6.5607214042E+02	3.2500000000E+02	0.000E+00	0.0
	-14	1	6	6	0	0	-1.5684581704E+02	1.1607799718E+02	-1.5157963091E+01	3.7938038378E+02	3.2500000000E+02	0.000E+00	0.0
	25	2	5	5	0	0	5.7202511382E+01	-1.1489958115E+02	-9.4301490749E+01	2.0251875853E+02	1.2508811032E+02	0.000E+00	0.0
	-5	1	9	9	0	501	7.6992539266E+01	-1.3004636447E+02	-6.7151637296E+01	1.6542890559E+02	4.1800000000E+00	0.000E+00	0.0
	5	1	9	9	501	0	-1.9790027884E+01	1.5146783318E+01	-2.7149853453E+01	3.7089852939E+01	4.1800000000E+00	0.000E+00	0.0
</event>
<event>
    11  -1  1.0000000E+00  1.0000000E+00  -1.0000000E+00  -1.0000000E+00
	2212	-1	0	0	0	0	0.0000000000E+00	0.0000000000E+00	6.5000000000E+03	6.5000000000E+03	9.3827000000E-01	0.000E+00	0.0
	2212	-1	0	0	0	0	0.0000000000E+00	0.0000000000E+00	-6.5000000000E+03	6.5000000000E+03	9.3827000000E-01	0.000E+00	0.0
	2212	1	0	0	0	0	0.0000000000E+00	0.0000000000E+00	6.0357173242E+03	6.0357173242E+03	9.3827000000E-01	0.000E+00	0.0
	2212	1	0	0	0	0	0.0000000000E+00	0.0000000000E+00	-5.9132076167E+03	5.9132076167E+03	9.3827000000E-01	0.000E+00	0.0
	51	2	1	2	0	0	1.1599576199E+02	4.2418642108E+00	-1.2660700850E+02	1.0579473032E+03	1.0439109883E+03	0.000E+00	0.0
	1000022	2	5	5	0	0	-1.1599576199E+02	-4.2418642108E+00	-9.9142130500E+01	8.7887300709E+02	8.6551463901E+02	0.000E+00	0.0
	14	1	6	6	0	0	-2.2476285825E+02	-6.1306496205E+01	1.7481589554E+02	4.3642001130E+02	3.2500000000E+02	0.000E+00	0.0
	-14	1	6	6	0	0	1.0876709626E+02	5.7064631994E+01	-2.7395802604E+02	4.4245299579E+02	3.2500000000E+02	0.000E+00	0.0
	25	2	5	5	0	0	1.1599576199E+02	4.2418642108E+00	-2.3367576964E+01	1.7220205202E+02	1.2503796566E+02	0.000E+00	0.0
	-5	1	9	9	0	501	-1.1546092530E+01	-1.7147145218E+00	3.0983000279E+01	3.3371712645E+01	4.1800000000E+00	0.000E+00	0.0
	5	1	9	9	501	0	1.2754185452E+02	5.9565787326E+00	-5.4350577243E+01	1.3883033938E+02	4.1800000000E+00	0.000E+00	0.0
</event>
<event>
    11  -1  1.0000000E+00  1.0000000E+00  -1.0000000E+00  -1.0000000E+00
	2212	-1	0	0	0	0	0.0000000000E+00	0.0000000000E+00	6.5000000000E+03	6.5000000000E+03	9.3827000000E-01	0.000E+00	0.0
	2212	-1	0	0	0	0	0.0000000000E+00	0.0000000000E+00	-6.5000000000E+03	6.5000000000E+03	9.3827000000E-01	0.000E+00	0.0
	2212	1	0	0	0	0	0.0000000000E+00	0.0000000000E+00	5.7351711090E+03	5.7351711090E+03	9.3827000000E-01	0.000E+00	0.0
	2212	1	0	0	0	0	0.0000000000E+00	0.0000000000E+00	-6.1398250656E+03	6.1398250656E+03	9.3827000000E-01	0.000E+00	0.0
	51	2	1	2	0	0	-3.4630806934E+01	2.3037626120E+01	2.8391787326E+02	1.0882224801E+03	1.0497089037E+03	0.000E+00	0.0
	1000022	2	5	5	0	0	3.4630806934E+01	-2.3037626120E+01	4.6062059997E+02	9.8171559105E+02	8.6594696118E+02	0.000E+00	0.0
	14	1	6	6	0	0	9.3075040449E+01	1.9754613885E+02	2.5137985090E+01	3.9235743707E+02	3.2500000000E+02	0.000E+00	0.0
	-14	1	6	6	0	0	-5.8444233515E+01	-2.2058376497E+02	4.3548261488E+02	5.8935815398E+02	3.2500000000E+02	0.000E+00	0.0
	25	2	5	5	0	0	-3.4630806934E+01	2.3037626120E+01	-5.5966643319E+01	1.4328823432E+02	1.2517678668E+02	0.000E+00	0.0
	-5	1	9	9	0	501	9.2668427853E+00	-3.6334486660E+01	-5.8129192141E+01	6.9300394479E+01	4.1800000000E+00	0.000E+00	0.0
	5	1	9	9	501	0	-4.3897649719E+01	5.9372112780E+01	2.1625488224E+00	7.3987839840E+01	4.1800000000E+00	0.000E+00	0.0
</event>
<event>
    11  -1  1.0000000E+00  1.0000000E+00  -1.0000000E+00  -1.0000000E+00
	2212	-1	0	0	0	0	0.0000000000E+00	0.0000000000E+00	6.5000000000E+03	6.5000000000E+03	9.3827000000E-01	0.000E+00	0.0
	2212	-1	0	0	0	0	0.0000000000E+00	0.0000000000E+00	-6.5000000000E+03	6.5000000000E+03	9.3827000000E-01	0.000E+00	0.0
	2212	1	0	0	0	0	0.0000000000E+00	0.0000000000E+00	5.3660031990E+03	5.3660031990E+03	9.3827000000E-01	0.000E+00	0.0
	2212	1	0	0	0	0	0.0000000000E+00	0.0000000000E+00	-6.2574702492E+03	6.2574702492E+03	9.3827000000E-01	0.000E+00	0.0
	51	2	1	2	0	0	-5.6123496321E+01	8.7886267383E+01	1.0095150573E+03	1.4594883831E+03	1.0488621675E+03	0.000E+00	0.0
	1000022	2	5	5	0	0	5.6123496321E+01	-8.7886267383E+01	6.2472418033E+02	1.0639629350E+03	8.5490524777E+02	0.000E+00	0.0
	14	1	6	6	0	0	-2.1234769853E+01	2.2905689138E+02	3.3074088938E+02	5.1762197678E+02	3.2500000000E+02	0.000E+00	0.0
	-14	1	6	6	0	0	7.7358266174E+01	-3.1694315877E+02	2.9398329096E+02	5.4634095819E+02	3.2500000000E+02	0.000E+00	0.0
	25	2	5	5	0	0	-5.6123496321E+01	8.7886267383E+01	2.6674286985E+02	3.1256361691E+02	1.2518152087E+02	0.000E+00	0.0
	-5	1	9	9	0	501	-9.2915785291E+01	3.8143664628E+01	1.7525709442E+02	2.0204158941E+02	4.1800000000E+00	0.000E+00	0.0
	5	1	9	9	501	0	3.6792288970E+01	4.9742602755E+01	9.1485775428E+01	1.1052202750E+02	4.1800000000E+00	0.000E+00	0.0
</event>
<event>
    11  -1  1.0000000E+00  1.0000000E+00  -1.0000000E+00  -1.0000000E+00
	2212	-1	0	0	0	0	0.0000000000E+00	0.0000000000E+00	6.5000000000E+03	6.5000000000E+03	9.3827000000E-01	0.000E+00	0.0
	2212	-1	0	0	0	0	0.0000000000E+00	0.0000000000E+00	-6.5000000000E+03	6.5000000000E+03	9.3827000000E-01	0.000E+00	0.0
	2212	1	0	0	0	0	0.0000000000E+00	0.0000000000E+00	6.0817310662E+03	6.0817310662E+03	9.3827000000E-01	0.000E+00	0.0
	2212	1	0	0	0	0	0.0000000000E+00	0.0000000000E+00	-5.8398727107E+03	5.8398727107E+03	9.3827000000E-01	0.000E+00	0.0
	51	2	1	2	0	0	-3.0553814127E+01	1.0124648438E+02	-1.4177224326E+02	1.0657047926E+03	1.0509248069E+03	0.000E+00	0.0
	1000022	2	5	5	0	0	3.0553814127E+01	-1.0124648438E+02	-3.0009342504E+02	9.0448253822E+02	8.4666889162E+02	0.000E+00	0.0
	14	1	6	6	0	0	1.0641932842E+02	-3.0291520599E+02	-1.0632505981E+02	4.6905512877E+02	3.2500000000E+02	0.000E+00	0.0
	-14	1	6	6	0	0	-7.5865514289E+01	2.0166872161E+02	-1.9376836523E+02	4.3542740945E+02	3.2500000000E+02	0.000E+00	0.0
	25	2	5	5	0	0	-3.0553814127E+01	1.0124648438E+02	5.8235069571E+01	1.7391368484E+02	1.2518091024E+02	0.000E+00	0.0
	-5	1	9	9	0	501	1.1986756698E+00	1.0936409677E+02	7.8917566844E+01	1.3493478885E+02	4.1800000000E+00	0.000E+00	0.0
	5	1	9	9	501	0	-3.1752489797E+01	-8.1176123859E+00	-2.0682497273E+01	3.8978895990E+01	4.1800000000E+00	0.000E+00	0.0
</event>
<event>
    11  -1  1.0000000E+00  1.0000000E+00  -1.0000000E+00  -1.0000000E+00
	2212	-1	0	0	0	0	0.0000000000E+00	0.0000000000E+00	6.5000000000E+03	6.5000000000E+03	9.3827000000E-01	0.000E+00	0.0
	2212	-1	0	0	0	0	0.0000000000E+00	0.0000000000E+00	-6.5000000000E+03	6.5000000000E+03	9.3827000000E-01	0.000E+00	0.0
	2212	1	0	0	0	0	0.0000000000E+00	0.0000000000E+00	6.3059197240E+03	6.3059197240E+03	9.3827000000E-01	0.000E+00	0.0
	2212	1	0	0	0	0	0.0000000000E+00	0.0000000000E+00	-5.0505924948E+03	5.0505924948E+03	9.3827000000E-01	0.000E+00	0.0
	51	2	1	2	0	0	-1.4256395765E+02	-2.4442825361E+01	-1.1862092476E+03	1.5978798289E+03	1.0607571045E+03	0.000E+00	0.0
	1000022	2	5	5	0	0	1.4256395765E+02	2.4442825361E+01	-1.1026801415E+03	1.3987585425E+03	8.4835136119E+02	0.000E+00	0.0
	14	1	6	6	0	0	3.0007355957E+02	-6.3473754059E+01	-8.1217770761E+02	9.2700091011E+02	3.2500000000E+02	0.000E+00	0.0
	-14	1	6	6	0	0	-1.5750960192E+02	8.7916579420E+01	-2.9050243393E+02	4.7175763243E+02	3.2500000000E+02	0.000E+00	0.0
	25	2	5	5	0	0	-1.4256395765E+02	-2.4442825361E+01	-1.5264708761E+02	2.4472923865E+02	1.2517720703E+02	0.000E+00	0.0
	-5	1	9	9	0	501	-4.7633378783E+01	-4.2760322113E+01	-1.3056187721E+02	1.4546910360E+02	4.1800000000E+00	0.000E+00	0.0
	5	1	9	9	501	0	-9.4930578869E+01	1.8317496752E+01	-2.2085210403E+01	9.9260135051E+01	4.1800000000E+00	0.000E+00	0.0
</event>
<event>
    11  -1  1.0000000E+00  1.0000000E+00  -1.0000000E+00  -1.0000000E+00
	2212	-1	0	0	0	0	0.0000000000E+00	0.0000000000E+00	6.5000000000E+03	6.5000000000E+03	9.3827000000E-01	0.000E+00	0.0
	2212	-1	0	0	0	0	0.0000000000E+00	0.0000000000E+00	-6.5000000000E+03	6.5000000000E+03	9.3827000000E-01	0.000E+00	0.0
	2212	1	0	0	0	0	0.0000000000E+00	0.0000000000E+00	5.9573700202E+03	5.9573700202E+03	9.3827000000E-01	0.000E+00	0.0
	2212	1	0	0	0	0	0.0000000000E+00	0.0000000000E+00	-5.9925753504E+03	5.9925753504E+03	9.3827000000E-01	0.000E+00	0.0
	51	2	1	2	0	0	1.0967267739E+01	5.5821503690E-01	6.3448105889E+01	1.0514378556E+03	1.0494642965E+03	0.000E+00	0.0
	1000022	2	5	5	0	0	-1.0967267739E+01	-5.5821503690E-01	2.6558387150E+00	9.2021679424E+02	9.2014743512E+02	0.000E+00	0.0
	14	1	6	6	0	0	2.3311664187E+02	2.2134835244E+02	3.0140962236E+00	4.5713515137E+02	3.2500000000E+02	0.000E+00	0.0
	-14	1	6	6	0	0	-2.4408390961E+02	-2.2190656748E+02	-3.5825750861E-01	4.6308164287E+02	3.2500000000E+02	0.000E+00	0.0
	25	2	5	5	0	0	1.0967267739E+01	5.5821503690E-01	3.2549491519E+01	1.2983783519E+02	1.2521102781E+02	0.000E+00	0.0
	-5	1	9	9	0	501	2.3801567599E+01	-4.9572250389E+01	5.0628508784E+01	7.4864149835E+01	4.1800000000E+00	0.000E+00	0.0
	5	1	9	9	501	0	-1.2834299860E+01	5.0130465426E+01	-1.8079017265E+01	5.4973685359E+01	4.1800000000E+00	0.000E+00	0.0
</event>
<event>
    11  -1  1.0000000E+00  1.0000000E+00  -1.0000000E+00  -1.0000000E+00
	2212	-1	0	0	0	0	0.0000000000E+00	0.0000000000E+00	6.5000000000E+03	6.5000000000E+03	9.3827000000E-01	0.000E+00	0.0
	2212	-1	0	0	0	0	0.0000000000E+00	0.0000000000E+00	-6.5000000000E+03	6.5000000000E+03	9.3827000000E-01	0.000E+00	0.0
	2212	1	0	0	0	0	0.0000000000E+00	0.0000000000E+00	5.4612728095E+03	5.4612728095E+03	9.3827000000E-01	0.000E+00	0.0
	2212	1	0	0	0	0	0.0000000000E+00	0.0000000000E+00	-6.2348531343E+03	6.2348531343E+03	9.3827000000E-01	0.000E+00	0.0
	51	2	1	2	0	0	1.4341322586E+02	-8.6223072136E+00	7.9965226906E+02	1.3273079840E+03	1.0496004171E+03	0.000E+00	0.0
	1000022	2	5	5	0	0	-1.4341322586E+02	8.6223072136E+00	6.1391508191E+02	1.0552678604E+03	8.4620141325E+02	0.000E+00	0.0
	14	1	6	6	0	0	-7.9297917454E+00	-1.9100793770E+02	5.1555656554E+02	6.3872567361E+02	3.2500000000E+02	0.000E+00	0.0
	-14	1	6	6	0	0	-1.3548343411E+02	1.9963024491E+02	9.8358516372E+01	4.1654218675E+02	3.2500000000E+02	0.000E+00	0.0
	25	2	5	5	0	0	1.4341322586E+02	-8.6223072136E+00	1.5966524292E+02	2.4860619585E+02	1.2518128168E+02	0.000E+00	0.0
	-5	1	9	9	0	501	2.0964410044E+01	4.9348909154E+01	5.8559714451E+01	7.9508074305E+01	4.1800000000E+00	0.000E+00	0.0
	5	1	9	9	501	0	1.2244881581E+02	-5.7971216367E+01	1.0110552847E+02	1.6909812154E+02	4.1800000000E+00	0.000E+00	0.0
</event>
<event>
    11  -1  1.0000000E+00  1.0000000E+00  -1.0000000E+00  -1.0000000E+00
	2212	-1	0	0	0	0	0.0000000000E+00	0.0000000000E+00	6.5000000000E+03	6.5000000000E+03	9.3827000000E-01	0.000E+00	0.0
	2212	-1	0	0	0	0	0.0000000000E+00	0.0000000000E+00	-6.5000000000E+03	6.5000000000E+03	9.3827000000E-01	0.000E+00	0.0
	2212	1	0	0	0	0	0.0000000000E+00	0.0000000000E+00	5.9169181404E+03	5.9169181404E+03	9.3827000000E-01	0.000E+00	0.0
	2212	1	0	0	0	0	0.0000000000E+00	0.0000000000E+00	-6.0081694182E+03	6.0081694182E+03	9.3827000000E-01	0.000E+00	0.0
	51	2	1	2	0	0	8.3316853878E+01	1.4057281415E+02	9.7367760617E+01	1.0877926531E+03	1.0710321942E+03	0.000E+00	0.0
	1000022	2	5	5	0	0	-8.3316853878E+01	-1.4057281415E+02	6.8649090980E+01	8.6783562428E+02	8.4954314714E+02	0.000E+00	0.0
	14	1	6	6	0	0	-2.0857610960E+02	-2.4349853546E+02	1.7573349513E+02	4.8918584564E+02	3.2500000000E+02	0.000E+00	0.0
	-14	1	6	6	0	0	1.2525925572E+02	1.0292572131E+02	-1.0708440415E+02	3.7864977864E+02	3.2500000000E+02	0.000E+00	0.0
	25	2	5	5	0	0	8.3316853878E+01	1.4057281415E+02	2.2602186850E+01	2.0707681715E+02	1.2517002490E+02	0.000E+00	0.0
	-5	1	9	9	0	501	8.0611578288E+01	2.9824520221E+01	-1.9941195129E+01	8.8333754724E+01	4.1800000000E+00	0.000E+00	0.0
	5	1	9	9	501	0	2.7052755905E+00	1.1074829393E+02	4.2543381980E+01	1.1874306242E+02	4.1800000000E+00	0.000E+00	0.0
</event>
<event>
    11  -1  1.0000000E+00  1.0000000E+00  -1.0000000E+00  -1.0000000E+00
	2212	-1	0	0	0	0	0.0000000000E+00	0.0000000000E+00	6.5000000000E+03	6.5000000000E+03	9.3827000000E-01	0.000E+00	0.0
	2212	-1	0	0	0	0	0.0000000000E+00	0.0000000000E+00	-6.5000000000E+03	6.5000000000E+03	9.3827000000E-01	0.000E+00	0.0
	2212	1	0	0	0	0	0.0000000000E+00	0.0000000000E+00	6.2844959565E+03	6.2844959565E+03	9.3827000000E-01	0.000E+00	0.0
	2212	1	0	0	0	0	0.0000000000E+00	0.0000000000E+00	-5.2189439698E+03	5.2189439698E+03	9.3827000000E-01	0.000E+00	0.0
	51	2	1	2	0	0	2.0885074091E+01	-7.7367089628E+01	-9.2100886502E+02	1.3996321661E+03	1.0508525196E+03	0.000E+00	0.0
	1000022	2	5	5	0	0	-2.0885074091E+01	7.7367089628E+01	-1.0326886922E+03	1.3443219505E+03	8.5693273875E+02	0.000E+00	0.0
	14	1	6	6	0	0	2.0740764247E+02	1.7037374152E+02	-3.4474904042E+02	5.4453837590E+02	3.2500000000E+02	0.000E+00	0.0
	-14	1	6	6	0	0	-2.2829271656E+02	-9.3006651893E+01	-6.8793965177E+02	7.9978357460E+02	3.2500000000E+02	0.000E+00	0.0
	25	2	5	5	0	0	2.0885074091E+01	-7.7367089628E+01	-3.2863294496E+01	1.5223812324E+02	1.2519823148E+02	0.000E+00	0.0
	-5	1	9	9	0	501	5.6370213528E+01	6.1565037751E+00	-2.1037811098E+01	6.0626441490E+01	4.1800000000E+00	0.000E+00	0.0
	5	1	9	9	501	0	-3.5485139437E+01	-8.3523593403E+01	-1.1825483398E+01	9.1611681752E+01	4.1800000000E+00	0.000E+00	0.0
</event>
<event>
    11  -1  1.0000000E+00  1.0000000E+00  -1.0000000E+00  -1.0000000E+00
	2212	-1	0	0	0	0	0.0000000000E+00	0.0000000000E+00	6.5000000000E+03	6.5000000000E+03	9.3827000000E-01	0.000E+00	0.0
	2212	-1	0	0	0	0	0.0000000000E+00	0.0000000000E+00	-6.5000000000E+03	6.5000000000E+03	9.3827000000E-01	0.000E+00	0.0
	2212	1	0	0	0	0	0.0000000000E+00	0.0000000000E+00	5.1734227794E+03	5.1734227794E+03	9.3827000000E-01	0.000E+00	0.0
	2212	1	0	0	0	0	0.0000000000E+00	0.0000000000E+00	-6.2719953358E+03	6.2719953358E+03	9.3827000000E-01	0.000E+00	0.0
	51	2	1	2	0	0	2.1666958520E+02	-7.5485938582E+01	1.2149911242E+03	1.6549049649E+03	1.0999378050E+03	0.000E+00	0.0
	1000022	2	5	5	0	0	-2.1666958520E+02	7.5485938582E+01	7.3879661173E+02	1.1098855839E+03	7.9585283797E+02	0.000E+00	0.0
	14	1	6	6	0	0	2.5487407203E+01	2.5088629277E+01	5.9124996261E+02	6.7563345501E+02	3.2500000000E+02	0.000E+00	0.0
	-14	1	6	6	0	0	-2.4215699241E+02	5.0397309305E+01	1.4754664912E+02	4.3425212886E+02	3.2500000000E+02	0.000E+00	0.0
	25	2	5	5	0	0	2.1666958520E+02	-7.5485938582E+01	3.5977594466E+02	4.4469630094E+02	1.2518879197E+02	0.000E+00	0.0
	-5	1	9	9	0	501	1.9108646938E+01	-3.4672970959E+01	1.0247158950E+01	4.1107565842E+01	4.1800000000E+00	0.000E+00	0.0
	5	1	9	9	501	0	1.9756093826E+02	-4.0812967623E+01	3.4952878571E+02	4.0358873509E+02	4.1800000000E+00	0.000E+00	0.0
</event>
<event>
    11  -1  1.0000000E+00  1.0000000E+00  -1.0000000E+00  -1.0000000E+00
	2212	-1	0	0	0	0	0.0000000000E+00	0.0000000000E+00	6.5000000000E+03	6.5000000000E+03	9.3827000000E-01	0.000E+00	0.0
	2212	-1	0	0	0	0	0.0000000000E+00	0.0000000000E+00	-6.5000000000E+03	6.5000000000E+03	9.3827000000E-01	0.000E+00	0.0
	2212	1	0	0	0	0	0.0000000000E+00	0.0000000000E+00	5.8718042145E+03	5.8718042145E+03	9.3827000000E-01	0.000E+00	0.0
	2212	1	0	0	0	0	0.0000000000E+00	0.0000000000E+00	-6.0531956525E+03	6.0531956525E+03	9.3827000000E-01	0.000E+00	0.0
	51	2	1	2	0	0	-6.4663045192E+01	8.0494857371E+01	3.1250550998E+02	1.1095237075E+03	1.0595859720E+03	0.000E+00	0.0
	1000022	2	5	5	0	0	6.4663045192E+01	-8.0494857371E+01	1.7144555624E+01	8.4411792119E+02	8.3760396227E+02	0.000E+00	0.0
	14	1	6	6	0	0	1.1928055825E+00	-2.2883845764E+02	1.9189506507E+02	4.4138099017E+02	3.2500000000E+02	0.000E+00	0.0
	-14	1	6	6	0	0	6.3470239610E+01	1.4834360027E+02	-1.7475050944E+02	4.0273693102E+02	3.2500000000E+02	0.000E+00	0.0
	25	2	5	5	0	0	-6.4663045192E+01	8.0494857371E+01	1.6424688238E+02	2.3088221181E+02	1.2517518077E+02	0.000E+00	0.0
	-5	1	9	9	0	501	-9.9200392992E+01	7.8055403250E+01	1.3912991614E+02	1.8790415086E+02	4.1800000000E+00	0.000E+00	0.0
	5	1	9	9	501	0	3.4537347799E+01	2.4394541209E+00	2.5116966242E+01	4.2978060946E+01	4.1800000000E+00	0.000E+00	0.0
</event>
<event>
    11  -1  1.0000000E+00  1.0000000E+00  -1.0000000E+00  -1.0000000E+00
	2212	-1	0	0	0	0	0.0000000000E+00	0.0000000000E+00	6.5000000000E+03	6.5000000000E+03	9.3827000000E-01	0.000E+00	0.0
	2212	-1	0	0	0	0	0.0000000000E+00	0.0000000000E+00	-6.5000000000E+03	6.5000000000E+03	9.3827000000E-01	0.000E+00	0.0
	2212	1	0	0	0	0	0.0000000000E+00	0.0000000000E+00	6.2454049270E+03	6.2454049270E+03	9.3827000000E-01	0.000E+00	0.0
	2212	1	0	0	0	0	0.0000000000E+00	0.0000000000E+00	-5.3450468142E+03	5.3450468142E+03	9.3827000000E-01	0.000E+00	0.0
	51	2	1	2	0	0	1.6860967473E+02	-1.7832410060E+01	-9.2591986002E+02	1.4360558371E+03	1.0845190467E+03	0.000E+00	0.0
	1000022	2	5	5	0	0	-1.6860967473E+02	1.7832410060E+01	-7.1056934755E+02	1.1259364196E+03	8.5678282313E+02	0.000E+00	0.0
	14	1	6	6	0	0	-3.1253752067E+01	-1.6995610022E+02	-6.1216525295E+02	7.1430607581E+02	3.2500000000E+02	0.000E+00	0.0
	-14	1	6	6	0	0	-1.3735592266E+02	1.8778851028E+02	-9.8404094599E+01	4.1163034377E+02	3.2500000000E+02	0.000E+00	0.0
	25	2	5	5	0	0	1.6860967473E+02	-1.7832410060E+01	-1.8978876521E+02	2.8361183923E+02	1.2517460881E+02	0.000E+00	0.0
	-5	1	9	9	0	501	-1.1765654522E+01	2.8588670031E+00	-5.7557297061E+01	5.8965401651E+01	4.1800000000E+00	0.000E+00	0.0
	5	1	9	9	501	0	1.8037532925E+02	-2.0691277064E+01	-1.3223146815E+02	2.2464643758E+02	4.1800000000E+00	0.000E+00	0.0
</event>
<event>
    11  -1  1.0000000E+00  1.0000000E+00  -1.0000000E+00  -1.0000000E+00
	2212	-1	0	0	0	0	0.0000000000E+00	0.0000000000E+00	6.5000000000E+03	6.5000000000E+03	9.3827000000E-01	0.000E+00	0.0
	2212	-1	0	0	0	0	0.0000000000E+00	0.0000000000E+00	-6.5000000000E+03	6.5000000000E+03	9.3827000000E-01	0.000E+00	0.0
	2212	1	0	0	0	0	0.0000000000E+00	0.0000000000E+00	6.2790629124E+03	6.2790629124E+03	9.3827000000E-01	0.000E+00	0.0
	2212	1	0	0	0	0	0.0000000000E+00	0.0000000000E+00	-5.2664492632E+03	5.2664492632E+03	9.3827000000E-01	0.000E+00	0.0
	51	2	1	2	0	0	1.7067351803E+01	-5.2950781697E+01	-1.2265684507E+03	1.6117424337E+03	1.0441017329E+03	0.000E+00	0.0
	1000022	2	5	5	0	0	-1.7067351803E+01	5.2950781697E+01	-6.1603324096E+02	1.0349152799E+03	8.2973345283E+02	0.000E+00	0.0
	14	1	6	6	0	0	-7.9341133483E+01	-8.5726942608E+01	-2.8549204439E+01	3.4653164534E+02	3.2500000000E+02	0.000E+00	0.0
	-14	1	6	6	0	0	6.2273781680E+01	1.3867772430E+02	-5.8748403652E+02	6.8838363451E+02	3.2500000000E+02	0.000E+00	0.0
	25	2	5	5	0	0	1.7067351803E+01	-5.2950781697E+01	-3.9658040829E+02	4.1957254452E+02	1.2517995084E+02	0.000E+00	0.0
	-5	1	9	9	0	501	2.6954938079E+01	-7.6211093450E+01	-1.3999937270E+02	1.6171578837E+02	4.1800000000E+00	0.000E+00	0.0
	5	1	9	9	501	0	-9.8875862755E+00	2.3260311754E+01	-2.5658103559E+02	2.5785675614E+02	4.1800000000E+00	0.000E+00	0.0
</event>
<event>
    11  -1  1.0000000E+00  1.0000000E+00  -1.0000000E+00  -1.0000000E+00
	2212	-1	0	0	0	0	0.0000000000E+00	0.0000000000E+00	6.5000000000E+03	6.5000000000E+03	9.3827000000E-01	0.000E+00	0.0
	2212	-1	0	0	0	0	0.0000000000E+00	0.0000000000E+00	-6.5000000000E+03	6.5000000000E+03	9.3827000000E-01	0.000E+00	0.0
	2212	1	0	0	0	0	0.0000000000E+00	0.0000000000E+00	4.8860999354E+03	4.8860999354E+03	9.3827000000E-01	0.000E+00	0.0
	2212	1	0	0	0	0	0.0000000000E+00	0.0000000000E+00	-6.3298788822E+03	6.3298788822E+03	9.3827000000E-01	0.000E+00	0.0
	51	2	1	2	0	0	-2.3120724169E+02	-6.3054532202E+01	1.3332486695E+03	1.7126641847E+03	1.0479665701E+03	0.000E+00	0.0
	1000022	2	5	5	0	0	2.3120724169E+02	6.3054532202E+01	1.2042144197E+03	1.4227797216E+03	7.1884428430E+02	0.000E+00	0.0
	14	1	6	6	0	0	7.8128566525E+01	-1.0698500639E+02	6.7664503924E+02	7.6224889217E+02	3.2500000000E+02	0.000E+00	0.0
	-14	1	6	6	0	0	1.5307867517E+02	1.7003953859E+02	5.2756938045E+02	6.6053082946E+02	3.2500000000E+02	0.000E+00	0.0
	25	2	5	5	0	0	-2.3120724169E+02	-6.3054532202E+01	2.3956452708E+02	3.6124146077E+02	1.2518613223E+02	0.000E+00	0.0
	-5	1	9	9	0	501	-1.3551161799E+00	-3.2878753462E+01	9.2621227116E+00	3.4439919950E+01	4.1800000000E+00	0.000E+00	0.0
	5	1	9	9	501	0	-2.2985212551E+02	-3.0175778741E+01	2.3030240437E+02	3.2680154082E+02	4.1800000000E+00	0.000E+00	0.0
</event>
<event>
    11  -1  1.0000000E+00  1.0000000E+00  -1.0000000E+00  -1.0000000E+00
	2212	-1	0	0	0	0	0.0000000000E+00	0.0000000000E+00	6.5000000000E+03	6.5000000000E+03	9.3827000000E-01	0.000E+00	0.0
	2212	-1	0	0	0	0	0.0000000000E+00	0.0000000000E+00	-6.5000000000E+03	6.5000000000E+03	9.3827000000E-01	0.000E+00	0.0
	2212	1	0	0	0	0	0.0000000000E+00	0.0000000000E+00	5.3503410084E+03	5.3503410084E+03	9.3827000000E-01	0.000E+00	0.0
	2212	1	0	0	0	0	0.0000000000E+00	0.0000000000E+00	-6.2537206673E+03	6.2537206673E+03	9.3827000000E-01	0.000E+00	0.0
	51	2	1	2	0	0	1.5749574889E+02	1.8048648634E+01	8.7231234358E+02	1.3851384358E+03	1.0642128532E+03	0.000E+00	0.0
	1000022	2	5	5	0	0	-1.5749574889E+02	-1.8048648634E+01	7.7125848418E+02	1.1545728411E+03	8.4443361568E+02	0.000E+00	0.0
	14	1	6	6	0	0	1.9357696171E+02	-2.3779201724E+01	3.0492352720E+02	4.8645744725E+02	3.2500000000E+02	0.000E+00	0.0
	-14	1	6	6	0	0	-3.5107271060E+02	5.7305530902E+00	4.6633495698E+02	6.6811539383E+02	3.2500000000E+02	0.000E+00	0.0
	25	2	5	5	0	0	1.5749574889E+02	1.8048648634E+01	1.3212117476E+02	2.4136548318E+02	1.2518237503E+02	0.000E+00	0.0
	-5	1	9	9	0	501	2.4604754279E+01	3.5331503033E+01	-1.1630110713E+01	4.4793313283E+01	4.1800000000E+00	0.000E+00	0.0
	5	1	9	9	501	0	1.3289099461E+02	-1.7282854400E+01	1.4375128547E+02	1.9657216990E+02	4.1800000000E+00	0.000E+00	0.0
</event>
<event>
    11  -1  1.0000000E+00  1.0000000E+00  -1.0000000E+00  -1.0000000E+00
	2212	-1	0	0	0	0	0.0000000000E+00	0.0000000000E+00	6.5000000000E+03	6.5000000000E+03	9.3827000000E-01	0.000E+00	0.0
	2212	-1	0	0	0	0	0.0000000000E+00	0.0000000000E+00	-6.5000000000E+03	6.5000000000E+03	9.3827000000E-01	0.000E+00	0.0
	2212	1	0	0	0	0	0.0000000000E+00	0.0000000000E+00	6.1348652778E+03	6.1348652778E+03	9.3827000000E-01	0.000E+00	0.0
	2212	1	0	0	0	0	0.0000000000E+00	0.0000000000E+00	-5.7893496050E+03	5.7893496050E+03	9.3827000000E-01	0.000E+00	0.0
	51	2	1	2	0	0	1.0980193042E+01	1.0024104207E+02	-3.7376269708E+02	1.0898623414E+03	1.0187897419E+03	0.000E+00	0.0
	1000022	2	5	5	0	0	-1.0980193042E+01	-1.0024104207E+02	-2.6388791646E+02	8.9550357399E+02	8.4977702218E+02	0.000E+00	0.0
	14	1	6	6	0	0	-3.5353860700E+01	2.2136450707E+02	-8.4576614552E+01	4.0377016257E+02	3.2500000000E+02	0.000E+00	0.0
	-14	1	6	6	0	0	2.4373667658E+01	-3.2160554913E+02	-1.7931130191E+02	4.9173341142E+02	3.2500000000E+02	0.000E+00	0.0
	25	2	5	5	0	0	1.0980193042E+01	1.0024104207E+02	-8.1627756352E+01	1.8028154322E+02	1.2517792564E+02	0.000E+00	0.0
	-5	1	9	9	0	501	5.4041848841E+01	5.9854679039E+01	-1.6251360012E+00	8.0766437930E+01	4.1800000000E+00	0.000E+00	0.0
	5	1	9	9	501	0	-4.3061655798E+01	4.0386363028E+01	-8.0002620350E+01	9.9515105294E+01	4.1800000000E+00	0.000E+00	0.0
</event>
<event>
    11  -1  1.0000000E+00  1.0000000E+00  -1.0000000E+00  -1.0000000E+00
	2212	-1	0	0	0	0	0.0000000000E+00	0.0000000000E+00	6.5000000000E+03	6.5000000000E+03	9.3827000000E-01	0.000E+00	0.0
	2212	-1	0	0	0	0	0.0000000000E+00	0.0000000000E+00	-6.5000000000E+03	6.5000000000E+03	9.3827000000E-01	0.000E+00	0.0
	2212	1	0	0	0	0	0.0000000000E+00	0.0000000000E+00	5.5484300837E+03	5.5484300837E+03	9.3827000000E-01	0.000E+00	0.0
	2212	1	0	0	0	0	0.0000000000E+00	0.0000000000E+00	-6.2081689782E+03	6.2081689782E+03	9.3827000000E-01	0.000E+00	0.0
	51	2	1	2	0	0	1.2094482066E+02	-5.8928571653E+01	7.2554277012E+02	1.2865858002E+03	1.0539404556E+03	0.000E+00	0.0
	1000022	2	5	5	0	0	-1.2094482066E+02	5.8928571653E+01	4.8072705491E+02	9.8685456295E+02	8.5128326713E+02	0.000E+00	0.0
	14	1	6	6	0	0	-2.4976778128E+02	-1.6704658081E+02	2.8847405143E+02	5.2832829100E+02	3.2500000000E+02	0.000E+00	0.0
	-14	1	6	6	0	0	1.2882296062E+02	2.2597515247E+02	1.9225300348E+02	4.5852627194E+02	3.2500000000E+02	0.000E+00	0.0
	25	2	5	5	0	0	1.2094482066E+02	-5.8928571653E+01	1.7901183964E+02	2.5654637514E+02	1.2518217789E+02	0.000E+00	0.0
	-5	1	9	9	0	501	1.0714529710E+02	-5.0206431188E+01	5.3528909881E+01	1.2993697325E+02	4.1800000000E+00	0.000E+00	0.0
	5	1	9	9	501	0	1.3799523558E+01	-8.7221404648E+00	1.2548292976E+02	1.2660940189E+02	4.1800000000E+00	0.000E+00	0.0
</event>
<event>
    11  -1  1.0000000E+00  1.0000000E+00  -1.0000000E+00  -1.0000000E+00
	2212	-1	0	0	0	0	0.0000000000E+00	0.0000000000E+00	6.5000000000E+03	6.5000000000E+03	9.3827000000E-01	0.000E+00	0.0
	2212	-1	0	0	0	0	0.0000000000E+00	0.0000000000E+00	-6.5000000000E+03	6.5000000000E+03	9.3827000000E-01	0.000E+00	0.0
	2212	1	0	0	0	0	0.0000000000E+00	0.0000000000E+00	6.2927541285E+03	6.2927541285E+03	9.3827000000E-01	0.000E+00	0.0
	2212	1	0	0	0	0	0.0000000000E+00	0.0000000000E+00	-5.1637332744E+03	5.1637332744E+03	9.3827000000E-01	0.000E+00	0.0
	51	2	1	2	0	0	7.1786978472E+01	1.3390533239E+02	-1.2270961729E+03	1.6237586256E+03	1.0524937285E+03	0.000E+00	0.0
	1000022	2	5	5	0	0	-7.1786978472E+01	-1.3390533239E+02	-8.2425854346E+02	1.1806996218E+03	8.3160413788E+02	0.000E+00	0.0
	14	1	6	6	0	0	9.2128172470E-01	-2.8150102927E+02	-2.4063034453E+02	4.9271862249E+02	3.2500000000E+02	0.000E+00	0.0
	-14	1	6	6	0	0	-7.2708260196E+01	1.4759569687E+02	-5.8362819893E+02	6.8798099932E+02	3.2500000000E+02	0.000E+00	0.0
	25	2	5	5	0	0	7.1786978472E+01	1.3390533239E+02	-3.0476231067E+02	3.6281297534E+02	1.2517659826E+02	0.000E+00	0.0
	-5	1	9	9	0	501	2.1059856572E+01	-5.3267583375E+00	-1.3768077772E+02	1.3944662372E+02	4.1800000000E+00	0.000E+00	0.0
	5	1	9	9	501	0	5.0727121900E+01	1.3923209073E+02	-1.6708153295E+02	2.2336635163E+02	4.1800000000E+00	0.000E+00	0.0
</event>
<event>
    11  -1  1.0000000E+00  1.0000000E+00  -1.0000000E+00  -1.0000000E+00
	2212	-1	0	0	0	0	0.0000000000E+00	0.0000000000E+00	6.5000000000E+03	6.5000000000E+03	9.3827000000E-01	0.000E+00	0.0
	2212	-1	0	0	0	0	0.0000000000E+00	0.0000000000E+00	-6.5000000000E+03	6.5000000000E+03	9.3827000000E-01	0.000E+00	0.0
	2212	1	0	0	0	0	0.0000000000E+00	0.0000000000E+00	5.9300122401E+03	5.9300122401E+03	9.3827000000E-01	0.000E+00	0.0
	2212	1	0	0	0	0	0.0000000000E+00	0.0000000000E+00	-6.0180212071E+03	6.0180212071E+03	9.3827000000E-01	0.000E+00	0.0
	51	2	1	2	0	0	-1.2811348732E+02	-4.6337363055E+01	1.0814672146E+02	1.0626118672E+03	1.0482786128E+03	0.000E+00	0.0
	1000022	2	5	5	0	0	1.2811348732E+02	4.6337363055E+01	5.3008940400E+01	8.6367328152E+02	8.5121170845E+02	0.000E+00	0.0
	14	1	6	6	0	0	2.9347167076E+02	-7.5494794409E+01	1.4672930391E+02	4.6795253407E+02	3.2500000000E+02	0.000E+00	0.0
	-14	1	6	6	0	0	-1.6535818344E+02	1.2183215746E+02	-9.3720363512E+01	3.9572074745E+02	3.2500000000E+02	0.000E+00	0.0
	25	2	5	5	0	0	-1.2811348732E+02	-4.6337363055E+01	3.5000026596E+01	1.8829327133E+02	1.2517642478E+02	0.000E+00	0.0
	-5	1	9	9	0	501	-6.5232608136E+01	-7.1328904181E+01	-2.2576020006E+01	9.9349156087E+01	4.1800000000E+00	0.000E+00	0.0
	5	1	9	9	501	0	-6.2880879180E+01	2.4991541126E+01	5.7576046602E+01	8.8944115245E+01	4.1800000000E+00	0.000E+00	0.0
</event>
<event>
    11  -1  1.0000000E+00  1.0000000E+00  -1.0000000E+00  -1.0000000E+00
	2212	-1	0	0	0	0	0.0000000000E+00	0.0000000000E+00	6.5000000000E+03	6.5000000000E+03	9.3827000000E-01	0.000E+00	0.0
	2212	-1	0	0	0	0	0.0000000000E+00	0.0000000000E+00	-6.5000000000E+03	6.5000000000E+03	9.3827000000E-01	0.000E+00	0.0
	2212	1	0	0	0	0	0.0000000000E+00	0.0000000000E+00	6.1760763849E+03	6.1760763849E+03	9.3827000000E-01	0.000E+00	0.0
	2212	1	0	0	0	0	0.0000000000E+00	0.0000000000E+00	-5.6831076538E+03	5.6831076538E+03	9.3827000000E-01	0.000E+00	0.0
	51	2	1	2	0	0	3.9689212272E+01	1.3124564038E+02	-6.5900209700E+02	1.2294418665E+03	1.0288065356E+03	0.000E+00	0.0
	1000022	2	5	5	0	0	-3.9689212272E+01	-1.3124564038E+02	-2.2400730146E+02	8.1399649409E+02	7.7046114088E+02	0.000E+00	0.0
	14	1	6	6	0	0	-5.3987735681E+01	-1.4972690528E+02	-3.1054637559E+02	4.7686148215E+02	3.2500000000E+02	0.000E+00	0.0
	-14	1	6	6	0	0	1.4298523408E+01	1.8481264893E+01	8.6539074135E+01	3.3713501194E+02	3.2500000000E+02	0.000E+00	0.0
	25	2	5	5	0	0	3.9689212272E+01	1.3124564038E+02	-2.6896142964E+02	3.2681946718E+02	1.2518011744E+02	0.000E+00	0.0
	-5	1	9	9	0	501	6.9849030637E+01	2.7408704506E+01	-8.5582360475E+01	1.1389441158E+02	4.1800000000E+00	0.000E+00	0.0
	5	1	9	9	501	0	-3.0159818365E+01	1.0383693588E+02	-1.8337906916E+02	2.1292505560E+02	4.1800000000E+00	0.000E+00	0.0
</event>
<event>
    11  -1  1.0000000E+00  1.0000000E+00  -1.0000000E+00  -1.0000000E+00
	2212	-1	0	0	0	0	0.0000000000E+00	0.0000000000E+00	6.5000000000E+03	6.5000000000E+03	9.3827000000E-01	0.000E+00	0.0
	2212	-1	0	0	0	0	0.0000000000E+00	0.0000000000E+00	-6.5000000000E+03	6.5000000000E+03	9.3827000000E-01	0.000E+00	0.0
	2212	1	0	0	0	0	0.0000000000E+00	0.0000000000E+00	6.2726732520E+03	6.2726732520E+03	9.3827000000E-01	0.000E+00	0.0
	2212	1	0	0	0	0	0.0000000000E+00	0.0000000000E+00	-5.2983859954E+03	5.2983859954E+03	9.3827000000E-01	0.000E+00	0.0
	51	2	1	2	0	0	-8.4475734668E+01	-9.2173484946E+01	-1.0485225646E+03	1.4858222255E+03	1.0452923114E+03	0.000E+00	0.0
	1000022	2	5	5	0	0	8.4475734668E+01	9.2173484946E+01	-7.3705273002E+02	1.1329960831E+03	8.5135262755E+02	0.000E+00	0.0
	14	1	6	6	0	0	8.8272336247E+00	-5.9821358104E+01	-2.4316560163E+01	3.3147067749E+02	3.2500000000E+02	0.000E+00	0.0
	-14	1	6	6	0	0	7.5648501044E+01	1.5199484305E+02	-7.1273616985E+02	8.0152540561E+02	3.2500000000E+02	0.000E+00	0.0
	25	2	5	5	0	0	-8.4475734668E+01	-9.2173484946E+01	-2.3723452658E+02	2.9594466958E+02	1.2518356831E+02	0.000E+00	0.0
	-5	1	9	9	0	501	-9.1363877056E+01	-7.4595423884E+00	-1.2716098435E+02	1.5681323651E+02	4.1800000000E+00	0.000E+00	0.0
	5	1	9	9	501	0	6.8881423879E+00	-8.4713942558E+01	-1.1007354223E+02	1.3913143307E+02	4.1800000000E+00	0.000E+00	0.0
</event>
<event>
    11  -1  1.0000000E+00  1.0000000E+00  -1.0000000E+00  -1.0000000E+00
	2212	-1	0	0	0	0	0.0000000000E+00	0.0000000000E+00	6.5000000000E+03	6.5000000000E+03	9.3827000000E-01	0.000E+00	0.0
	2212	-1	0	0	0	0	0.0000000000E+00	0.0000000000E+00	-6.5000000000E+03	6.5000000000E+03	9.3827000000E-01	0.000E+00	0.0
	2212	1	0	0	0	0	0.0000000000E+00	0.0000000000E+00	6.1891313188E+03	6.1891313188E+03	9.3827000000E-01	0.000E+00	0.0
	2212	1	0	0	0	0	0.0000000000E+00	0.0000000000E+00	-5.5871337165E+03	5.5871337165E+03	9.3827000000E-01	0.000E+00	0.0
	51	2	1	2	0	0	-6.3356655109E+01	-1.3651816793E+02	-5.4323563879E+02	1.2053557093E+03	1.0654229915E+03	0.000E+00	0.0
	1000022	2	5	5	0	0	6.3356655109E+01	1.3651816793E+02	-5.5237345495E+02	1.0217879714E+03	8.4633500982E+02	0.000E+00	0.0
	14	1	6	6	0	0	1.3126877563E+02	-4.3169083514E+01	-5.2027647320E-01	3.5315765872E+02	3.2500000000E+02	0.000E+00	0.0
	-14	1	6	6	0	0	-6.7912120518E+01	1.7968725144E+02	-5.5185317847E+02	6.6863031268E+02	3.2500000000E+02	0.000E+00	0.0
	25	2	5	5	0	0	-6.3356655109E+01	-1.3651816793E+02	-4.9624147318E+01	2.0194699334E+02	1.2517490243E+02	0.000E+00	0.0
	-5	1	9	9	0	501	-4.8186536453E+01	-1.5804013752E+02	-2.8025372565E+01	1.6763508365E+02	4.1800000000E+00	0.000E+00	0.0
	5	1	9	9	501	0	-1.5170118656E+01	2.1521969595E+01	-2.1598774753E+01	3.4311909683E+01	4.1800000000E+00	0.000E+00	0.0
</event>
<event>
    11  -1  1.0000000E+00  1.0000000E+00  -1.0000000E+00  -1.0000000E+00
	2212	-1	0	0	0	0	0.0000000000E+00	0.0000000000E+00	6.5000000000E+03	6.5000000000E+03	9.3827000000E-01	0.000E+00	0.0
	2212	-1	0	0	0	0	0.0000000000E+00	0.0000000000E+00	-6.5000000000E+03	6.5000000000E+03	9.3827000000E-01	0.000E+00	0.0
	2212	1	0	0	0	0	0.0000000000E+00	0.0000000000E+00	6.1200481438E+03	6.1200481438E+03	9.3827000000E-01	0.000E+00	0.0
	2212	1	0	0	0	0	0.0000000000E+00	0.0000000000E+00	-5.7433986293E+03	5.7433986293E+03	9.3827000000E-01	0.000E+00	0.0
	51	2	1	2	0	0	-1.2315416692E+02	8.2062784200E+01	-3.0666979885E+02	1.1250937719E+03	1.0723284854E+03	0.000E+00	0.0
	1000022	2	5	5	0	0	1.2315416692E+02	-8.2062784200E+01	-3.7859310662E+02	9.4271127335E+02	8.5057072319E+02	0.000E+00	0.0
	14	1	6	6	0	0	6.2014666964E+01	-8.0581545075E+01	-4.8739064295E+02	5.9457030128E+02	3.2500000000E+02	0.000E+00	0.0
	-14	1	6	6	0	0	6.1139499958E+01	-1.4812391252E+00	1.0879753633E+02	3.4814097207E+02	3.2500000000E+02	0.000E+00	0.0
	25	2	5	5	0	0	-1.2315416692E+02	8.2062784200E+01	1.9435920772E+00	1.9384195351E+02	1.2517857647E+02	0.000E+00	0.0
	-5	1	9	9	0	501	-1.4468160399E+02	9.0078586948E+01	1.5263929497E+00	1.7048964964E+02	4.1800000000E+00	0.000E+00	0.0
	5	1	9	9	501	0	2.1527437070E+01	-8.0158027483E+00	4.1719912744E-01	2.3352303861E+01	4.1800000000E+00	0.000E+00	0.0
</event>
<event>
    11  -1  1.0000000E+00  1.0000000E+00  -1.0000000E+00  -1.0000000E+00
	2212	-1	0	0	0	0	0.0000000000E+00	0.0000000000E+00	6.5000000000E+03	6.5000000000E+03	9.3827000000E-01	0.000E+00	0.0
	2212	-1	0	0	0	0	0.0000000000E+00	0.0000000000E+00	-6.5000000000E+03	6.5000000000E+03	9.3827000000E-01	0.000E+00	0.0
	2212	1	0	0	0	0	0.0000000000E+00	0.0000000000E+00	5.1857205278E+03	5.1857205278E+03	9.3827000000E-01	0.000E+00	0.0
	2212	1	0	0	0	0	0.0000000000E+00	0.0000000000E+00	-6.2853171956E+03	6.2853171956E+03	9.3827000000E-01	0.000E+00	0.0
	51	2	1	2	0	0	2.8998483021E+01	-6.4907209269E+01	1.3892797016E+03	1.7503613222E+03	1.0623619022E+03	0.000E+00	0.0
	1000022	2	5	5	0	0	-2.8998483021E+01	6.4907209269E+01	5.8449005919E+02	9.9411726270E+02	8.0099103920E+02	0.000E+00	0.0
	14	1	6	6	0	0	-1.1524980783E+02	1.7166061354E+02	1.0578107121E+02	3.9945527844E+02	3.2500000000E+02	0.000E+00	0.0
	-14	1	6	6	0	0	8.6251324808E+01	-1.0675340427E+02	4.7870898798E+02	5.9466198426E+02	3.2500000000E+02	0.000E+00	0.0
	25	2	5	5	0	0	2.8998483021E+01	-6.4907209269E+01	5.1510660861E+02	5.3484501386E+02	1.2518191875E+02	0.000E+00	0.0
	-5	1	9	9	0	501	3.9997874073E+01	4.5235646216E+00	3.8308038202E+02	3.8521207673E+02	4.1800000000E+00	0.000E+00	0.0
	5	1	9	9	501	0	-1.0999391052E+01	-6.9430773891E+01	1.3202622659E+02	1.4963293713E+02	4.1800000000E+00	0.000E+00	0.0
</event>
<event>
    11  -1  1.0000000E+00  1.0000000E+00  -1.0000000E+00  -1.0000000E+00
	2212	-1	0	0	0	0	0.0000000000E+00	0.0000000000E+00	6.5000000000E+03	6.5000000000E+03	9.3827000000E-01	0.000E+00	0.0
	2212	-1	0	0	0	0	0.0000000000E+00	0.0000000000E+00	-6.5000000000E+03	6.5000000000E+03	9.3827000000E-01	0.000E+00	0.0
	2212	1	0	0	0	0	0.0000000000E+00	0.0000000000E+00	5.8509326329E+03	5.8509326329E+03	9.3827000000E-01	0.000E+00	0.0
	2212	1	0	0	0	0	0.0000000000E+00	0.0000000000E+00	-6.0694348082E+03	6.0694348082E+03	9.3827000000E-01	0.000E+00	0.0
	51	2	1	2	0	0	8.2667282925E+01	1.1628953303E+02	2.1313727846E+02	1.0879558338E+03	1.0572905286E+03	0.000E+00	0.0
	1000022	2	5	5	0	0	-8.2667282925E+01	-1.1628953303E+02	1.8659897788E+02	8.8716536010E+02	8.5550339710E+02	0.000E+00	0.0
	14	1	6	6	0	0	2.4631043170E+01	-1.9326700357E+02	3.3546346739E+02	5.0608256333E+02	3.2500000000E+02	0.000E+00	0.0
	-14	1	6	6	0	0	-1.0729832609E+02	7.6977470537E+01	-1.4886448951E+02	3.8108279676E+02	3.2500000000E+02	0.000E+00	0.0
	25	2	5	5	0	0	8.2667282925E+01	1.1628953303E+02	3.1903197411E+01	1.9246719887E+02	1.2517457200E+02	0.000E+00	0.0
	-5	1	9	9	0	501	6.1466398443E+01	2.0029934643E+01	6.1645921586E+01	8.9425994361E+01	4.1800000000E+00	0.000E+00	0.0
	5	1	9	9	501	0	2.1200884481E+01	9.6259598392E+01	-2.9742724174E+01	1.0304120451E+02	4.1800000000E+00	0.000E+00	0.0
</event>
<event>
    11  -1  1.0000000E+00  1.0000000E+00  -1.0000000E+00  -1.0000000E+00
	2212	-1	0	0	0	0	0.0000000000E+00	0.0000000000E+00	6.5000000000E+03	6.5000000000E+03	9.3827000000E-01	0.000E+00	0.0
	2212	-1	0	0	0	0	0.0000000000E+00	0.0000000000E+00	-6.5000000000E+03	6.5000000000E+03	9.3827000000E-01	0.000E+00	0.0
	2212	1	0	0	0	0	0.0000000000E+00	0.0000000000E+00	6.1121734269E+03	6.1121734269E+03	9.3827000000E-01	0.000E+00	0.0
	2212	1	0	0	0	0	0.0000000000E+00	0.0000000000E+00	-5.7886101226E+03	5.7886101226E+03	9.3827000000E-01	0.000E+00	0.0
	51	2	1	2	0	0	-9.2665560421E+01	-2.8826747539E+01	-2.1868366106E+02	1.0774154372E+03	1.0505158701E+03	0.000E+00	0.0
	1000022	2	5	5	0	0	9.2665560421E+01	2.8826747539E+01	-3.7317095656E+02	9.3324622758E+02	8.4986709020E+02	0.000E+00	0.0
	14	1	6	6	0	0	1.9390368787E+02	2.1245162675E+01	5.8416214189E+01	3.8351981851E+02	3.2500000000E+02	0.000E+00	0.0
	-14	1	6	6	0	0	-1.0123812745E+02	7.5815848642E+00	-4.3158717075E+02	5.4972640907E+02	3.2500000000E+02	0.000E+00	0.0
	25	2	5	5	0	0	-9.2665560421E+01	-2.8826747539E+01	4.9607652295E+01	1.6597022296E+02	1.2516911872E+02	0.000E+00	0.0
	-5	1	9	9	0	501	2.3463129615E+01	-3.4600128276E+01	1.1942009763E+01	4.3678041683E+01	4.1800000000E+00	0.000E+00	0.0
	5	1	9	9	501	0	-1.1612869004E+02	5.7733807370E+00	3.7665642532E+01	1.2229218128E+02	4.1800000000E+00	0.000E+00	0.0
</event>
<event>
    11  -1  1.0000000E+00  1.0000000E+00  -1.0000000E+00  -1.0000000E+00
	2212	-1	0	0	0	0	0.0000000000E+00	0.0000000000E+00	6.5000000000E+03	6.5000000000E+03	9.3827000000E-01	0.000E+00	0.0
	2212	-1	0	0	0	0	0.0000000000E+00	0.0000000000E+00	-6.5000000000E+03	6.5000000000E+03	9.3827000000E-01	0.000E+00	0.0
	2212	1	0	0	0	0	0.0000000000E+00	0.0000000000E+00	6.2319482540E+03	6.2319482540E+03	9.3827000000E-01	0.000E+00	0.0
	2212	1	0	0	0	0	0.0000000000E+00	0.0000000000E+00	-5.4709127045E+03	5.4709127045E+03	9.3827000000E-01	0.000E+00	0.0
	51	2	1	2	0	0	-9.5631854679E+01	-1.1019791466E+02	-7.5138629791E+02	1.2997172717E+03	1.0504259067E+03	0.000E+00	0.0
	1000022	2	5	5	0	0	9.5631854679E+01	1.1019791466E+02	-6.3841336311E+02	1.0691121497E+03	8.4506812408E+02	0.000E+00	0.0
	14	1	6	6	0	0	-1.3095465847E+02	-1.4434834028E+02	-3.5633609020E+02	5.2017879147E+02	3.2500000000E+02	0.000E+00	0.0
	-14	1	6	6	0	0	2.2658651315E+02	2.5454625494E+02	-2.8207727291E+02	5.4893335820E+02	3.2500000000E+02	0.000E+00	0.0
	25	2	5	5	0	0	-9.5631854679E+01	-1.1019791466E+02	-1.2262218634E+02	2.2802689187E+02	1.2518398782E+02	0.000E+00	0.0
	-5	1	9	9	0	501	2.1064586974E+00	-4.9603394069E+01	1.1673552124E+01	5.1173021121E+01	4.1800000000E+00	0.000E+00	0.0
	5	1	9	9	501	0	-9.7738313377E+01	-6.0594520591E+01	-1.3429573847E+02	1.7685387075E+02	4.1800000000E+00	0.000E+00	0.0
</event>
<event>
    11  -1  1.0000000E+00  1.0000000E+00  -1.0000000E+00  -1.0000000E+00
	2212	-1	0	0	0	0	0.0000000000E+00	0.0000000000E+00	6.5000000000E+03	6.5000000000E+03	9.3827000000E-01	0.000E+00	0.0
	2212	-1	0	0	0	0	0.0000000000E+00	0.0000000000E+00	-6.5000000000E+03	6.5000000000E+03	9.3827000000E-01	0.000E+00	0.0
	2212	1	0	0	0	0	0.0000000000E+00	0.0000000000E+00	5.1917805755E+03	5.1917805755E+03	9.3827000000E-01	0.000E+00	0.0
	2212	1	0	0	0	0	0.0000000000E+00	0.0000000000E+00	-6.2884698530E+03	6.2884698530E+03	9.3827000000E-01	0.000E+00	0.0
	51	2	1	2	0	0	9.5222866913E+01	9.2303474019E+01	1.1490813087E+03	1.5636133052E+03	1.0520985641E+03	0.000E+00	0.0
	1000022	2	5	5	0	0	-9.5222866913E+01	-9.2303474019E+01	8.6076627778E+02	1.2215557220E+03	8.5655850427E+02	0.000E+00	0.0
	14	1	6	6	0	0	-1.3178034301E+02	-2.2951737117E+02	1.8452309555E+02	4.5794983924E+02	3.2500000000E+02	0.000E+00	0.0
	-14	1	6	6	0	0	3.6557476094E+01	1.3721389715E+02	6.7624318223E+02	7.6360588273E+02	3.2500000000E+02	0.000E+00	0.0
	25	2	5	5	0	0	9.5222866913E+01	9.2303474019E+01	2.3592299978E+02	2.9819384955E+02	1.2519019283E+02	0.000E+00	0.0
	-5	1	9	9	0	501	7.6014705941E+00	-2.9957854534E+01	3.1169259371E+01	4.4093656383E+01	4.1800000000E+00	0.000E+00	0.0
	5	1	9	9	501	0	8.7621396319E+01	1.2226132855E+02	2.0475374041E+02	2.5410019316E+02	4.1800000000E+00	0.000E+00	0.0
</event>
<event>
    11  -1  1.0000000E+00  1.0000000E+00  -1.0000000E+00  -1.0000000E+00
	2212	-1	0	0	0	0	0.0000000000E+00	0.0000000000E+00	6.5000000000E+03	6.5000000000E+03	9.3827000000E-01	0.000E+00	0.0
	2212	-1	0	0	0	0	0.0000000000E+00	0.0000000000E+00	-6.5000000000E+03	6.5000000000E+03	9.3827000000E-01	0.000E+00	0.0
	2212	1	0	0	0	0	0.0000000000E+00	0.0000000000E+00	5.4607721022E+03	5.4607721022E+03	9.3827000000E-01	0.000E+00	0.0
	2212	1	0	0	0	0	0.0000000000E+00	0.0000000000E+00	-6.2325223049E+03	6.2325223049E+03	9.3827000000E-01	0.000E+00	0.0
	51	2	1	2	0	0	-4.0419618442E+01	-2.0852230686E+01	6.0624613437E+02	1.2171623013E+03	1.0544577427E+03	0.000E+00	0.0
	1000022	2	5	5	0	0	4.0419618442E+01	2.0852230686E+01	8.0351234032E+02	1.1698008342E+03	8.4896015777E+02	0.000E+00	0.0
	14	1	6	6	0	0	-2.5090507020E+02	2.1905003553E+01	3.4457477395E+02	5.3646058409E+02	3.2500000000E+02	0.000E+00	0.0
	-14	1	6	6	0	0	2.9132468864E+02	-1.0527728666E+00	4.5893756636E+02	6.3334025007E+02	3.2500000000E+02	0.000E+00	0.0
	25	2	5	5	0	0	-4.0419618442E+01	-2.0852230686E+01	-3.1762137681E+01	1.3690475871E+02	1.2516196902E+02	0.000E+00	0.0
	-5	1	9	9	0	501	4.1217158829E+01	-2.2624049593E+01	-2.8366920388E+01	5.5071375271E+01	4.1800000000E+00	0.000E+00	0.0
	5	1	9	9	501	0	-8.1636777271E+01	1.7718189075E+00	-3.3952172934E+00	8.1833383444E+01	4.1800000000E+00	0.000E+00	0.0
</event>
<event>
    11  -1  1.0000000E+00  1.0000000E+00  -1.0000000E+00  -1.0000000E+00
	2212	-1	0	0	0	0	0.0000000000E+00	0.0000000000E+00	6.5000000000E+03	6.5000000000E+03	9.3827000000E-01	0.000E+00	0.0
	2212	-1	0	0	0	0	0.0000000000E+00	0.0000000000E+00	-6.5000000000E+03	6.5000000000E+03	9.3827000000E-01	0.000E+00	0.0
	2212	1	0	0	0	0	0.0000000000E+00	0.0000000000E+00	5.7009257104E+03	5.7009257104E+03	9.3827000000E-01	0.000E+00	0.0
	2212	1	0	0	0	0	0.0000000000E+00	0.0000000000E+00	-6.1462767629E+03	6.1462767629E+03	9.3827000000E-01	0.000E+00	0.0
	51	2	1	2	0	0	8.8758469815E+00	-3.6840831718E+01	5.4301755305E+02	1.1945328242E+03	1.0632989126E+03	0.000E+00	0.0
	1000022	2	5	5	0	0	-8.8758469815E+00	3.6840831718E+01	2.8337939282E+02	9.4460741093E+02	9.0030175662E+02	0.000E+00	0.0
	14	1	6	6	0	0	-2.8618237510E+02	-7.4341891327E+01	4.1771400416E+01	4.4135803892E+02	3.2500000000E+02	0.000E+00	0.0
	-14	1	6	6	0	0	2.7730652812E+02	1.1118272304E+02	2.4160799240E+02	5.0324937202E+02	3.2500000000E+02	0.000E+00	0.0
	25	2	5	5	0	0	8.8758469815E+00	-3.6840831718E+01	1.6197165975E+02	2.0819011580E+02	1.2518897001E+02	0.000E+00	0.0
	-5	1	9	9	0	501	4.5301950510E+01	-6.8567254553E+01	9.9932482665E+01	1.2945156858E+02	4.1800000000E+00	0.000E+00	0.0
	5	1	9	9	501	0	-3.6426103529E+01	3.1726422835E+01	6.2039177083E+01	7.8738547213E+01	4.1800000000E+00	0.000E+00	0.0
</event>
<event>
    11  -1  1.0000000E+00  1.0000000E+00  -1.0000000E+00  -1.0000000E+00
	2212	-1	0	0	0	0	0.0000000000E+00	0.0000000000E+00	6.5000000000E+03	6.5000000000E+03	9.3827000000E-01	0.000E+00	0.0
	2212	-1	0	0	0	0	0.0000000000E+00	0.0000000000E+00	-6.5000000000E+03	6.5000000000E+03	9.3827000000E-01	0.000E+00	0.0
	2212	1	0	0	0	0	0.0000000000E+00	0.0000000000E+00	5.8573022028E+03	5.8573022028E+03	9.3827000000E-01	0.000E+00	0.0
	2212	1	0	0	0	0	0.0000000000E+00	0.0000000000E+00	-6.0718809880E+03	6.0718809880E+03	9.3827000000E-01	0.000E+00	0.0
	51	2	1	2	0	0	-1.5212151749E+02	8.6425048867E+00	2.1514023675E+02	1.0817141741E+03	1.0490970326E+03	0.000E+00	0.0
	1000022	2	5	5	0	0	1.5212151749E+02	-8.6425048867E+00	1.7593440324E+02	8.6987343383E+02	8.3815942855E+02	0.000E+00	0.0
	14	1	6	6	0	0	-2.8810836258E+01	2.0608347472E+02	-4.2105973970E+01	3.8819888702E+02	3.2500000000E+02	0.000E+00	0.0
	-14	1	6	6	0	0	1.8093235375E+02	-2.1472597961E+02	2.1804037721E+02	4.8167454681E+02	3.2500000000E+02	0.000E+00	0.0
	25	2	5	5	0	0	-1.5212151749E+02	8.6425048867E+00	3.8644381993E+01	2.0094337543E+02	1.2517668670E+02	0.000E+00	0.0
	-5	1	9	9	0	501	-4.8545928638E+01	4.6000884365E+01	5.8535992620E+01	8.8975970811E+01	4.1800000000E+00	0.000E+00	0.0
	5	1	9	9	501	0	-1.0357558885E+02	-3.7358379478E+01	-1.9891610626E+01	1.1196740462E+02	4.1800000000E+00	0.000E+00	0.0
</event>
<event>
    11  -1  1.0000000E+00  1.0000000E+00  -1.0000000E+00  -1.0000000E+00
	2212	-1	0	0	0	0	0.0000000000E+00	0.0000000000E+00	6.5000000000E+03	6.5000000000E+03	9.3827000000E-01	0.000E+00	0.0
	2212	-1	0	0	0	0	0.0000000000E+00	0.0000000000E+00	-6.5000000000E+03	6.5000000000E+03	9.3827000000E-01	0.000E+00	0.0
	2212	1	0	0	0	0	0.0000000000E+00	0.0000000000E+00	5.2866364476E+03	5.2866364476E+03	9.3827000000E-01	0.000E+00	0.0
	2212	1	0	0	0	0	0.0000000000E+00	0.0000000000E+00	-6.2752500056E+03	6.2752500056E+03	9.3827000000E-01	0.000E+00	0.0
	51	2	1	2	0	0	-7.5752376917E+01	1.0192138307E+02	9.3319752551E+02	1.4063419993E+03	1.0444203208E+03	0.000E+00	0.0
	1000022	2	5	5	0	0	7.5752376917E+01	-1.0192138307E+02	8.7790099452E+02	1.2282216228E+03	8.4952445974E+02	0.000E+00	0.0
	14	1	6	6	0	0	-3.8801142599E+01	-3.0677866533E+02	5.5386122590E+02	7.1274535125E+02	3.2500000000E+02	0.000E+00	0.0
	-14	1	6	6	0	0	1.1455351952E+02	2.0485728226E+02	3.2403976862E+02	5.1547627159E+02	3.2500000000E+02	0.000E+00	0.0
	25	2	5	5	0	0	-7.5752376917E+01	1.0192138307E+02	1.1071256348E+02	2.0989192398E+02	1.2518369345E+02	0.000E+00	0.0
	-5	1	9	9	0	501	-4.8551818968E+01	2.9868739598E+01	1.1930081502E+02	1.3228596900E+02	4.1800000000E+00	0.000E+00	0.0
	5	1	9	9	501	0	-2.7200557949E+01	7.2052643474E+01	-8.5882515368E+00	7.7605954983E+01	4.1800000000E+00	0.000E+00	0.0
</event>
<event>
    11  -1  1.0000000E+00  1.0000000E+00  -1.0000000E+00  -1.0000000E+00
	2212	-1	0	0	0	0	0.0000000000E+00	0.0000000000E+00	6.5000000000E+03	6.5000000000E+03	9.3827000000E-01	0.000E+00	0.0
	2212	-1	0	0	0	0	0.0000000000E+00	0.0000000000E+00	-6.5000000000E+03	6.5000000000E+03	9.3827000000E-01	0.000E+00	0.0
	2212	1	0	0	0	0	0.0000000000E+00	0.0000000000E+00	6.3289771993E+03	6.3289771993E+03	9.3827000000E-01	0.000E+00	0.0
	2212	1	0	0	0	0	0.0000000000E+00	0.0000000000E+00	-4.9362062851E+03	4.9362062851E+03	9.3827000000E-01	0.000E+00	0.0
	51	2	1	2	0	0	3.0366516777E+01	8.3095543794E+01	-1.4013244578E+03	1.7439365683E+03	1.0343004997E+03	0.000E+00	0.0
	1000022	2	5	5	0	0	-3.0366516777E+01	-8.3095543794E+01	-1.1828539595E+03	1.4748809358E+03	8.7652911560E+02	0.000E+00	0.0
	14	1	6	6	0	0	-2.5500839243E+02	3.6777375945E+00	-3.2219311204E+02	5.2390476941E+02	3.2500000000E+02	0.000E+00	0.0
	-14	1	6	6	0	0	2.2464187565E+02	-8.6773281389E+01	-8.6066084747E+02	9.5097616638E+02	3.2500000000E+02	0.000E+00	0.0
	25	2	5	5	0	0	3.0366516777E+01	8.3095543794E+01	-2.0991695462E+02	2.5993557982E+02	1.2519737649E+02	0.000E+00	0.0
	-5	1	9	9	0	501	7.1887523077E+01	3.4679429763E+01	-1.5994023850E+02	1.7879829729E+02	4.1800000000E+00	0.000E+00	0.0
	5	1	9	9	501	0	-4.1521006300E+01	4.8416114032E+01	-4.9976716123E+01	8.1137282532E+01	4.1800000000E+00	0.000E+00	0.0
</event>
<event>
    11  -1  1.0000000E+00  1.0000000E+00  -1.0000000E+00  -1.0000000E+00
	2212	-1	0	0	0	0	0.0000000000E+00	0.0000000000E+00	6.5000000000E+03	6.5000000000E+03	9.3827000000E-01	0.000E+00	0.0
	2212	-1	0	0	0	0	0.0000000000E+00	0.0000000000E+00	-6.5000000000E+03	6.5000000000E+03	9.3827000000E-01	0.000E+00	0.0
	2212	1	0	0	0	0	0.0000000000E+00	0.0000000000E+00	5.9867500079E+03	5.9867500079E+03	9.3827000000E-01	0.000E+00	0.0
	2212	1	0	0	0	0	0.0000000000E+00	0.0000000000E+00	-5.9645768754E+03	5.9645768754E+03	9.3827000000E-01	0.000E+00	0.0
	51	2	1	2	0	0	9.8881680546E+01	-8.8810255155E+01	2.3959953567E+01	1.0571010290E+03	1.0484386763E+03	0.000E+00	0.0
	1000022	2	5	5	0	0	-9.8881680546E+01	8.8810255155E+01	-6.4521487664E+01	8.6124724015E+02	8.4848036992E+02	0.000E+00	0.0
	14	1	6	6	0	0	1.2960151160E+02	-1.1038633082E+02	1.1116865092E+02	3.8336035631E+02	3.2500000000E+02	0.000E+00	0.0
	-14	1	6	6	0	0	-2.2848319214E+02	1.9919658598E+02	-1.7569013859E+02	4.7788688385E+02	3.2500000000E+02	0.000E+00	0.0
	25	2	5	5	0	0	9.8881680546E+01	-8.8810255155E+01	4.2348355150E+01	1.8742587658E+02	1.2518078071E+02	0.000E+00	0.0
	-5	1	9	9	0	501	9.8277146569E+01	-4.5136000069E+01	7.5900907303E+01	1.3218954637E+02	4.1800000000E+00	0.000E+00	0.0
	5	1	9	9	501	0	6.0453397636E-01	-4.3674255086E+01	-3.3552552153E+01	5.5236330206E+01	4.1800000000E+00	0.000E+00	0.0
</event>
<event>
    11  -1  1.0000000E+00  1.0000000E+00  -1.0000000E+00  -1.0000000E+00
	2212	-1	0	0	0	0	0.0000000000E+00	0.0000000000E+00	6.5000000000E+03	6.5000000000E+03	9.3827000000E-01	0.000E+00	0.0
	2212	-1	0	0	0	0	0.0000000000E+00	0.0000000000E+00	-6.5000000000E+03	6.5000000000E+03	9.3827000000E-01	0.000E+00	0.0
	2212	1	0	0	0	0	0.0000000000E+00	0.0000000000E+00	6.2090287641E+03	6.2090287641E+03	9.3827000000E-01	0.000E+00	0.0
	2212	1	0	0	0	0	0.0000000000E+00	0.0000000000E+00	-5.5445461259E+03	5.5445461259E+03	9.3827000000E-01	0.000E+00	0.0
	51	2	1	2	0	0	5.8705052845E+01	-1.2955791346E+02	-6.8769117385E+02	1.2669605617E+03	1.0545323031E+03	0.000E+00	0.0
	1000022	2	5	5	0	0	-5.8705052845E+01	1.2955791346E+02	-5.2761570941E+02	1.0126911980E+03	8.5260400515E+02	0.000E+00	0.0
	14	1	6	6	0	0	-6.1028232970E+01	-7.1667663759E+01	2.6634652706E+01	3.3940404236E+02	3.2500000000E+02	0.000E+00	0.0
	-14	1	6	6	0	0	2.3231801251E+00	2.0122557722E+02	-5.5425036212E+02	6.7328715568E+02	3.2500000000E+02	0.000E+00	0.0
	25	2	5	5	0	0	5.8705052845E+01	-1.2955791346E+02	-1.3686692883E+02	2.3373391191E+02	1.2516968164E+02	0.000E+00	0.0
	-5	1	9	9	0	501	-2.7872876101E+01	-1.4500695707E+00	-4.7066950911E+01	5.4879597228E+01	4.1800000000E+00	0.000E+00	0.0
	5	1	9	9	501	0	8.6577928946E+01	-1.2810784389E+02	-8.9799977916E+01	1.7885431468E+02	4.1800000000E+00	0.000E+00	0.0
</event>
<event>
    11  -1  1.0000000E+00  1.0000000E+00  -1.0000000E+00  -1.0000000E+00
	2212	-1	0	0	0	0	0.0000000000E+00	0.0000000000E+00	6.5000000000E+03	6.5000000000E+03	9.3827000000E-01	0.000E+00	0.0
	2212	-1	0	0	0	0	0.0000000000E+00	0.0000000000E+00	-6.5000000000E+03	6.5000000000E+03	9.3827000000E-01	0.000E+00	0.0
	2212	1	0	0	0	0	0.0000000000E+00	0.0000000000E+00	5.9920887330E+03	5.9920887330E+03	9.3827000000E-01	0.000E+00	0.0
	2212	1	0	0	0	0	0.0000000000E+00	0.0000000000E+00	-5.9554840838E+03	5.9554840838E+03	9.3827000000E-01	0.000E+00	0.0
	51	2	1	2	0	0	1.0788192436E+02	-4.9948915679E+01	2.9363748363E+01	1.0588950416E+03	1.0517904143E+03	0.000E+00	0.0
	1000022	2	5	5	0	0	-1.0788192436E+02	4.9948915679E+01	-9.6443045563E+01	8.6971450483E+02	8.5613588588E+02	0.000E+00	0.0
	14	1	6	6	0	0	1.9567886238E+02	-6.8860754109E+01	-1.3323357843E+02	4.0793162057E+02	3.2500000000E+02	0.000E+00	0.0
	-14	1	6	6	0	0	-3.0356078674E+02	1.1880966979E+02	3.6790532872E+01	4.6178288425E+02	3.2500000000E+02	0.000E+00	0.0
	25	2	5	5	0	0	1.0788192436E+02	-4.9948915679E+01	5.9838396409E+01	1.8271267834E+02	1.2517941269E+02	0.000E+00	0.0
	-5	1	9	9	0	501	1.8220929130E+01	2.4585522946E+01	-2.3940912309E+01	3.9077997378E+01	4.1800000000E+00	0.000E+00	0.0
	5	1	9	9	501	0	8.9660995226E+01	-7.4534438625E+01	8.3779308718E+01	1.4363468096E+02	4.1800000000E+00	0.000E+00	0.0
</event>
<event>
    11  -1  1.0000000E+00  1.0000000E+00  -1.0000000E+00  -1.0000000E+00
	2212	-1	0	0	0	0	0.0000000000E+00	0.0000000000E+00	6.5000000000E+03	6.5000000000E+03	9.3827000000E-01	0.000E+00	0.0
	2212	-1	0	0	0	0	0.0000000000E+00	0.0000000000E+00	-6.5000000000E+03	6.5000000000E+03	9.3827000000E-01	0.000E+00	0.0
	2212	1	0	0	0	0	0.0000000000E+00	0.0000000000E+00	6.2883624393E+03	6.2883624393E+03	9.3827000000E-01	0.000E+00	0.0
	2212	1	0	0	0	0	0.0000000000E+00	0.0000000000E+00	-5.1691849025E+03	5.1691849025E+03	9.3827000000E-01	0.000E+00	0.0
	51	2	1	2	0	0	-2.7545851254E+01	8.4861741598E+01	-9.4139634007E+02	1.4215446535E+03	1.0614150196E+03	0.000E+00	0.0
	1000022	2	5	5	0	0	2.7545851254E+01	-8.4861741598E+01	-1.0964850270E+03	1.3870674105E+03	8.4481731619E+02	0.000E+00	0.0
	14	1	6	6	0	0	1.8390898528E+02	-1.8544634919E+02	-8.2567666682E+02	9.2497557882E+02	3.2500000000E+02	0.000E+00	0.0
	-14	1	6	6	0	0	-1.5636313402E+02	1.0058460759E+02	-2.7080836022E+02	4.6209183171E+02	3.2500000000E+02	0.000E+00	0.0
	25	2	5	5	0	0	-2.7545851254E+01	8.4861741598E+01	-2.2692509767E+01	1.5538524762E+02	1.2517721865E+02	0.000E+00	0.0
	-5	1	9	9	0	501	3.9007175964E+01	2.6514147446E+01	-4.3576657000E+01	6.4350269827E+01	4.1800000000E+00	0.000E+00	0.0
	5	1	9	9	501	0	-6.6553027218E+01	5.8347594152E+01	2.0884147233E+01	9.1034977788E+01	4.1800000000E+00	0.000E+00	0.0
</event>
<event>
    11  -1  1.0000000E+00  1.0000000E+00  -1.0000000E+00  -1.0000000E+00
	2212	-1	0	0	0	0	0.0000000000E+00	0.0000000000E+00	6.5000000000E+03	6.5000000000E+03	9.3827000000E-01	0.000E+00	0.0
	2212	-1	0	0	0	0	0.0000000000E+00	0.0000000000E+00	-6.5000000000E+03	6.5000000000E+03	9.3827000000E-01	0.000E+00	0.0
	2212	1	0	0	0	0	0.0000000000E+00	0.0000000000E+00	6.3019507110E+03	6.3019507110E+03	9.3827000000E-01	0.000E+00	0.0
	2212	1	0	0	0	0	0.0000000000E+00	0.0000000000E+00	-5.1372279806E+03	5.1372279806E+03	9.3827000000E-01	0.000E+00	0.0
	51	2	1	2	0	0	2.4546561699E+01	4.3970395625E+01	-1.3519049808E+03	1.7058039524E+03	1.0390303738E+03	0.000E+00	0.0
	1000022	2	5	5	0	0	-2.4546561699E+01	-4.3970395625E+01	-7.8505581886E+02	1.1578938737E+03	8.4962912767E+02	0.000E+00	0.0
	14	1	6	6	0	0	1.9671214416E+02	-3.8659361310E+01	-6.2696831820E+02	7.3410114147E+02	3.2500000000E+02	0.000E+00	0.0
	-14	1	6	6	0	0	-2.2125870586E+02	-5.3110343147E+00	-1.5808750066E+02	4.2379273221E+02	3.2500000000E+02	0.000E+00	0.0
	25	2	5	5	0	0	2.4546561699E+01	4.3970395625E+01	-3.7966691155E+02	4.0292743464E+02	1.2517038179E+02	0.000E+00	0.0
	-5	1	9	9	0	501	3.4632370067E+01	7.5802317745E+01	-1.5762033622E+02	1.7834526969E+02	4.1800000000E+00	0.000E+00	0.0
	5	1	9	9	501	0	-1.0085808368E+01	-3.1831922120E+01	-2.2204657533E+02	2.2458216495E+02	4.1800000000E+00	0.000E+00	0.0
</event>
<event>
    11  -1  1.0000000E+00  1.0000000E+00  -1.0000000E+00  -1.0000000E+00
	2212	-1	0	0	0	0	0.0000000000E+00	0.0000000000E+00	6.5000000000E+03	6.5000000000E+03	9.3827000000E-01	0.000E+00	0.0
	2212	-1	0	0	0	0	0.0000000000E+00	0.0000000000E+00	-6.5000000000E+03	6.5000000000E+03	9.3827000000E-01	0.000E+00	0.0
	2212	1	0	0	0	0	0.0000000000E+00	0.0000000000E+00	5.1391752637E+03	5.1391752637E+03	9.3827000000E-01	0.000E+00	0.0
	2212	1	0	0	0	0	0.0000000000E+00	0.0000000000E+00	-6.3014185342E+03	6.3014185342E+03	9.3827000000E-01	0.000E+00	0.0
	51	2	1	2	0	0	-1.0057310310E+02	-6.4017241425E+01	1.2616802969E+03	1.6392036515E+03	1.0396818182E+03	0.000E+00	0.0
	1000022	2	5	5	0	0	1.0057310310E+02	6.4017241425E+01	8.6508465064E+02	1.2143215387E+03	8.4379629666E+02	0.000E+00	0.0
	14	1	6	6	0	0	-9.6199667106E+01	1.3337573723E+01	7.3510421517E+02	8.0958969484E+02	3.2500000000E+02	0.000E+00	0.0
	-14	1	6	6	0	0	1.9677277021E+02	5.0679667702E+01	1.2998043547E+02	4.0473184384E+02	3.2500000000E+02	0.000E+00	0.0
	25	2	5	5	0	0	-1.0057310310E+02	-6.4017241425E+01	2.9715861991E+02	3.4508466341E+02	1.2871294910E+02	0.000E+00	0.0
	-5	1	9	9	0	501	-7.9516126851E+01	-4.2229083175E+01	3.0104823449E+02	3.1425088987E+02	4.1800000000E+00	0.000E+00	0.0
	5	1	9	9	501	0	-2.1056976253E+01	-2.1788158250E+01	-3.8896145841E+00	3.0833773536E+01	4.1800000000E+00	0.000E+00	0.0
</event>
<event>
    11  -1  1.0000000E+00  1.0000000E+00  -1.0000000E+00  -1.0000000E+00
	2212	-1	0	0	0	0	0.0000000000E+00	0.0000000000E+00	6.5000000000E+03	6.5000000000E+03	9.3827000000E-01	0.000E+00	0.0
	2212	-1	0	0	0	0	0.0000000000E+00	0.0000000000E+00	-6.5000000000E+03	6.5000000000E+03	9.3827000000E-01	0.000E+00	0.0
	2212	1	0	0	0	0	0.0000000000E+00	0.0000000000E+00	6.2871893569E+03	6.2871893569E+03	9.3827000000E-01	0.000E+00	0.0
	2212	1	0	0	0	0	0.0000000000E+00	0.0000000000E+00	-5.1598889345E+03	5.1598889345E+03	9.3827000000E-01	0.000E+00	0.0
	51	2	1	2	0	0	1.0042832146E+02	-1.1583872212E+02	-1.0893020596E+03	1.5332459114E+03	1.0680634769E+03	0.000E+00	0.0
	1000022	2	5	5	0	0	-1.0042832146E+02	1.1583872212E+02	-9.6536588038E+02	1.2971783344E+03	8.5278126789E+02	0.000E+00	0.0
	14	1	6	6	0	0	-1.4871129824E+02	-3.2081359121E+01	-1.2025691274E+02	3.7845870170E+02	3.2500000000E+02	0.000E+00	0.0
	-14	1	6	6	0	0	4.8282976785E+01	1.4792008124E+02	-8.4510896763E+02	9.1871963267E+02	3.2500000000E+02	0.000E+00	0.0
	25	2	5	5	0	0	1.0042832146E+02	-1.1583872212E+02	-1.6193454203E+02	2.5574337421E+02	1.2520950546E+02	0.000E+00	0.0
	-5	1	9	9	0	501	8.5893679058E+00	1.1919062031E+01	1.3261220024E+01	2.0228040865E+01	4.1800000000E+00	0.000E+00	0.0
	5	1	9	9	501	0	9.1838953551E+01	-1.2775778415E+02	-1.7519576205E+02	2.3551533335E+02	4.1800000000E+00	0.000E+00	0.0
</event>
<event>
    11  -1  1.0000000E+00  1.0000000E+00  -1.0000000E+00  -1.0000000E+00
	2212	-1	0	0	0	0	0.0000000000E+00	0.0000000000E+00	6.5000000000E+03	6.5000000000E+03	9.3827000000E-01	0.000E+00	0.0
	2212	-1	0	0	0	0	0.0000000000E+00	0.0000000000E+00	-6.5000000000E+03	6.5000000000E+03	9.3827000000E-01	0.000E+00	0.0
	2212	1	0	0	0	0	0.0000000000E+00	0.0000000000E+00	5.4622555879E+03	5.4622555879E+03	9.3827000000E-01	0.000E+00	0.0
	2212	1	0	0	0	0	0.0000000000E+00	0.0000000000E+00	-6.2326599914E+03	6.2326599914E+03	9.3827000000E-01	0.000E+00	0.0
	51	2	1	2	0	0	-2.2129093574E+00	1.3296807696E+02	7.0769170952E+02	1.2760232609E+03	1.0534336240E+03	0.000E+00	0.0
	1000022	2	5	5	0	0	2.2129093574E+00	-1.3296807696E+02	7.0053100368E+02	1.1095414054E+03	8.5009001683E+02	0.000E+00	0.0
	14	1	6	6	0	0	3.1115074833E+01	-3.1001322320E+02	2.1656916623E+02	4.9960339290E+02	3.2500000000E+02	0.000E+00	0.0
	-14	1	6	6	0	0	-2.8902165475E+01	1.7704514624E+02	4.8396183744E+02	6.0993801249E+02	3.2500000000E+02	0.000E+00	0.0
	25	2	5	5	0	0	-2.2129093574E+00	1.3296807696E+02	6.9873399887E+01	1.9554301533E+02	1.2517736366E+02	0.000E+00	0.0
	-5	1	9	9	0	501	4.9800977211E+01	1.1800231079E+02	4.4881325548E+01	1.3578103132E+02	4.1800000000E+00	0.000E+00	0.0
	5	1	9	9	501	0	-5.2013886568E+01	1.4965766166E+01	2.4992074339E+01	5.9761984008E+01	4.1800000000E+00	0.000E+00	0.0
</event>
<event>
    11  -1  1.0000000E+00  1.0000000E+00  -1.0000000E+00  -1.0000000E+00
	2212	-1	0	0	0	0	0.0000000000E+00	0.0000000000E+00	6.5000000000E+03	6.5000000000E+03	9.3827000000E-01	0.000E+00	0.0
	2212	-1	0	0	0	0	0.0000000000E+00	0.0000000000E+00	-6.5000000000E+03	6.5000000000E+03	9.3827000000E-01	0.000E+00	0.0
	2212	1	0	0	0	0	0.0000000000E+00	0.0000000000E+00	5.5052458734E+03	5.5052458734E+03	9.3827000000E-01	0.000E+00	0.0
	2212	1	0	0	0	0	0.0000000000E+00	0.0000000000E+00	-6.2174686805E+03	6.2174686805E+03	9.3827000000E-01	0.000E+00	0.0
	51	2	1	2	0	0	1.2934918180E+01	7.1795498798E+01	5.6908593855E+02	1.2055610707E+03	1.0602814645E+03	0.000E+00	0.0
	1000022	2	5	5	0	0	-1.2934918180E+01	-7.1795498798E+01	7.3369358307E+02	1.1308164026E+03	8.5738996771E+02	0.000E+00	0.0
	14	1	6	6	0	0	1.8577764409E+02	1.5112683630E+02	4.5751665962E+02	6.1016321384E+02	3.2500000000E+02	0.000E+00	0.0
	-14	1	6	6	0	0	-1.9871256227E+02	-2.2292233510E+02	2.7617692344E+02	5.2065318873E+02	3.2500000000E+02	0.000E+00	0.0
	25	2	5	5	0	0	1.2934918180E+01	7.1795498798E+01	-2.1470775959E+01	1.4646904353E+02	1.2518099192E+02	0.000E+00	0.0
	-5	1	9	9	0	501	-5.2334765316E+01	5.7418158099E+01	-8.5760210581E+00	7.8273833926E+01	4.1800000000E+00	0.000E+00	0.0
	5	1	9	9	501	0	6.5269683497E+01	1.4377340699E+01	-1.2894754901E+01	6.8195209606E+01	4.1800000000E+00	0.000E+00	0.0
</event>
<event>
    11  -1  1.0000000E+00  1.0000000E+00  -1.0000000E+00  -1.0000000E+00
	2212	-1	0	0	0	0	0.0000000000E+00	0.0000000000E+00	6.5000000000E+03	6.5000000000E+03	9.3827000000E-01	0.000E+00	0.0
	2212	-1	0	0	0	0	0.0000000000E+00	0.0000000000E+00	-6.5000000000E+03	6.5000000000E+03	9.3827000000E-01	0.000E+00	0.0
	2212	1	0	0	0	0	0.0000000000E+00	0.0000000000E+00	6.2644369345E+03	6.2644369345E+03	9.3827000000E-01	0.000E+00	0.0
	2212	1	0	0	0	0	0.0000000000E+00	0.0000000000E+00	-5.3226936386E+03	5.3226936386E+03	9.3827000000E-01	0.000E+00	0.0
	51	2	1	2	0	0	5.2228570991E+01	5.5906793908E+01	-7.7043306249E+02	1.3071878515E+03	1.0532424138E+03	0.000E+00	0.0
	1000022	2	5	5	0	0	-5.2228570991E+01	-5.5906793908E+01	-9.4479272631E+02	1.2661143295E+03	8.3938001314E+02	0.000E+00	0.0
	14	1	6	6	0	0	1.4839409781E+01	4.9170211229E+01	-8.6932541044E+01	3.4032364662E+02	3.2500000000E+02	0.000E+00	0.0
	-14	1	6	6	0	0	-6.7067980771E+01	-1.0507700514E+02	-8.5786018527E+02	9.2579068289E+02	3.2500000000E+02	0.000E+00	0.0
	25	2	5	5	0	0	5.2228570991E+01	5.5906793908E+01	3.0494304416E+00	1.4675509740E+02	1.2519730969E+02	0.000E+00	0.0
	-5	1	9	9	0	501	8.1108400705E+01	7.4429363829E+01	-8.0430197719E+00	1.1045571706E+02	4.1800000000E+00	0.000E+00	0.0
	5	1	9	9	501	0	-2.8879829715E+01	-1.8522569921E+01	1.1092450214E+01	3.6299380333E+01	4.1800000000E+00	0.000E+00	0.0
</event>
<event>
    11  -1  1.0000000E+00  1.0000000E+00  -1.0000000E+00  -1.0000000E+00
	2212	-1	0	0	0	0	0.0000000000E+00	0.0000000000E+00	6.5000000000E+03	6.5000000000E+03	9.3827000000E-01	0.000E+00	0.0
	2212	-1	0	0	0	0	0.0000000000E+00	0.0000000000E+00	-6.5000000000E+03	6.5000000000E+03	9.3827000000E-01	0.000E+00	0.0
	2212	1	0	0	0	0	0.0000000000E+00	0.0000000000E+00	6.0062700672E+03	6.0062700672E+03	9.3827000000E-01	0.000E+00	0.0
	2212	1	0	0	0	0	0.0000000000E+00	0.0000000000E+00	-5.9457509193E+03	5.9457509193E+03	9.3827000000E-01	0.000E+00	0.0
	51	2	1	2	0	0	-7.6831662179E+00	9.7457364133E+01	7.5879832073E+00	1.0508149180E+03	1.0462301111E+03	0.000E+00	0.0
	1000022	2	5	5	0	0	7.6831662179E+00	-9.7457364133E+01	-1.1901469156E+02	8.7870418399E+02	8.6510090584E+02	0.000E+00	0.0
	14	1	6	6	0	0	1.7179519853E+02	4.9204189852E+01	1.5293647188E+02	4.0118475416E+02	3.2500000000E+02	0.000E+00	0.0
	-14	1	6	6	0	0	-1.6411203231E+02	-1.4666155399E+02	-2.7195116344E+02	4.7751942983E+02	3.2500000000E+02	0.000E+00	0.0
	25	2	5	5	0	0	-7.6831662179E+00	9.7457364133E+01	5.8495543667E+01	1.6927482951E+02	1.2520092016E+02	0.000E+00	0.0
	-5	1	9	9	0	501	-1.9566497661E+01	3.0627837828E+01	-3.7004151777E+01	5.2035487213E+01	4.1800000000E+00	0.000E+00	0.0
	5	1	9	9	501	0	1.1883331443E+01	6.6829526305E+01	9.5499695445E+01	1.1723934230E+02	4.1800000000E+00	0.000E+00	0.0
</event>
<event>
    11  -1  1.0000000E+00  1.0000000E+00  -1.0000000E+00  -1.0000000E+00
	2212	-1	0	0	0	0	0.0000000000E+00	0.0000000000E+00	6.5000000000E+03	6.5000000000E+03	9.3827000000E-01	0.000E+00	0.0
	2212	-1	0	0	0	0	0.0000000000E+00	0.0000000000E+00	-6.5000000000E+03	6.5000000000E+03	9.3827000000E-01	0.000E+00	0.0
	2212	1	0	0	0	0	0.0000000000E+00	0.0000000000E+00	5.2204488545E+03	5.2204488545E+03	9.3827000000E-01	0.000E+00	0.0
	2212	1	0	0	0	0	0.0000000000E+00	0.0000000000E+00	-6.2869039800E+03	6.2869039800E+03	9.3827000000E-01	0.000E+00	0.0
	51	2	1	2	0	0	2.3516637754E+01	9.4339459442E+01	1.2146300863E+03	1.6048203134E+03	1.0443510070E+03	0.000E+00	0.0
	1000022	2	5	5	0	0	-2.3516637754E+01	-9.4339459442E+01	7.3759586359E+02	1.1275820734E+03	8.4731381934E+02	0.000E+00	0.0
	14	1	6	6	0	0	5.9039477075E+01	-2.3185123093E+02	1.3714559081E+02	4.2623299522E+02	3.2500000000E+02	0.000E+00	0.0
	-14	1	6	6	0	0	-8.2556114830E+01	1.3751177149E+02	6.0045027278E+02	7.0134907819E+02	3.2500000000E+02	0.000E+00	0.0
	25	2	5	5	0	0	2.3516637754E+01	9.4339459442E+01	3.2885926199E+02	3.6506509207E+02	1.2518442952E+02	0.000E+00	0.0
	-5	1	9	9	0	501	-1.8609313525E+01	-1.4182166980E+01	1.4829287502E+02	1.5018551725E+02	4.1800000000E+00	0.000E+00	0.0
	5	1	9	9	501	0	4.2125951280E+01	1.0852162642E+02	1.8056638697E+02	2.1487957482E+02	4.1800000000E+00	0.000E+00	0.0
</event>
<event>
    11  -1  1.0000000E+00  1.0000000E+00  -1.0000000E+00  -1.0000000E+00
	2212	-1	0	0	0	0	0.0000000000E+00	0.0000000000E+00	6.5000000000E+03	6.5000000000E+03	9.3827000000E-01	0.000E+00	0.0
	2212	-1	0	0	0	0	0.0000000000E+00	0.0000000000E+00	-6.5000000000E+03	6.5000000000E+03	9.3827000000E-01	0.000E+00	0.0
	2212	1	0	0	0	0	0.0000000000E+00	0.0000000000E+00	5.9887923334E+03	5.9887923334E+03	9.3827000000E-01	0.000E+00	0.0
	2212	1	0	0	0	0	0.0000000000E+00	0.0000000000E+00	-5.9626328019E+03	5.9626328019E+03	9.3827000000E-01	0.000E+00	0.0
	51	2	1	2	0	0	5.3233547897E+00	1.0334306643E+02	1.8661687991E+01	1.0535090469E+03	1.0482485038E+03	0.000E+00	0.0
	1000022	2	5	5	0	0	-5.3233547897E+00	-1.0334306643E+02	-6.6926435754E+01	8.8112810355E+02	8.7246745474E+02	0.000E+00	0.0
	14	1	6	6	0	0	1.9303879678E+02	1.1983591243E+02	1.0052195874E+02	4.0908958330E+02	3.2500000000E+02	0.000E+00	0.0
	-14	1	6	6	0	0	-1.9836215157E+02	-2.2317897887E+02	-1.6744839450E+02	4.7203852025E+02	3.2500000000E+02	0.000E+00	0.0
	25	2	5	5	0	0	5.3233547897E+00	1.0334306643E+02	4.0766904318E+01	1.6744676115E+02	1.2517327928E+02	0.000E+00	0.0
	-5	1	9	9	0	501	-7.4689944003E+00	1.1867888561E+02	6.5147915197E+01	1.3565466089E+02	4.1800000000E+00	0.000E+00	0.0
	5	1	9	9	501	0	1.2792349190E+01	-1.5335819175E+01	-2.4381010880E+01	3.1792100263E+01	4.1800000000E+00	0.000E+00	0.0
</event>
<event>
    11  -1  1.0000000E+00  1.0000000E+00  -1.0000000E+00  -1.0000000E+00
	2212	-1	0	0	0	0	0.0000000000E+00	0.0000000000E+00	6.5000000000E+03	6.5000000000E+03	9.3827000000E-01	0.000E+00	0.0
	2212	-1	0	0	0	0	0.0000000000E+00	0.0000000000E+00	-6.5000000000E+03	6.5000000000E+03	9.3827000000E-01	0.000E+00	0.0
	2212	1	0	0	0	0	0.0000000000E+00	0.0000000000E+00	6.2451402235E+03	6.2451402235E+03	9.3827000000E-01	0.000E+00	0.0
	2212	1	0	0	0	0	0.0000000000E+00	0.0000000000E+00	-5.4398838917E+03	5.4398838917E+03	9.3827000000E-01	0.000E+00	0.0
	51	2	1	2	0	0	1.1204555619E+02	-7.3660282470E+00	-8.5446254865E+02	1.3503475589E+03	1.0395786731E+03	0.000E+00	0.0
	1000022	2	5	5	0	0	-1.1204555619E+02	7.3660282470E+00	-6.2815595122E+02	1.0707542651E+03	8.5984087602E+02	0.000E+00	0.0
	14	1	6	6	0	0	1.6494471841E+02	1.4501667829E+02	-1.6386040809E+02	4.2510214120E+02	3.2500000000E+02	0.000E+00	0.0
	-14	1	6	6	0	0	-2.7699027460E+02	-1.3765065005E+02	-4.6429554313E+02	6.4565212386E+02	3.2500000000E+02	0.000E+00	0.0
	25	2	5	5	0	0	1.1204555619E+02	-7.3660282470E+00	-1.7710038058E+02	2.4422161972E+02	1.2518462246E+02	0.000E+00	0.0
	-5	1	9	9	0	501	1.7457100819E+01	5.2765091520E+01	-5.2379492773E+01	7.6485220241E+01	4.1800000000E+00	0.000E+00	0.0
	5	1	9	9	501	0	9.4588455368E+01	-6.0131119767E+01	-1.2472088781E+02	1.6773639948E+02	4.1800000000E+00	0.000E+00	0.0
</event>
<event>
    11  -1  1.0000000E+00  1.0000000E+00  -1.0000000E+00  -1.0000000E+00
	2212	-1	0	0	0	0	0.0000000000E+00	0.0000000000E+00	6.5000000000E+03	6.5000000000E+03	9.3827000000E-01	0.000E+00	0.0
	2212	-1	0	0	0	0	0.0000000000E+00	0.0000000000E+00	-6.5000000000E+03	6.5000000000E+03	9.3827000000E-01	0.000E+00	0.0
	2212	1	0	0	0	0	0.0000000000E+00	0.0000000000E+00	6.2593345477E+03	6.2593345477E+03	9.3827000000E-01	0.000E+00	0.0
	2212	1	0	0	0	0	0.0000000000E+00	0.0000000000E+00	-5.3913677550E+03	5.3913677550E+03	9.3827000000E-01	0.000E+00	0.0
	51	2	1	2	0	0	-4.9414298666E+01	1.1084725548E+02	-9.0425197047E+02	1.3782737158E+03	1.0330720800E+03	0.000E+00	0.0
	1000022	2	5	5	0	0	4.9414298666E+01	-1.1084725548E+02	-6.9010901084E+02	1.1002400000E+03	8.4826217867E+02	0.000E+00	0.0
	14	1	6	6	0	0	1.6685158191E+02	1.7803118222E+02	-3.1920416810E+02	5.1676963258E+02	3.2500000000E+02	0.000E+00	0.0
	-14	1	6	6	0	0	-1.1743728324E+02	-2.8887843770E+02	-3.7090484274E+02	5.8347036740E+02	3.2500000000E+02	0.000E+00	0.0
	25	2	5	5	0	0	-4.9414298666E+01	1.1084725548E+02	-1.7785778194E+02	2.4905769730E+02	1.2516972090E+02	0.000E+00	0.0
	-5	1	9	9	0	501	1.1929008350E+01	1.0766810390E+02	-1.3891035720E+02	1.7620522573E+02	4.1800000000E+00	0.000E+00	0.0
	5	1	9	9	501	0	-6.1343307016E+01	3.1791515820E+00	-3.8947424732E+01	7.2852471569E+01	4.1800000000E+00	0.000E+00	0.0
</event>
<event>
    11  -1  1.0000000E+00  1.0000000E+00  -1.0000000E+00  -1.0000000E+00
	2212	-1	0	0	0	0	0.0000000000E+00	0.0000000000E+00	6.5000000000E+03	6.5000000000E+03	9.3827000000E-01	0.000E+00	0.0
	2212	-1	0	0	0	0	0.0000000000E+00	0.0000000000E+00	-6.5000000000E+03	6.5000000000E+03	9.3827000000E-01	0.000E+00	0.0
	2212	1	0	0	0	0	0.0000000000E+00	0.0000000000E+00	6.1329522744E+03	6.1329522744E+03	9.3827000000E-01	0.000E+00	0.0
	2212	1	0	0	0	0	0.0000000000E+00	0.0000000000E+00	-5.7794334892E+03	5.7794334892E+03	9.3827000000E-01	0.000E+00	0.0
	51	2	1	2	0	0	2.3362980413E+01	1.0791300531E+02	-4.0771730771E+02	1.1119144052E+03	1.0285568510E+03	0.000E+00	0.0
	1000022	2	5	5	0	0	-2.3362980413E+01	-1.0791300531E+02	-2.4197414279E+02	8.8688650848E+02	8.4606450556E+02	0.000E+00	0.0
	14	1	6	6	0	0	-1.9155546695E+02	1.3962773623E+02	-5.0658451503E+01	4.0543887375E+02	3.2500000000E+02	0.000E+00	0.0
	-14	1	6	6	0	0	1.6819248653E+02	-2.4754074153E+02	-1.9131569129E+02	4.8144763472E+02	3.2500000000E+02	0.000E+00	0.0
	25	2	5	5	0	0	2.3362980413E+01	1.0791300531E+02	-1.1154464242E+02	2.0072772797E+02	1.2513340065E+02	0.000E+00	0.0
	-5	1	9	9	0	501	7.2035028411E+01	5.1844242866E+01	-3.9663710072E+01	9.7301352165E+01	4.1800000000E+00	0.000E+00	0.0
	5	1	9	9	501	0	-4.8672047999E+01	5.6068762439E+01	-7.1880932344E+01	1.0342637581E+02	4.1800000000E+00	0.000E+00	0.0
</event>
<event>
    11  -1  1.0000000E+00  1.0000000E+00  -1.0000000E+00  -1.0000000E+00
	2212	-1	0	0	0	0	0.0000000000E+00	0.0000000000E+00	6.5000000000E+03	6.5000000000E+03	9.3827000000E-01	0.000E+00	0.0
	2212	-1	0	0	0	0	0.0000000000E+00	0.0000000000E+00	-6.5000000000E+03	6.5000000000E+03	9.3827000000E-01	0.000E+00	0.0
	2212	1	0	0	0	0	0.0000000000E+00	0.0000000000E+00	4.8603689541E+03	4.8603689541E+03	9.3827000000E-01	0.000E+00	0.0
	2212	1	0	0	0	0	0.0000000000E+00	0.0000000000E+00	-6.3314856206E+03	6.3314856206E+03	9.3827000000E-01	0.000E+00	0.0
	51	2	1	2	0	0	-8.5350818892E+01	1.1696858105E+02	1.4978025456E+03	1.8356428056E+03	1.0512876071E+03	0.000E+00	0.0
	1000022	2	5	5	0	0	8.5350818892E+01	-1.1696858105E+02	1.1903117108E+03	1.4683109911E+03	8.4742479697E+02	0.000E+00	0.0
	14	1	6	6	0	0	-1.8585131577E+02	-1.1272768328E+02	3.3869741942E+02	5.1729023195E+02	3.2500000000E+02	0.000E+00	0.0
	-14	1	6	6	0	0	2.7120213466E+02	-4.2408977621E+00	8.5161429141E+02	9.5102075918E+02	3.2500000000E+02	0.000E+00	0.0
	25	2	5	5	0	0	-8.5350818892E+01	1.1696858105E+02	2.8080495562E+02	3.3983443420E+02	1.2517830614E+02	0.000E+00	0.0
	-5	1	9	9	0	501	-1.0464289551E+02	9.7229714378E+01	2.7696205584E+02	3.1165558829E+02	4.1800000000E+00	0.000E+00	0.0
	5	1	9	9	501	0	1.9292076619E+01	1.9738866667E+01	3.8428997773E+00	2.8178845901E+01	4.1800000000E+00	0.000E+00	0.0
</event>
<event>
    11  -1  1.0000000E+00  1.0000000E+00  -1.0000000E+00  -1.0000000E+00
	2212	-1	0	0	0	0	0.0000000000E+00	0.0000000000E+00	6.5000000000E+03	6.5000000000E+03	9.3827000000E-01	0.000E+00	0.0
	2212	-1	0	0	0	0	0.0000000000E+00	0.0000000000E+00	-6.5000000000E+03	6.5000000000E+03	9.3827000000E-01	0.000E+00	0.0
	2212	1	0	0	0	0	0.0000000000E+00	0.0000000000E+00	5.6990409010E+03	5.6990409010E+03	9.3827000000E-01	0.000E+00	0.0
	2212	1	0	0	0	0	0.0000000000E+00	0.0000000000E+00	-6.1651959120E+03	6.1651959120E+03	9.3827000000E-01	0.000E+00	0.0
	51	2	1	2	0	0	1.3381181062E+02	-9.2491791295E+01	4.7271526597E+02	1.1500337288E+03	1.0356918087E+03	0.000E+00	0.0
	1000022	2	5	5	0	0	-1.3381181062E+02	9.2491791295E+01	3.7292517264E+02	9.1032657404E+02	8.1434694995E+02	0.000E+00	0.0
	14	1	6	6	0	0	1.4449256769E+02	1.6293082168E+02	2.2962408368E+02	4.5362624988E+02	3.2500000000E+02	0.000E+00	0.0
	-14	1	6	6	0	0	-2.7830437831E+02	-7.0439030389E+01	1.4330108896E+02	4.5670032416E+02	3.2500000000E+02	0.000E+00	0.0
	25	2	5	5	0	0	1.3381181062E+02	-9.2491791295E+01	9.3229838332E+01	2.2543661292E+02	1.2517799956E+02	0.000E+00	0.0
	-5	1	9	9	0	501	1.1720733894E+02	-3.1736077202E+01	1.0576075113E+02	1.6108242541E+02	4.1800000000E+00	0.000E+00	0.0
	5	1	9	9	501	0	1.6604471677E+01	-6.0755714093E+01	-1.2530912795E+01	6.4354187510E+01	4.1800000000E+00	0.000E+00	0.0
</event>
<event>
    11  -1  1.0000000E+00  1.0000000E+00  -1.0000000E+00  -1.0000000E+00
	2212	-1	0	0	0	0	0.0000000000E+00	0.0000000000E+00	6.5000000000E+03	6.5000000000E+03	9.3827000000E-01	0.000E+00	0.0
	2212	-1	0	0	0	0	0.0000000000E+00	0.0000000000E+00	-6.5000000000E+03	6.5000000000E+03	9.3827000000E-01	0.000E+00	0.0
	2212	1	0	0	0	0	0.0000000000E+00	0.0000000000E+00	5.9864842923E+03	5.9864842923E+03	9.3827000000E-01	0.000E+00	0.0
	2212	1	0	0	0	0	0.0000000000E+00	0.0000000000E+00	-5.9672012966E+03	5.9672012966E+03	9.3827000000E-01	0.000E+00	0.0
	51	2	1	2	0	0	1.2960690968E+02	5.1471122879E+01	1.9035300633E+01	1.0555622119E+03	1.0461367086E+03	0.000E+00	0.0
	1000022	2	5	5	0	0	-1.2960690968E+02	-5.1471122879E+01	-5.4258294551E+01	8.5567225958E+02	8.4248669174E+02	0.000E+00	0.0
	14	1	6	6	0	0	1.1641657577E+02	1.7324384158E+02	-5.5463452155E+01	3.9021461054E+02	3.2500000000E+02	0.000E+00	0.0
	-14	1	6	6	0	0	-2.4602348545E+02	-2.2471496446E+02	1.2051576032E+00	4.6545764904E+02	3.2500000000E+02	0.000E+00	0.0
	25	2	5	5	0	0	1.2960690968E+02	5.1471122879E+01	3.4975298828E+01	1.9064215154E+02	1.2519557056E+02	0.000E+00	0.0
	-5	1	9	9	0	501	4.3691639243E+01	1.7290601108E+01	7.5958676361E+01	8.9415418921E+01	4.1800000000E+00	0.000E+00	0.0
	5	1	9	9	501	0	8.5915270437E+01	3.4180521771E+01	-4.0983377533E+01	1.0122673262E+02	4.1800000000E+00	0.000E+00	0.0
</event>
<event>
    11  -1  1.0000000E+00  1.0000000E+00  -1.0000000E+00  -1.0000000E+00
	2212	-1	0	0	0	0	0.0000000000E+00	0.0000000000E+00	6.5000000000E+03	6.5000000000E+03	9.3827000000E-01	0.000E+00	0.0
	2212	-1	0	0	0	0	0.0000000000E+00	0.0000000000E+00	-6.5000000000E+03	6.5000000000E+03	9.3827000000E-01	0.000E+00	0.0
	2212	1	0	0	0	0	0.0000000000E+00	0.0000000000E+00	6.2998395663E+03	6.2998395663E+03	9.3827000000E-01	0.000E+00	0.0
	2212	1	0	0	0	0	0.0000000000E+00	0.0000000000E+00	-5.1281851263E+03	5.1281851263E+03	9.3827000000E-01	0.000E+00	0.0
	51	2	1	2	0	0	2.2091118351E+01	5.0373416713E+01	-9.9386166599E+02	1.4453784107E+03	1.0480134734E+03	0.000E+00	0.0
	1000022	2	5	5	0	0	-2.2091118351E+01	-5.0373416713E+01	-1.1521489991E+03	1.4338628228E+03	8.5175687832E+02	0.000E+00	0.0
	14	1	6	6	0	0	1.4750289381E+02	-1.3158217171E+02	-2.4600342248E+02	4.5300513845E+02	3.2500000000E+02	0.000E+00	0.0
	-14	1	6	6	0	0	-1.6959401216E+02	8.1208754998E+01	-9.0614557661E+02	9.8085768431E+02	3.2500000000E+02	0.000E+00	0.0
	25	2	5	5	0	0	2.2091118351E+01	5.0373416713E+01	-1.9505440904E+01	1.3811248470E+02	1.2517626606E+02	0.000E+00	0.0
	-5	1	9	9	0	501	4.1015789482E+01	-1.4589913301E+01	3.0973073972E+01	5.3590710653E+01	4.1800000000E+00	0.000E+00	0.0
	5	1	9	9	501	0	-1.8924671131E+01	6.4963330014E+01	-5.0478514876E+01	8.4521774047E+01	4.1800000000E+00	0.000E+00	0.0
</event>
<event>
    11  -1  1.0000000E+00  1.0000000E+00  -1.0000000E+00  -1.0000000E+00
	2212	-1	0	0	0	0	0.0000000000E+00	0.0000000000E+00	6.5000000000E+03	6.5000000000E+03	9.3827000000E-01	0.000E+00	0.0
	2212	-1	0	0	0	0	0.0000000000E+00	0.0000000000E+00	-6.5000000000E+03	6.5000000000E+03	9.3827000000E-01	0.000E+00	0.0
	2212	1	0	0	0	0	0.0000000000E+00	0.0000000000E+00	5.2053104861E+03	5.2053104861E+03	9.3827000000E-01	0.000E+00	0.0
	2212	1	0	0	0	0	0.0000000000E+00	0.0000000000E+00	-6.2881321654E+03	6.2881321654E+03	9.3827000000E-01	0.000E+00	0.0
	51	2	1	2	0	0	9.9990440811E+01	-6.9451094840E+01	9.0462256847E+02	1.3893796419E+03	1.0474789998E+03	0.000E+00	0.0
	1000022	2	5	5	0	0	-9.9990440811E+01	6.9451094840E+01	1.0489514067E+03	1.3286775271E+03	8.0638909618E+02	0.000E+00	0.0
	14	1	6	6	0	0	-2.7600860585E+02	-4.4633227221E+01	5.5141088850E+02	6.9846391706E+02	3.2500000000E+02	0.000E+00	0.0
	-14	1	6	6	0	0	1.7601816504E+02	1.1408432206E+02	4.9754051824E+02	6.3021361002E+02	3.2500000000E+02	0.000E+00	0.0
	25	2	5	5	0	0	9.9990440811E+01	-6.9451094840E+01	3.3870272561E+01	1.7787982139E+02	1.2518982653E+02	0.000E+00	0.0
	-5	1	9	9	0	501	9.6186765764E+01	-5.1062831289E+01	-2.8470739380E+01	1.1263819090E+02	4.1800000000E+00	0.000E+00	0.0
	5	1	9	9	501	0	3.8036750473E+00	-1.8388263551E+01	6.2341011941E+01	6.5241630499E+01	4.1800000000E+00	0.000E+00	0.0
</event>
<event>
    11  -1  1.0000000E+00  1.0000000E+00  -1.0000000E+00  -1.0000000E+00
	2212	-1	0	0	0	0	0.0000000000E+00	0.0000000000E+00	6.5000000000E+03	6.5000000000E+03	9.3827000000E-01	0.000E+00	0.0
	2212	-1	0	0	0	0	0.0000000000E+00	0.0000000000E+00	-6.5000000000E+03	6.5000000000E+03	9.3827000000E-01	0.000E+00	0.0
	2212	1	0	0	0	0	0.0000000000E+00	0.0000000000E+00	5.5611279327E+03	5.5611279327E+03	9.3827000000E-01	0.000E+00	0.0
	2212	1	0	0	0	0	0.0000000000E+00	0.0000000000E+00	-6.2082234807E+03	6.2082234807E+03	9.3827000000E-01	0.000E+00	0.0
	51	2	1	2	0	0	3.8952199990E+01	-1.0238956611E+02	5.5146021494E+02	1.1882224376E+03	1.0467871300E+03	0.000E+00	0.0
	1000022	2	5	5	0	0	-3.8952199990E+01	1.0238956611E+02	6.3262578851E+02	1.0636764838E+03	8.4805151772E+02	0.000E+00	0.0
	14	1	6	6	0	0	2.3262119572E+01	3.2097592454E+02	3.6619337307E+02	5.8590891513E+02	3.2500000000E+02	0.000E+00	0.0
	-14	1	6	6	0	0	-6.2214319562E+01	-2.1858635843E+02	2.6643241544E+02	4.7776756864E+02	3.2500000000E+02	0.000E+00	0.0
	25	2	5	5	0	0	3.8952199990E+01	-1.0238956611E+02	1.4469759481E+01	1.6697210283E+02	1.2517752214E+02	0.000E+00	0.0
	-5	1	9	9	0	501	3.3058926886E+00	-5.9869589673E+01	6.7307815378E+01	9.0239188300E+01	4.1800000000E+00	0.000E+00	0.0
	5	1	9	9	501	0	3.5646307302E+01	-4.2519976440E+01	-5.2838055897E+01	7.6732914526E+01	4.1800000000E+00	0.000E+00	0.0
</event>
<event>
    11  -1  1.0000000E+00  1.0000000E+00  -1.0000000E+00  -1.0000000E+00
	2212	-1	0	0	0	0	0.0000000000E+00	0.0000000000E+00	6.5000000000E+03	6.5000000000E+03	9.3827000000E-01	0.000E+00	0.0
	2212	-1	0	0	0	0	0.0000000000E+00	0.0000000000E+00	-6.5000000000E+03	6.5000000000E+03	9.3827000000E-01	0.000E+00	0.0
	2212	1	0	0	0	0	0.0000000000E+00	0.0000000000E+00	6.0900940927E+03	6.0900940927E+03	9.3827000000E-01	0.000E+00	0.0
	2212	1	0	0	0	0	0.0000000000E+00	0.0000000000E+00	-5.8248580170E+03	5.8248580170E+03	9.3827000000E-01	0.000E+00	0.0
	51	2	1	2	0	0	-5.9903739591E+01	1.3149154094E+02	-2.6791701004E+02	1.0952793050E+03	1.0521305757E+03	0.000E+00	0.0
	1000022	2	5	5	0	0	5.9903739591E+01	-1.3149154094E+02	-2.1685044965E+02	8.8784424998E+02	8.4874307736E+02	0.000E+00	0.0
	14	1	6	6	0	0	-1.6807414656E+02	-4.0293531235E+01	-2.9667039087E+02	4.7276929704E+02	3.2500000000E+02	0.000E+00	0.0
	-14	1	6	6	0	0	2.2797788615E+02	-9.1198009702E+01	7.9819941216E+01	4.1507495295E+02	3.2500000000E+02	0.000E+00	0.0
	25	2	5	5	0	0	-5.9903739591E+01	1.3149154094E+02	-4.8385626082E+01	1.9720364032E+02	1.2517836710E+02	0.000E+00	0.0
	-5	1	9	9	0	501	-1.9141878255E+01	1.1542974687E+02	-8.1048295054E+01	1.4239640620E+02	4.1800000000E+00	0.000E+00	0.0
	5	1	9	9	501	0	-4.0761861337E+01	1.6061794062E+01	3.2662668972E+01	5.4807234126E+01	4.1800000000E+00	0.000E+00	0.0
</event>
<event>
    11  -1  1.0000000E+00  1.0000000E+00  -1.0000000E+00  -1.0000000E+00
	2212	-1	0	0	0	0	0.0000000000E+00	0.0000000000E+00	6.5000000000E+03	6.5000000000E+03	9.3827000000E-01	0.000E+00	0.0
	2212	-1	0	0	0	0	0.0000000000E+00	0.0000000000E+00	-6.5000000000E+03	6.5000000000E+03	9.3827000000E-01	0.000E+00	0.0
	2212	1	0	0	0	0	0.0000000000E+00	0.0000000000E+00	6.0835745586E+03	6.0835745586E+03	9.3827000000E-01	0.000E+00	0.0
	2212	1	0	0	0	0	0.0000000000E+00	0.0000000000E+00	-5.8361577294E+03	5.8361577294E+03	9.3827000000E-01	0.000E+00	0.0
	51	2	1	2	0	0	7.8890114467E+01	-5.5289190054E+01	-1.3848163923E+02	1.0649980991E+03	1.0515527766E+03	0.000E+00	0.0
	1000022	2	5	5	0	0	-7.8890114467E+01	5.5289190054E+01	-3.1362963447E+02	9.0900347835E+02	8.4772827683E+02	0.000E+00	0.0
	14	1	6	6	0	0	-5.6514453589E+00	-1.6328708864E+02	-3.5516558980E+02	5.0839178625E+02	3.2500000000E+02	0.000E+00	0.0
	-14	1	6	6	0	0	-7.3238669108E+01	2.1857627869E+02	4.1535955324E+01	4.0061169210E+02	3.2500000000E+02	0.000E+00	0.0
	25	2	5	5	0	0	7.8890114467E+01	-5.5289190054E+01	6.6212805250E+01	1.7126423358E+02	1.2516691826E+02	0.000E+00	0.0
	-5	1	9	9	0	501	1.0020578329E+02	-7.6144165634E+01	6.3505467824E+01	1.4103031521E+02	4.1800000000E+00	0.000E+00	0.0
	5	1	9	9	501	0	-2.1315668827E+01	2.0854975580E+01	2.7073374256E+00	3.0233918369E+01	4.1800000000E+00	0.000E+00	0.0
</event>
<event>
    11  -1  1.0000000E+00  1.0000000E+00  -1.0000000E+00  -1.0000000E+00
	2212	-1	0	0	0	0	0.0000000000E+00	0.0000000000E+00	6.5000000000E+03	6.5000000000E+03	9.3827000000E-01	0.000E+00	0.0
	2212	-1	0	0	0	0	0.0000000000E+00	0.0000000000E+00	-6.5000000000E+03	6.5000000000E+03	9.3827000000E-01	0.000E+00	0.0
	2212	1	0	0	0	0	0.0000000000E+00	0.0000000000E+00	4.9434812860E+03	4.9434812860E+03	9.3827000000E-01	0.000E+00	0.0
	2212	1	0	0	0	0	0.0000000000E+00	0.0000000000E+00	-6.3230128786E+03	6.3230128786E+03	9.3827000000E-01	0.000E+00	0.0
	51	2	1	2	0	0	6.3730147184E+01	1.4621207485E+02	1.4724681949E+03	1.8153614388E+03	1.0497309494E+03	0.000E+00	0.0
	1000022	2	5	5	0	0	-6.3730147184E+01	-1.4621207485E+02	1.0305088056E+03	1.3298548500E+03	8.2530359336E+02	0.000E+00	0.0
	14	1	6	6	0	0	-1.5630061590E+01	-1.9636917827E+02	1.8765836653E+02	4.2384645277E+02	3.2500000000E+02	0.000E+00	0.0
	-14	1	6	6	0	0	-4.8100085594E+01	5.0157103420E+01	8.4285043903E+02	9.0600839722E+02	3.2500000000E+02	0.000E+00	0.0
	25	2	5	5	0	0	6.3730147184E+01	1.4621207485E+02	3.4902278704E+02	4.0365098533E+02	1.2521066087E+02	0.000E+00	0.0
	-5	1	9	9	0	501	-3.4964900750E+01	2.9933060270E+01	1.1866332379E+02	1.2734594299E+02	4.1800000000E+00	0.000E+00	0.0
	5	1	9	9	501	0	9.8695047934E+01	1.1627901458E+02	2.3035946324E+02	2.7630504234E+02	4.1800000000E+00	0.000E+00	0.0
</event>
<event>
    11  -1  1.0000000E+00  1.0000000E+00  -1.0000000E+00  -1.0000000E+00
	2212	-1	0	0	0	0	0.0000000000E+00	0.0000000000E+00	6.5000000000E+03	6.5000000000E+03	9.3827000000E-01	0.000E+00	0.0
	2212	-1	0	0	0	0	0.0000000000E+00	0.0000000000E+00	-6.5000000000E+03	6.5000000000E+03	9.3827000000E-01	0.000E+00	0.0
	2212	1	0	0	0	0	0.0000000000E+00	0.0000000000E+00	5.3820205085E+03	5.3820205085E+03	9.3827000000E-01	0.000E+00	0.0
	2212	1	0	0	0	0	0.0000000000E+00	0.0000000000E+00	-6.2179450883E+03	6.2179450883E+03	9.3827000000E-01	0.000E+00	0.0
	51	2	1	2	0	0	1.8285641639E+02	6.0507706324E+01	1.0548416109E+03	1.5527765141E+03	1.1230878982E+03	0.000E+00	0.0
	1000022	2	5	5	0	0	-1.8285641639E+02	-6.0507706324E+01	4.2942727251E+02	9.3312658136E+02	8.0574175945E+02	0.000E+00	0.0
	14	1	6	6	0	0	1.4882069791E+02	-5.4491163409E+01	2.2376893485E+02	4.2522279245E+02	3.2500000000E+02	0.000E+00	0.0
	-14	1	6	6	0	0	-3.3167711430E+02	-6.0165429151E+00	2.0565833766E+02	5.0790378891E+02	3.2500000000E+02	0.000E+00	0.0
	25	2	5	5	0	0	1.8285641639E+02	6.0507706324E+01	4.0649730725E+02	4.6690782184E+02	1.2516070371E+02	0.000E+00	0.0
	-5	1	9	9	0	501	1.9270172298E+02	7.4343298885E+01	3.3731929988E+02	3.9555361533E+02	4.1800000000E+00	0.000E+00	0.0
	5	1	9	9	501	0	-9.8453065860E+00	-1.3835592561E+01	6.9178007368E+01	7.1354206510E+01	4.1800000000E+00	0.000E+00	0.0
</event>
<event>
    11  -1  1.0000000E+00  1.0000000E+00  -1.0000000E+00  -1.0000000E+00
	2212	-1	0	0	0	0	0.0000000000E+00	0.0000000000E+00	6.5000000000E+03	6.5000000000E+03	9.3827000000E-01	0.000E+00	0.0
	2212	-1	0	0	0	0	0.0000000000E+00	0.0000000000E+00	-6.5000000000E+03	6.5000000000E+03	9.3827000000E-01	0.000E+00	0.0
	2212	1	0	0	0	0	0.0000000000E+00	0.0000000000E+00	6.2949203867E+03	6.2949203867E+03	9.3827000000E-01	0.000E+00	0.0
	2212	1	0	0	0	0	0.0000000000E+00	0.0000000000E+00	-5.1268051229E+03	5.1268051229E+03	9.3827000000E-01	0.000E+00	0.0
	51	2	1	2	0	0	4.9984088175E+01	-9.8859644957E+01	-1.2760023370E+03	1.6634033485E+03	1.0613468319E+03	0.000E+00	0.0
	1000022	2	5	5	0	0	-4.9984088175E+01	9.8859644957E+01	-8.7075470375E+02	1.2371424961E+03	8.7180052937E+02	0.000E+00	0.0
	14	1	6	6	0	0	2.3938289646E+02	1.6981165969E+02	-4.3302936060E+02	6.1585679993E+02	3.2500000000E+02	0.000E+00	0.0
	-14	1	6	6	0	0	-2.8936698463E+02	-7.0952014731E+01	-4.3772534315E+02	6.2128569614E+02	3.2500000000E+02	0.000E+00	0.0
	25	2	5	5	0	0	4.9984088175E+01	-9.8859644957E+01	-2.9736056005E+02	3.4113199432E+02	1.2520421879E+02	0.000E+00	0.0
	-5	1	9	9	0	501	3.8021717993E+01	-5.5306881437E+01	-3.6807175398E+01	7.6659916086E+01	4.1800000000E+00	0.000E+00	0.0
	5	1	9	9	501	0	1.1962370181E+01	-4.3552763520E+01	-2.6055338466E+02	2.6447207824E+02	4.1800000000E+00	0.000E+00	0.0
</event>
<event>
    11  -1  1.0000000E+00  1.0000000E+00  -1.0000000E+00  -1.0000000E+00
	2212	-1	0	0	0	0	0.0000000000E+00	0.0000000000E+00	6.5000000000E+03	6.5000000000E+03	9.3827000000E-01	0.000E+00	0.0
	2212	-1	0	0	0	0	0.0000000000E+00	0.0000000000E+00	-6.5000000000E+03	6.5000000000E+03	9.3827000000E-01	0.000E+00	0.0
	2212	1	0	0	0	0	0.0000000000E+00	0.0000000000E+00	5.6334473349E+03	5.6334473349E+03	9.3827000000E-01	0.000E+00	0.0
	2212	1	0	0	0	0	0.0000000000E+00	0.0000000000E+00	-6.2219636615E+03	6.2219636615E+03	9.3827000000E-01	0.000E+00	0.0
	51	2	1	2	0	0	2.3174569670E+01	-5.3962172516E+01	5.9843755626E+02	1.1512206591E+03	9.8169879311E+02	0.000E+00	0.0
	1000022	2	5	5	0	0	-2.3174569670E+01	5.3962172516E+01	4.9664859833E+02	9.7858188642E+02	8.4113833671E+02	0.000E+00	0.0
	14	1	6	6	0	0	1.9236488936E+02	-1.0739815404E+02	3.6603300919E+02	5.3679025510E+02	3.2500000000E+02	0.000E+00	0.0
	-14	1	6	6	0	0	-2.1553945903E+02	1.6136032656E+02	1.3061558913E+02	4.4179163133E+02	3.2500000000E+02	0.000E+00	0.0
	25	2	5	5	0	0	2.3174569670E+01	-5.3962172516E+01	9.1867728295E+01	1.6600711715E+02	1.2517869907E+02	0.000E+00	0.0
	-5	1	9	9	0	501	4.8155569747E+01	1.4807593538E+01	7.5587283300E+01	9.0934776189E+01	4.1800000000E+00	0.000E+00	0.0
	5	1	9	9	501	0	-2.4981000077E+01	-6.8769766054E+01	1.6280444996E+01	7.5072340960E+01	4.1800000000E+00	0.000E+00	0.0
</event>
<event>
    11  -1  1.0000000E+00  1.0000000E+00  -1.0000000E+00  -1.0000000E+00
	2212	-1	0	0	0	0	0.0000000000E+00	0.0000000000E+00	6.5000000000E+03	6.5000000000E+03	9.3827000000E-01	0.000E+00	0.0
	2212	-1	0	0	0	0	0.0000000000E+00	0.0000000000E+00	-6.5000000000E+03	6.5000000000E+03	9.3827000000E-01	0.000E+00	0.0
	2212	1	0	0	0	0	0.0000000000E+00	0.0000000000E+00	6.1071948438E+03	6.1071948438E+03	9.3827000000E-01	0.000E+00	0.0
	2212	1	0	0	0	0	0.0000000000E+00	0.0000000000E+00	-5.7952489139E+03	5.7952489139E+03	9.3827000000E-01	0.000E+00	0.0
	51	2	1	2	0	0	8.5133992198E+01	6.8646860037E+01	-4.7893980266E+02	1.1613194928E+03	1.0522924697E+03	0.000E+00	0.0
	1000022	2	5	5	0	0	-8.5133992198E+01	-6.8646860037E+01	-8.2562248551E+01	8.1427955273E+02	8.0266710228E+02	0.000E+00	0.0
	14	1	6	6	0	0	-2.6943123226E+02	-2.4250433108E+01	-1.1032463635E+02	4.3701006603E+02	3.2500000000E+02	0.000E+00	0.0
	-14	1	6	6	0	0	1.8429724006E+02	-4.4396426929E+01	2.7762387797E+01	3.7726948670E+02	3.2500000000E+02	0.000E+00	0.0
	25	2	5	5	0	0	8.5133992198E+01	6.8646860037E+01	-2.2938368134E+02	2.8327668951E+02	1.2517436452E+02	0.000E+00	0.0
	-5	1	9	9	0	501	7.3728612518E+00	8.5975884753E+01	-1.2266766151E+02	1.5003679356E+02	4.1800000000E+00	0.000E+00	0.0
	5	1	9	9	501	0	7.7761130946E+01	-1.7329024716E+01	-1.0671601983E+02	1.3323989595E+02	4.1800000000E+00	0.000E+00	0.0
</event>
<event>
    11  -1  1.0000000E+00  1.0000000E+00  -1.0000000E+00  -1.0000000E+00
	2212	-1	0	0	0	0	0.0000000000E+00	0.0000000000E+00	6.5000000000E+03	6.5000000000E+03	9.3827000000E-01	0.000E+00	0.0
	2212	-1	0	0	0	0	0.0000000000E+00	0.0000000000E+00	-6.5000000000E+03	6.5000000000E+03	9.3827000000E-01	0.000E+00	0.0
	2212	1	0	0	0	0	0.0000000000E+00	0.0000000000E+00	6.0101966484E+03	6.0101966484E+03	9.3827000000E-01	0.000E+00	0.0
	2212	1	0	0	0	0	0.0000000000E+00	0.0000000000E+00	-5.9510310473E+03	5.9510310473E+03	9.3827000000E-01	0.000E+00	0.0
	51	2	1	2	0	0	8.2099191245E+01	6.2369414923E+01	2.7806521527E+01	1.0425693049E+03	1.0370859809E+03	0.000E+00	0.0
	1000022	2	5	5	0	0	-8.2099191245E+01	-6.2369414923E+01	-1.3613032549E+02	8.5927509890E+02	8.4213538635E+02	0.000E+00	0.0
	14	1	6	6	0	0	-1.3930467155E+02	-2.7911838028E+02	-3.5760314252E+01	4.5190337662E+02	3.2500000000E+02	0.000E+00	0.0
	-14	1	6	6	0	0	5.7205480300E+01	2.1674896536E+02	-1.0037001124E+02	4.0737172228E+02	3.2500000000E+02	0.000E+00	0.0
	25	2	5	5	0	0	8.2099191245E+01	6.2369414923E+01	7.6964724337E+01	1.7949720538E+02	1.2516172269E+02	0.000E+00	0.0
	-5	1	9	9	0	501	1.0124208806E+02	7.1305505021E+01	2.9486420645E+01	1.2736309058E+02	4.1800000000E+00	0.000E+00	0.0
	5	1	9	9	501	0	-1.9142896812E+01	-8.9360900980E+00	4.7478303692E+01	5.2134114800E+01	4.1800000000E+00	0.000E+00	0.0
</event>
<event>
    11  -1  1.0000000E+00  1.0000000E+00  -1.0000000E+00  -1.0000000E+00
	2212	-1	0	0	0	0	0.0000000000E+00	0.0000000000E+00	6.5000000000E+03	6.5000000000E+03	9.3827000000E-01	0.000E+00	0.0
	2212	-1	0	0	0	0	0.0000000000E+00	0.0000000000E+00	-6.5000000000E+03	6.5000000000E+03	9.3827000000E-01	0.000E+00	0.0
	2212	1	0	0	0	0	0.0000000000E+00	0.0000000000E+00	6.1342059670E+03	6.1342059670E+03	9.3827000000E-01	0.000E+00	0.0
	2212	1	0	0	0	0	0.0000000000E+00	0.0000000000E+00	-5.7642455689E+03	5.7642455689E+03	9.3827000000E-01	0.000E+00	0.0
	51	2	1	2	0	0	-7.7509182852E+01	8.2745322905E+01	-3.0093495939E+02	1.0862571676E+03	1.0375636475E+03	0.000E+00	0.0
	1000022	2	5	5	0	0	7.7509182852E+01	-8.2745322905E+01	-3.7707548494E+02	9.3250313015E+02	8.4529385690E+02	0.000E+00	0.0
	14	1	6	6	0	0	4.5062638722E+01	-3.0395529548E+02	-2.7496971507E+02	5.2502648244E+02	3.2500000000E+02	0.000E+00	0.0
	-14	1	6	6	0	0	3.2446544130E+01	2.2120997257E+02	-1.0210576986E+02	4.0747664771E+02	3.2500000000E+02	0.000E+00	0.0
	25	2	5	5	0	0	-7.7509182852E+01	8.2745322905E+01	7.1150867576E+00	1.6904533396E+02	1.2518481771E+02	0.000E+00	0.0
	-5	1	9	9	0	501	-9.0244203672E+01	1.0335053467E+02	2.3826449418E+01	1.3932164729E+02	4.1800000000E+00	0.000E+00	0.0
	5	1	9	9	501	0	1.2735020820E+01	-2.0605211761E+01	-1.6711362660E+01	2.9723686666E+01	4.1800000000E+00	0.000E+00	0.0
</event>
<event>
    11  -1  1.0000000E+00  1.0000000E+00  -1.0000000E+00  -1.0000000E+00
	2212	-1	0	0	0	0	0.0000000000E+00	0.0000000000E+00	6.5000000000E+03	6.5000000000E+03	9.3827000000E-01	0.000E+00	0.0
	2212	-1	0	0	0	0	0.0000000000E+00	0.0000000000E+00	-6.5000000000E+03	6.5000000000E+03	9.3827000000E-01	0.000E+00	0.0
	2212	1	0	0	0	0	0.0000000000E+00	0.0000000000E+00	5.6087160392E+03	5.6087160392E+03	9.3827000000E-01	0.000E+00	0.0
	2212	1	0	0	0	0	0.0000000000E+00	0.0000000000E+00	-6.1860717625E+03	6.1860717625E+03	9.3827000000E-01	0.000E+00	0.0
	51	2	1	2	0	0	8.5650513191E-01	-2.7690282448E+01	4.1895192477E+02	1.1381937499E+03	1.0579209856E+03	0.000E+00	0.0
	1000022	2	5	5	0	0	-8.5650513191E-01	2.7690282448E+01	6.3610342999E+02	1.0642016400E+03	8.5271922203E+02	0.000E+00	0.0
	14	1	6	6	0	0	-9.5926309469E+01	-2.0172862080E+02	1.3382067742E+02	4.1644839657E+02	3.2500000000E+02	0.000E+00	0.0
	-14	1	6	6	0	0	9.5069804337E+01	2.2941890325E+02	5.0228275257E+02	6.4775324345E+02	3.2500000000E+02	0.000E+00	0.0
	25	2	5	5	0	0	8.5650513191E-01	-2.7690282448E+01	-5.8747706626E+01	1.4101055832E+02	1.2516069343E+02	0.000E+00	0.0
	-5	1	9	9	0	501	-2.2754780409E+01	9.4094307635E+00	-8.5698693808E+01	8.9263967753E+01	4.1800000000E+00	0.000E+00	0.0
	5	1	9	9	501	0	2.3611285541E+01	-3.7099713212E+01	2.6950987181E+01	5.1746590567E+01	4.1800000000E+00	0.000E+00	0.0
</event>
<event>
    11  -1  1.0000000E+00  1.0000000E+00  -1.0000000E+00  -1.0000000E+00
	2212	-1	0	0	0	0	0.0000000000E+00	0.0000000000E+00	6.5000000000E+03	6.5000000000E+03	9.3827000000E-01	0.000E+00	0.0
	2212	-1	0	0	0	0	0.0000000000E+00	0.0000000000E+00	-6.5000000000E+03	6.5000000000E+03	9.3827000000E-01	0.000E+00	0.0
	2212	1	0	0	0	0	0.0000000000E+00	0.0000000000E+00	5.2201403493E+03	5.2201403493E+03	9.3827000000E-01	0.000E+00	0.0
	2212	1	0	0	0	0	0.0000000000E+00	0.0000000000E+00	-6.2821353468E+03	6.2821353468E+03	9.3827000000E-01	0.000E+00	0.0
	51	2	1	2	0	0	-9.1234146343E-01	-1.4469635960E+02	1.0885944326E+03	1.5235880097E+03	1.0560988191E+03	0.000E+00	0.0
	1000022	2	5	5	0	0	9.1234146343E-01	1.4469635960E+02	8.5262751462E+02	1.2141040665E+03	8.5213680629E+02	0.000E+00	0.0
	14	1	6	6	0	0	-1.5587222892E+02	2.8924858908E+02	3.5562768197E+02	5.8314401842E+02	3.2500000000E+02	0.000E+00	0.0
	-14	1	6	6	0	0	1.5678457039E+02	-1.4455222948E+02	4.9699983265E+02	6.3096004804E+02	3.2500000000E+02	0.000E+00	0.0
	25	2	5	5	0	0	-9.1234146343E-01	-1.4469635960E+02	2.0936748293E+02	2.8362023749E+02	1.2517119221E+02	0.000E+00	0.0
	-5	1	9	9	0	501	-2.8418646896E+01	-1.4508896471E+02	1.2137011331E+02	1.9132852368E+02	4.1800000000E+00	0.000E+00	0.0
	5	1	9	9	501	0	2.7506305433E+01	3.9260510881E-01	8.7997369623E+01	9.2291713809E+01	4.1800000000E+00	0.000E+00	0.0
</event>
<event>
    11  -1  1.0000000E+00  1.0000000E+00  -1.0000000E+00  -1.0000000E+00
	2212	-1	0	0	0	0	0.0000000000E+00	0.0000000000E+00	6.5000000000E+03	6.5000000000E+03	9.3827000000E-01	0.000E+00	0.0
	2212	-1	0	0	0	0	0.0000000000E+00	0.0000000000E+00	-6.5000000000E+03	6.5000000000E+03	9.3827000000E-01	0.000E+00	0.0
	2212	1	0	0	0	0	0.0000000000E+00	0.0000000000E+00	5.7666165453E+03	5.7666165453E+03	9.3827000000E-01	0.000E+00	0.0
	2212	1	0	0	0	0	0.0000000000E+00	0.0000000000E+00	-6.1155447291E+03	6.1155447291E+03	9.3827000000E-01	0.000E+00	0.0
	51	2	1	2	0	0	8.7328740285E+01	1.0962984836E+02	2.7102074284E+02	1.1049478696E+03	1.0619851878E+03	0.000E+00	0.0
	1000022	2	5	5	0	0	-8.7328740285E+01	-1.0962984836E+02	3.6396437008E+02	9.2931299662E+02	8.4350908144E+02	0.000E+00	0.0
	14	1	6	6	0	0	2.2143201830E+02	-5.5472389584E+01	1.1398097811E+02	4.1319001453E+02	3.2500000000E+02	0.000E+00	0.0
	-14	1	6	6	0	0	-3.0876075858E+02	-5.4157458772E+01	2.4998339197E+02	5.1612298209E+02	3.2500000000E+02	0.000E+00	0.0
	25	2	5	5	0	0	8.7328740285E+01	1.0962984836E+02	-1.5036186298E+01	1.8852572899E+02	1.2518326989E+02	0.000E+00	0.0
	-5	1	9	9	0	501	9.0778637590E+01	5.8923754223E+01	-5.7086027805E+01	1.2242980366E+02	4.1800000000E+00	0.000E+00	0.0
	5	1	9	9	501	0	-3.4498973052E+00	5.0706094133E+01	4.2049841507E+01	6.6095925324E+01	4.1800000000E+00	0.000E+00	0.0
</event>
<event>
    11  -1  1.0000000E+00  1.0000000E+00  -1.0000000E+00  -1.0000000E+00
	2212	-1	0	0	0	0	0.0000000000E+00	0.0000000000E+00	6.5000000000E+03	6.5000000000E+03	9.3827000000E-01	0.000E+00	0.0
	2212	-1	0	0	0	0	0.0000000000E+00	0.0000000000E+00	-6.5000000000E+03	6.5000000000E+03	9.3827000000E-01	0.000E+00	0.0
	2212	1	0	0	0	0	0.0000000000E+00	0.0000000000E+00	5.1266852266E+03	5.1266852266E+03	9.3827000000E-01	0.000E+00	0.0
	2212	1	0	0	0	0	0.0000000000E+00	0.0000000000E+00	-6.2896894126E+03	6.2896894126E+03	9.3827000000E-01	0.000E+00	0.0
	51	2	1	2	0	0	-1.2058670412E+02	2.2332613930E+01	1.3523797882E+03	1.7318376186E+03	1.0748444291E+03	0.000E+00	0.0
	1000022	2	5	5	0	0	1.2058670412E+02	-2.2332613930E+01	7.5921927247E+02	1.1434588460E+03	8.4619402621E+02	0.000E+00	0.0
	14	1	6	6	0	0	-7.8019966199E+01	1.9010970845E+02	5.1785857790E+02	6.4500490159E+02	3.2500000000E+02	0.000E+00	0.0
	-14	1	6	6	0	0	1.9860667032E+02	-2.1244232238E+02	2.4136069457E+02	4.9845394443E+02	3.2500000000E+02	0.000E+00	0.0
	25	2	5	5	0	0	-1.2058670412E+02	2.2332613930E+01	4.0378491353E+02	4.4016651480E+02	1.2515752273E+02	0.000E+00	0.0
	-5	1	9	9	0	501	-1.4333135355E+02	1.5254009238E+01	3.7914227456E+02	4.0563887691E+02	4.1800000000E+00	0.000E+00	0.0
	5	1	9	9	501	0	2.2744649430E+01	7.0786046920E+00	2.4642638978E+01	3.4527637885E+01	4.1800000000E+00	0.000E+00	0.0
</event>
<event>
    11  -1  1.0000000E+00  1.0000000E+00  -1.0000000E+00  -1.0000000E+00
	2212	-1	0	0	0	0	0.0000000000E+00	0.0000000000E+00	6.5000000000E+03	6.5000000000E+03	9.3827000000E-01	0.000E+00	0.0
	2212	-1	0	0	0	0	0.0000000000E+00	0.0000000000E+00	-6.5000000000E+03	6.5000000000E+03	9.3827000000E-01	0.000E+00	0.0
	2212	1	0	0	0	0	0.0000000000E+00	0.0000000000E+00	6.3354204632E+03	6.3354204632E+03	9.3827000000E-01	0.000E+00	0.0
	2212	1	0	0	0	0	0.0000000000E+00	0.0000000000E+00	-4.8569532707E+03	4.8569532707E+03	9.3827000000E-01	0.000E+00	0.0
	51	2	1	2	0	0	-9.1980460552E+00	-2.4915493557E+01	-1.7218620179E+03	2.0117558681E+03	1.0400228258E+03	0.000E+00	0.0
	1000022	2	5	5	0	0	9.1980460552E+00	2.4915493557E+01	-9.8533848329E+02	1.2981631873E+03	8.4476644610E+02	0.000E+00	0.0
	14	1	6	6	0	0	-2.3389078858E+02	1.2182991234E+02	-5.8985381976E+02	7.2325649476E+02	3.2500000000E+02	0.000E+00	0.0
	-14	1	6	6	0	0	2.4308883463E+02	-9.6914418788E+01	-3.9548466352E+02	5.7490669258E+02	3.2500000000E+02	0.000E+00	0.0
	25	2	5	5	0	0	-9.1980460552E+00	-2.4915493557E+01	-4.9312870921E+02	5.0946307866E+02	1.2518513809E+02	0.000E+00	0.0
	-5	1	9	9	0	501	-1.9742939954E+00	2.3069645763E+01	-1.3020631374E+01	2.6890809467E+01	4.1800000000E+00	0.000E+00	0.0
	5	1	9	9	501	0	-7.2237520599E+00	-4.7985139320E+01	-4.8010807784E+02	4.8257226920E+02	4.1800000000E+00	0.000E+00	0.0
</event>
<event>
    11  -1  1.0000000E+00  1.0000000E+00  -1.0000000E+00  -1.0000000E+00
	2212	-1	0	0	0	0	0.0000000000E+00	0.0000000000E+00	6.5000000000E+03	6.5000000000E+03	9.3827000000E-01	0.000E+00	0.0
	2212	-1	0	0	0	0	0.0000000000E+00	0.0000000000E+00	-6.5000000000E+03	6.5000000000E+03	9.3827000000E-01	0.000E+00	0.0
	2212	1	0	0	0	0	0.0000000000E+00	0.0000000000E+00	6.1645882022E+03	6.1645882022E+03	9.3827000000E-01	0.000E+00	0.0
	2212	1	0	0	0	0	0.0000000000E+00	0.0000000000E+00	-5.6588096697E+03	5.6588096697E+03	9.3827000000E-01	0.000E+00	0.0
	51	2	1	2	0	0	-3.3123718353E+01	5.0368075462E+01	-6.7609329901E+02	1.2606811321E+03	1.0623467626E+03	0.000E+00	0.0
	1000022	2	5	5	0	0	3.3123718353E+01	-5.0368075462E+01	-2.4433634781E+02	8.8053169472E+02	8.4380192628E+02	0.000E+00	0.0
	14	1	6	6	0	0	2.2968705899E+01	-2.9207055604E+02	-1.6530753567E+02	4.6774389628E+02	3.2500000000E+02	0.000E+00	0.0
	-14	1	6	6	0	0	1.0155012454E+01	2.4170248058E+02	-7.9028812136E+01	4.1278779844E+02	3.2500000000E+02	0.000E+00	0.0
	25	2	5	5	0	0	-3.3123718353E+01	5.0368075462E+01	-2.6144218467E+02	2.9607043341E+02	1.2518610894E+02	0.000E+00	0.0
	-5	1	9	9	0	501	2.9013281633E+01	3.4663499035E+01	-2.0686206631E+02	2.1178459707E+02	4.1800000000E+00	0.000E+00	0.0
	5	1	9	9	501	0	-6.2136999986E+01	1.5704576428E+01	-5.4580118353E+01	8.4285836339E+01	4.1800000000E+00	0.000E+00	0.0
</event>
<event>
    11  -1  1.0000000E+00  1.0000000E+00  -1.0000000E+00  -1.0000000E+00
	2212	-1	0	0	0	0	0.0000000000E+00	0.0000000000E+00	6.5000000000E+03	6.5000000000E+03	9.3827000000E-01	0.000E+00	0.0
	2212	-1	0	0	0	0	0.0000000000E+00	0.0000000000E+00	-6.5000000000E+03	6.5000000000E+03	9.3827000000E-01	0.000E+00	0.0
	2212	1	0	0	0	0	0.0000000000E+00	0.0000000000E+00	6.1704883735E+03	6.1704883735E+03	9.3827000000E-01	0.000E+00	0.0
	2212	1	0	0	0	0	0.0000000000E+00	0.0000000000E+00	-5.6672460023E+03	5.6672460023E+03	9.3827000000E-01	0.000E+00	0.0
	51	2	1	2	0	0	8.8547866117E+01	8.5980987721E+01	-4.9568637053E+02	1.1655672138E+03	1.0476681235E+03	0.000E+00	0.0
	1000022	2	5	5	0	0	-8.8547866117E+01	-8.5980987721E+01	-4.2973073213E+02	9.7173391216E+02	8.6276580777E+02	0.000E+00	0.0
	14	1	6	6	0	0	-2.7104801622E+01	2.0428884756E+02	-4.5456099657E+01	3.8750465869E+02	3.2500000000E+02	0.000E+00	0.0
	-14	1	6	6	0	0	-6.1443064495E+01	-2.9026983528E+02	-3.8427463248E+02	5.8422925347E+02	3.2500000000E+02	0.000E+00	0.0
	25	2	5	5	0	0	8.8547866117E+01	8.5980987721E+01	-7.3511639004E+01	1.9053171202E+02	1.2515956764E+02	0.000E+00	0.0
	-5	1	9	9	0	501	8.5461947986E+01	4.1369303087E+00	-8.8942256113E+00	8.6124551640E+01	4.1800000000E+00	0.000E+00	0.0
	5	1	9	9	501	0	3.0859181303E+00	8.1844057412E+01	-6.4617413393E+01	1.0440716038E+02	4.1800000000E+00	0.000E+00	0.0
</event>
<event>
    11  -1  1.0000000E+00  1.0000000E+00  -1.0000000E+00  -1.0000000E+00
	2212	-1	0	0	0	0	0.0000000000E+00	0.0000000000E+00	6.5000000000E+03	6.5000000000E+03	9.3827000000E-01	0.000E+00	0.0
	2212	-1	0	0	0	0	0.0000000000E+00	0.0000000000E+00	-6.5000000000E+03	6.5000000000E+03	9.3827000000E-01	0.000E+00	0.0
	2212	1	0	0	0	0	0.0000000000E+00	0.0000000000E+00	5.4778880172E+03	5.4778880172E+03	9.3827000000E-01	0.000E+00	0.0
	2212	1	0	0	0	0	0.0000000000E+00	0.0000000000E+00	-6.2224563903E+03	6.2224563903E+03	9.3827000000E-01	0.000E+00	0.0
	51	2	1	2	0	0	6.3207338615E+01	1.2587606801E+02	6.9722536790E+02	1.2808925649E+03	1.0652335880E+03	0.000E+00	0.0
	1000022	2	5	5	0	0	-6.3207338615E+01	-1.2587606801E+02	6.6367297808E+02	1.0945765125E+03	8.5895050362E+02	0.000E+00	0.0
	14	1	6	6	0	0	3.0190910999E+01	-3.2797547779E+02	2.6099978099E+02	5.3124880312E+02	3.2500000000E+02	0.000E+00	0.0
	-14	1	6	6	0	0	-9.3398249614E+01	2.0209940979E+02	4.0267319709E+02	5.6332770935E+02	3.2500000000E+02	0.000E+00	0.0
	25	2	5	5	0	0	6.3207338615E+01	1.2587606801E+02	8.0895394997E+01	2.0507908007E+02	1.2519349824E+02	0.000E+00	0.0
	-5	1	9	9	0	501	8.8299647246E+01	6.0891246080E+01	8.2329308933E+01	1.3527808049E+02	4.1800000000E+00	0.000E+00	0.0
	5	1	9	9	501	0	-2.5092308631E+01	6.4984821926E+01	-1.4339139360E+00	6.9800999580E+01	4.1800000000E+00	0.000E+00	0.0
</event>
<event>
    11  -1  1.0000000E+00  1.0000000E+00  -1.0000000E+00  -1.0000000E+00
	2212	-1	0	0	0	0	0.0000000000E+00	0.0000000000E+00	6.5000000000E+03	6.5000000000E+03	9.3827000000E-01	0.000E+00	0.0
	2212	-1	0	0	0	0	0.0000000000E+00	0.0000000000E+00	-6.5000000000E+03	6.5000000000E+03	9.3827000000E-01	0.000E+00	0.0
	2212	1	0	0	0	0	0.0000000000E+00	0.0000000000E+00	5.5893301221E+03	5.5893301221E+03	9.3827000000E-01	0.000E+00	0.0
	2212	1	0	0	0	0	0.0000000000E+00	0.0000000000E+00	-6.1980393448E+03	6.1980393448E+03	9.3827000000E-01	0.000E+00	0.0
	51	2	1	2	0	0	8.5672371032E+01	-1.0153425540E+02	6.5412610982E+02	1.2431716775E+03	1.0487830529E+03	0.000E+00	0.0
	1000022	2	5	5	0	0	-8.5672371032E+01	1.0153425540E+02	4.6061943969E+02	9.7755118931E+02	8.5193139355E+02	0.000E+00	0.0
	14	1	6	6	0	0	-2.0042956493E+01	-1.4908295183E+02	4.3172457737E+02	5.6092651688E+02	3.2500000000E+02	0.000E+00	0.0
	-14	1	6	6	0	0	-6.5629414539E+01	2.5061720722E+02	2.8894862318E+01	4.1662467243E+02	3.2500000000E+02	0.000E+00	0.0
	25	2	5	5	0	0	8.5672371032E+01	-1.0153425540E+02	1.4808978295E+02	2.3507934377E+02	1.2523080243E+02	0.000E+00	0.0
	-5	1	9	9	0	501	-2.3310301475E+01	-1.2928238816E+01	-4.8203793663E+00	2.7408355860E+01	4.1800000000E+00	0.000E+00	0.0
	5	1	9	9	501	0	1.0898267251E+02	-8.8606016581E+01	1.5291016231E+02	2.0767098791E+02	4.1800000000E+00	0.000E+00	0.0
</event>
<event>
    11  -1  1.0000000E+00  1.0000000E+00  -1.0000000E+00  -1.0000000E+00
	2212	-1	0	0	0	0	0.0000000000E+00	0.0000000000E+00	6.5000000000E+03	6.5000000000E+03	9.3827000000E-01	0.000E+00	0.0
	2212	-1	0	0	0	0	0.0000000000E+00	0.0000000000E+00	-6.5000000000E+03	6.5000000000E+03	9.3827000000E-01	0.000E+00	0.0
	2212	1	0	0	0	0	0.0000000000E+00	0.0000000000E+00	4.9728357220E+03	4.9728357220E+03	9.3827000000E-01	0.000E+00	0.0
	2212	1	0	0	0	0	0.0000000000E+00	0.0000000000E+00	-6.3208646335E+03	6.3208646335E+03	9.3827000000E-01	0.000E+00	0.0
	51	2	1	2	0	0	1.0482825676E+02	-7.1464815412E+01	1.3321482311E+03	1.6985263093E+03	1.0460767326E+03	0.000E+00	0.0
	1000022	2	5	5	0	0	-1.0482825676E+02	7.1464815412E+01	1.1433612345E+03	1.4349086526E+03	8.5766645357E+02	0.000E+00	0.0
	14	1	6	6	0	0	-2.1536120036E+02	2.1696337792E+02	8.5186612100E+02	9.6164153513E+02	3.2500000000E+02	0.000E+00	0.0
	-14	1	6	6	0	0	1.1053294360E+02	-1.4549856251E+02	2.9149511349E+02	4.7326711749E+02	3.2500000000E+02	0.000E+00	0.0
	25	2	5	5	0	0	1.0482825676E+02	-7.1464815412E+01	2.0466767702E+02	2.7139099183E+02	1.2517199836E+02	0.000E+00	0.0
	-5	1	9	9	0	501	6.2694478249E+01	-9.1393241953E+01	7.5925919345E+01	1.3440810952E+02	4.1800000000E+00	0.000E+00	0.0
	5	1	9	9	501	0	4.2133778508E+01	1.9928426540E+01	1.2874175768E+02	1.3698288231E+02	4.1800000000E+00	0.000E+00	0.0
</event>
<event>
    11  -1  1.0000000E+00  1.0000000E+00  -1.0000000E+00  -1.0000000E+00
	2212	-1	0	0	0	0	0.0000000000E+00	0.0000000000E+00	6.5000000000E+03	6.5000000000E+03	9.3827000000E-01	0.000E+00	0.0
	2212	-1	0	0	0	0	0.0000000000E+00	0.0000000000E+00	-6.5000000000E+03	6.5000000000E+03	9.3827000000E-01	0.000E+00	0.0
	2212	1	0	0	0	0	0.0000000000E+00	0.0000000000E+00	6.0707930493E+03	6.0707930493E+03	9.3827000000E-01	0.000E+00	0.0
	2212	1	0	0	0	0	0.0000000000E+00	0.0000000000E+00	-5.8498454335E+03	5.8498454335E+03	9.3827000000E-01	0.000E+00	0.0
	51	2	1	2	0	0	5.0295219882E+01	1.3090976653E+02	-1.8443053755E+02	1.0816122388E+03	1.0565052938E+03	0.000E+00	0.0
	1000022	2	5	5	0	0	-5.0295219882E+01	-1.3090976653E+02	-2.1944397802E+02	8.9137401995E+02	8.5248167596E+02	0.000E+00	0.0
	14	1	6	6	0	0	1.2845600067E+01	1.9368994623E+02	-3.4616479603E-01	3.7855768985E+02	3.2500000000E+02	0.000E+00	0.0
	-14	1	6	6	0	0	-6.3140819949E+01	-3.2459971275E+02	-2.1909781323E+02	5.1281633011E+02	3.2500000000E+02	0.000E+00	0.0
	25	2	5	5	0	0	5.0295219882E+01	1.3090976653E+02	-1.5036377791E+00	1.8798749726E+02	1.2518011856E+02	0.000E+00	0.0
	-5	1	9	9	0	501	2.0102416004E+01	1.2737471335E+02	-4.3340507598E+01	1.3610399233E+02	4.1800000000E+00	0.000E+00	0.0
	5	1	9	9	501	0	3.0192803878E+01	3.5350531761E+00	4.1836869819E+01	5.1883504924E+01	4.1800000000E+00	0.000E+00	0.0
</event>
<event>
    11  -1  1.0000000E+00  1.0000000E+00  -1.0000000E+00  -1.0000000E+00
	2212	-1	0	0	0	0	0.0000000000E+00	0.0000000000E+00	6.5000000000E+03	6.5000000000E+03	9.3827000000E-01	0.000E+00	0.0
	2212	-1	0	0	0	0	0.0000000000E+00	0.0000000000E+00	-6.5000000000E+03	6.5000000000E+03	9.3827000000E-01	0.000E+00	0.0
	2212	1	0	0	0	0	0.0000000000E+00	0.0000000000E+00	5.4909696807E+03	5.4909696807E+03	9.3827000000E-01	0.000E+00	0.0
	2212	1	0	0	0	0	0.0000000000E+00	0.0000000000E+00	-6.2248461854E+03	6.2248461854E+03	9.3827000000E-01	0.000E+00	0.0
	51	2	1	2	0	0	-3.8161049915E+01	-1.2880356108E+02	7.1641521533E+02	1.2813475522E+03	1.0538283378E+03	0.000E+00	0.0
	1000022	2	5	5	0	0	3.8161049915E+01	1.2880356108E+02	6.2882392370E+02	1.0726380947E+03	8.5853732134E+02	0.000E+00	0.0
	14	1	6	6	0	0	2.8972416907E+02	6.0034730190E+01	4.1413499853E+02	6.0388497247E+02	3.2500000000E+02	0.000E+00	0.0
	-14	1	6	6	0	0	-2.5156311915E+02	6.8768830892E+01	2.1468892517E+02	4.6875312224E+02	3.2500000000E+02	0.000E+00	0.0
	25	2	5	5	0	0	-3.8161049915E+01	-1.2880356108E+02	1.0505258100E+02	2.1154603920E+02	1.2517611133E+02	0.000E+00	0.0
	-5	1	9	9	0	501	-8.2200528781E+01	-6.1051358211E+01	5.3485902847E+01	1.1559588866E+02	4.1800000000E+00	0.000E+00	0.0
	5	1	9	9	501	0	4.4039478866E+01	-6.7752202871E+01	5.1566678157E+01	9.5950150541E+01	4.1800000000E+00	0.000E+00	0.0
</event>
<event>
    11  -1  1.0000000E+00  1.0000000E+00  -1.0000000E+00  -1.0000000E+00
	2212	-1	0	0	0	0	0.0000000000E+00	0.0000000000E+00	6.5000000000E+03	6.5000000000E+03	9.3827000000E-01	0.000E+00	0.0
	2212	-1	0	0	0	0	0.0000000000E+00	0.0000000000E+00	-6.5000000000E+03	6.5000000000E+03	9.3827000000E-01	0.000E+00	0.0
	2212	1	0	0	0	0	0.0000000000E+00	0.0000000000E+00	6.1423956691E+03	6.1423956691E+03	9.3827000000E-01	0.000E+00	0.0
	2212	1	0	0	0	0	0.0000000000E+00	0.0000000000E+00	-5.7110872981E+03	5.7110872981E+03	9.3827000000E-01	0.000E+00	0.0
	51	2	1	2	0	0	9.0263637063E+01	9.0205494852E+01	-5.4110065670E+02	1.1989782617E+03	1.0622967550E+03	0.000E+00	0.0
	1000022	2	5	5	0	0	-9.0263637063E+01	-9.0205494852E+01	-2.4379242724E+02	8.8744841168E+02	8.4370929848E+02	0.000E+00	0.0
	14	1	6	6	0	0	-6.7911059812E+01	-7.3397280994E+01	1.5377059916E+02	3.7318825017E+02	3.2500000000E+02	0.000E+00	0.0
	-14	1	6	6	0	0	-2.2352577250E+01	-1.6808213858E+01	-3.9756302639E+02	5.1426016151E+02	3.2500000000E+02	0.000E+00	0.0
	25	2	5	5	0	0	9.0263637063E+01	9.0205494852E+01	-1.8751594378E+02	2.5906862119E+02	1.2517893528E+02	0.000E+00	0.0
	-5	1	9	9	0	501	6.8765468957E+01	4.8469540987E+01	-2.2123586594E+01	8.7091398015E+01	4.1800000000E+00	0.000E+00	0.0
	5	1	9	9	501	0	2.1498168105E+01	4.1735953864E+01	-1.6539235719E+02	1.7197722318E+02	4.1800000000E+00	0.000E+00	0.0
</event>
<event>
    11  -1  1.0000000E+00  1.0000000E+00  -1.0000000E+00  -1.0000000E+00
	2212	-1	0	0	0	0	0.0000000000E+00	0.0000000000E+00	6.5000000000E+03	6.5000000000E+03	9.3827000000E-01	0.000E+00	0.0
	2212	-1	0	0	0	0	0.0000000000E+00	0.0000000000E+00	-6.5000000000E+03	6.5000000000E+03	9.3827000000E-01	0.000E+00	0.0
	2212	1	0	0	0	0	0.0000000000E+00	0.0000000000E+00	5.7889325828E+03	5.7889325828E+03	9.3827000000E-01	0.000E+00	0.0
	2212	1	0	0	0	0	0.0000000000E+00	0.0000000000E+00	-6.1221417924E+03	6.1221417924E+03	9.3827000000E-01	0.000E+00	0.0
	51	2	1	2	0	0	-5.5727755737E+01	1.0563340047E+02	2.8399892012E+02	1.0815035939E+03	1.0366921621E+03	0.000E+00	0.0
	1000022	2	5	5	0	0	5.5727755737E+01	-1.0563340047E+02	3.2717521673E+02	9.1580968445E+02	8.4699454404E+02	0.000E+00	0.0
	14	1	6	6	0	0	1.8034042005E+02	2.1907062368E+01	3.9070687020E+02	5.3970310812E+02	3.2500000000E+02	0.000E+00	0.0
	-14	1	6	6	0	0	-1.2461266431E+02	-1.2754046284E+02	-6.3531653478E+01	3.7610657633E+02	3.2500000000E+02	0.000E+00	0.0
	25	2	5	5	0	0	-5.5727755737E+01	1.0563340047E+02	6.0339928844E+00	1.7311594037E+02	1.2517476457E+02	0.000E+00	0.0
	-5	1	9	9	0	501	-1.4116541228E+00	-2.5057753297E+01	-1.5655264982E+01	2.9873792683E+01	4.1800000000E+00	0.000E+00	0.0
	5	1	9	9	501	0	-5.4316101614E+01	1.3069115376E+02	2.1689257866E+01	1.4324214769E+02	4.1800000000E+00	0.000E+00	0.0
</event>
<event>
    11  -1  1.0000000E+00  1.0000000E+00  -1.0000000E+00  -1.0000000E+00
	2212	-1	0	0	0	0	0.0000000000E+00	0.0000000000E+00	6.5000000000E+03	6.5000000000E+03	9.3827000000E-01	0.000E+00	0.0
	2212	-1	0	0	0	0	0.0000000000E+00	0.0000000000E+00	-6.5000000000E+03	6.5000000000E+03	9.3827000000E-01	0.000E+00	0.0
	2212	1	0	0	0	0	0.0000000000E+00	0.0000000000E+00	5.5862774010E+03	5.5862774010E+03	9.3827000000E-01	0.000E+00	0.0
	2212	1	0	0	0	0	0.0000000000E+00	0.0000000000E+00	-6.1964173342E+03	6.1964173342E+03	9.3827000000E-01	0.000E+00	0.0
	51	2	1	2	0	0	-1.2881315438E+01	2.5584297507E+01	7.3277824579E+02	1.2834897007E+03	1.0533571900E+03	0.000E+00	0.0
	1000022	2	5	5	0	0	1.2881315438E+01	-2.5584297507E+01	3.9516175555E+02	9.6689128137E+02	8.8198948540E+02	0.000E+00	0.0
	14	1	6	6	0	0	-5.4000892185E-02	2.8082740350E+02	1.3710143377E+02	4.5087230633E+02	3.2500000000E+02	0.000E+00	0.0
	-14	1	6	6	0	0	1.2935316331E+01	-3.0641170101E+02	2.5806032178E+02	5.1601897504E+02	3.2500000000E+02	0.000E+00	0.0
	25	2	5	5	0	0	-1.2881315438E+01	2.5584297507E+01	2.1497817763E+02	2.5041398344E+02	1.2518411113E+02	0.000E+00	0.0
	-5	1	9	9	0	501	1.2222585737E+01	-3.6319137998E+01	1.8323096424E+01	4.2681139273E+01	4.1800000000E+00	0.000E+00	0.0
	5	1	9	9	501	0	-2.5103901176E+01	6.1903435505E+01	1.9665508121E+02	2.0773284417E+02	4.1800000000E+00	0.000E+00	0.0
</event>
<event>
    11  -1  1.0000000E+00  1.0000000E+00  -1.0000000E+00  -1.0000000E+00
	2212	-1	0	0	0	0	0.0000000000E+00	0.0000000000E+00	6.5000000000E+03	6.5000000000E+03	9.3827000000E-01	0.000E+00	0.0
	2212	-1	0	0	0	0	0.0000000000E+00	0.0000000000E+00	-6.5000000000E+03	6.5000000000E+03	9.3827000000E-01	0.000E+00	0.0
	2212	1	0	0	0	0	0.0000000000E+00	0.0000000000E+00	6.1100601103E+03	6.1100601103E+03	9.3827000000E-01	0.000E+00	0.0
	2212	1	0	0	0	0	0.0000000000E+00	0.0000000000E+00	-5.7808253715E+03	5.7808253715E+03	9.3827000000E-01	0.000E+00	0.0
	51	2	1	2	0	0	-1.4789409302E+01	1.2438993019E+02	-2.5090685348E+02	1.0956209799E+03	1.0591220426E+03	0.000E+00	0.0
	1000022	2	5	5	0	0	1.4789409302E+01	-1.2438993019E+02	-3.5060824832E+02	9.3074213917E+02	8.5303177226E+02	0.000E+00	0.0
	14	1	6	6	0	0	1.3680325951E+02	-1.0460514392E+02	8.0873558277E+01	3.7659381351E+02	3.2500000000E+02	0.000E+00	0.0
	-14	1	6	6	0	0	-1.2201385021E+02	-1.9784786270E+01	-4.3148180660E+02	5.5414832566E+02	3.2500000000E+02	0.000E+00	0.0
	25	2	5	5	0	0	-1.4789409302E+01	1.2438993019E+02	2.1373509485E+01	1.7837237896E+02	1.2517306943E+02	0.000E+00	0.0
	-5	1	9	9	0	501	1.7612433675E+01	-4.4303922673E+00	-3.0472071051E+01	3.5718982485E+01	4.1800000000E+00	0.000E+00	0.0
	5	1	9	9	501	0	-3.2401842978E+01	1.2882032246E+02	5.1845580536E+01	1.4265339648E+02	4.1800000000E+00	0.000E+00	0.0
</event>
<event>
    11  -1  1.0000000E+00  1.0000000E+00  -1.0000000E+00  -1.0000000E+00
	2212	-1	0	0	0	0	0.0000000000E+00	0.0000000000E+00	6.5000000000E+03	6.5000000000E+03	9.3827000000E-01	0.000E+00	0.0
	2212	-1	0	0	0	0	0.0000000000E+00	0.0000000000E+00	-6.5000000000E+03	6.5000000000E+03	9.3827000000E-01	0.000E+00	0.0
	2212	1	0	0	0	0	0.0000000000E+00	0.0000000000E+00	6.2277878491E+03	6.2277878491E+03	9.3827000000E-01	0.000E+00	0.0
	2212	1	0	0	0	0	0.0000000000E+00	0.0000000000E+00	-5.4706036486E+03	5.4706036486E+03	9.3827000000E-01	0.000E+00	0.0
	51	2	1	2	0	0	-1.2532150553E+02	1.9402743558E+01	-6.3861089656E+02	1.2428847908E+03	1.0587052374E+03	0.000E+00	0.0
	1000022	2	5	5	0	0	1.2532150553E+02	-1.9402743558E+01	-7.3729448543E+02	1.1223126637E+03	8.3660062797E+02	0.000E+00	0.0
	14	1	6	6	0	0	1.6226503836E+02	4.1514201197E+01	-6.3839561559E+01	3.7115207287E+02	3.2500000000E+02	0.000E+00	0.0
	-14	1	6	6	0	0	-3.6943532833E+01	-6.0916944755E+01	-6.7345492387E+02	7.5116059086E+02	3.2500000000E+02	0.000E+00	0.0
	25	2	5	5	0	0	-1.2532150553E+02	1.9402743558E+01	-1.9889715024E+01	1.7929583853E+02	1.2517767671E+02	0.000E+00	0.0
	-5	1	9	9	0	501	-5.3469253022E+01	4.5791209818E+01	-6.0166827234E+01	9.2700137080E+01	4.1800000000E+00	0.000E+00	0.0
	5	1	9	9	501	0	-7.1852252509E+01	-2.6388466260E+01	4.0277112210E+01	8.6595701453E+01	4.1800000000E+00	0.000E+00	0.0
</event>
<event>
    11  -1  1.0000000E+00  1.0000000E+00  -1.0000000E+00  -1.0000000E+00
	2212	-1	0	0	0	0	0.0000000000E+00	0.0000000000E+00	6.5000000000E+03	6.5000000000E+03	9.3827000000E-01	0.000E+00	0.0
	2212	-1	0	0	0	0	0.0000000000E+00	0.0000000000E+00	-6.5000000000E+03	6.5000000000E+03	9.3827000000E-01	0.000E+00	0.0
	2212	1	0	0	0	0	0.0000000000E+00	0.0000000000E+00	5.9312623454E+03	5.9312623454E+03	9.3827000000E-01	0.000E+00	0.0
	2212	1	0	0	0	0	0.0000000000E+00	0.0000000000E+00	-6.0159175942E+03	6.0159175942E+03	9.3827000000E-01	0.000E+00	0.0
	51	2	1	2	0	0	-8.1236024603E+01	8.5028965713E+01	6.9929468887E+00	1.0560026925E+03	1.0494110580E+03	0.000E+00	0.0
	1000022	2	5	5	0	0	8.1236024603E+01	-8.5028965713E+01	1.4785763824E+02	8.6980586311E+02	8.4904130736E+02	0.000E+00	0.0
	14	1	6	6	0	0	3.0264267191E+02	-1.2633598491E+02	8.2629695248E+01	4.6904800872E+02	3.2500000000E+02	0.000E+00	0.0
	-14	1	6	6	0	0	-2.2140664731E+02	4.1307019199E+01	6.5227942997E+01	4.0075785439E+02	3.2500000000E+02	0.000E+00	0.0
	25	2	5	5	0	0	-8.1236024603E+01	8.5028965713E+01	-6.3202389452E+01	1.8301419735E+02	1.2518161884E+02	0.000E+00	0.0
	-5	1	9	9	0	501	2.3189253823E+01	4.1732029505E+01	9.0700855152E+00	4.8775430605E+01	4.1800000000E+00	0.000E+00	0.0
	5	1	9	9	501	0	-1.0442527843E+02	4.3296936208E+01	-7.2272474967E+01	1.3423876674E+02	4.1800000000E+00	0.000E+00	0.0
</event>
<event>
    11  -1  1.0000000E+00  1.0000000E+00  -1.0000000E+00  -1.0000000E+00
	2212	-1	0	0	0	0	0.0000000000E+00	0.0000000000E+00	6.5000000000E+03	6.5000000000E+03	9.3827000000E-01	0.000E+00	0.0
	2212	-1	0	0	0	0	0.0000000000E+00	0.0000000000E+00	-6.5000000000E+03	6.5000000000E+03	9.3827000000E-01	0.000E+00	0.0
	2212	1	0	0	0	0	0.0000000000E+00	0.0000000000E+00	6.3066711444E+03	6.3066711444E+03	9.3827000000E-01	0.000E+00	0.0
	2212	1	0	0	0	0	0.0000000000E+00	0.0000000000E+00	-4.8848181422E+03	4.8848181422E+03	9.3827000000E-01	0.000E+00	0.0
	51	2	1	2	0	0	1.4843279398E+02	-7.6902713448E+01	-1.2408117478E+03	1.6782744579E+03	1.1176068364E+03	0.000E+00	0.0
	1000022	2	5	5	0	0	-1.4843279398E+02	7.6902713448E+01	-1.3166374819E+03	1.5746457272E+03	8.4736567417E+02	0.000E+00	0.0
	14	1	6	6	0	0	-2.2121404428E+02	-8.3760776065E+01	-3.2698018872E+02	5.1816268180E+02	3.2500000000E+02	0.000E+00	0.0
	-14	1	6	6	0	0	7.2781250301E+01	1.6066348951E+02	-9.8965729318E+02	1.0564830454E+03	3.2500000000E+02	0.000E+00	0.0
	25	2	5	5	0	0	1.4843279398E+02	-7.6902713448E+01	-1.0521552026E+02	2.3386498620E+02	1.2520465009E+02	0.000E+00	0.0
	-5	1	9	9	0	501	4.6829969438E+01	3.1597037411E+01	-1.0650187715E+01	5.7639549869E+01	4.1800000000E+00	0.000E+00	0.0
	5	1	9	9	501	0	1.0160282454E+02	-1.0849975086E+02	-9.4565332550E+01	1.7622543633E+02	4.1800000000E+00	0.000E+00	0.0
</event>
<event>
    11  -1  1.0000000E+00  1.0000000E+00  -1.0000000E+00  -1.0000000E+00
	2212	-1	0	0	0	0	0.0000000000E+00	0.0000000000E+00	6.5000000000E+03	6.5000000000E+03	9.3827000000E-01	0.000E+00	0.0
	2212	-1	0	0	0	0	0.0000000000E+00	0.0000000000E+00	-6.5000000000E+03	6.5000000000E+03	9.3827000000E-01	0.000E+00	0.0
	2212	1	0	0	0	0	0.0000000000E+00	0.0000000000E+00	4.8933972617E+03	4.8933972617E+03	9.3827000000E-01	0.000E+00	0.0
	2212	1	0	0	0	0	0.0000000000E+00	0.0000000000E+00	-6.3310456175E+03	6.3310456175E+03	9.3827000000E-01	0.000E+00	0.0
	51	2	1	2	0	0	9.4937301621E+01	-1.0197736206E+02	1.2299796119E+03	1.6180335639E+03	1.0420030204E+03	0.000E+00	0.0
	1000022	2	5	5	0	0	-9.4937301621E+01	1.0197736206E+02	1.3505072410E+03	1.5689779112E+03	7.8639010942E+02	0.000E+00	0.0
	14	1	6	6	0	0	4.5700726468E+01	2.4263033220E+02	8.1820533064E+02	9.1435386891E+02	3.2500000000E+02	0.000E+00	0.0
	-14	1	6	6	0	0	-1.4063802809E+02	-1.4065297014E+02	5.3230191034E+02	6.5462404226E+02	3.2500000000E+02	0.000E+00	0.0
	25	2	5	5	0	0	9.4937301621E+01	-1.0197736206E+02	8.7141114750E+01	2.0657920964E+02	1.2517556616E+02	0.000E+00	0.0
	-5	1	9	9	0	501	1.0067660449E+02	-2.0738987939E+01	3.0539329119E+01	1.0731266158E+02	4.1800000000E+00	0.000E+00	0.0
	5	1	9	9	501	0	-5.7393028708E+00	-8.1238374117E+01	5.6601785631E+01	9.9266548057E+01	4.1800000000E+00	0.000E+00	0.0
</event>
<event>
    11  -1  1.0000000E+00  1.0000000E+00  -1.0000000E+00  -1.0000000E+00
	2212	-1	0	0	0	0	0.0000000000E+00	0.0000000000E+00	6.5000000000E+03	6.5000000000E+03	9.3827000000E-01	0.000E+00	0.0
	2212	-1	0	0	0	0	0.0000000000E+00	0.0000000000E+00	-6.5000000000E+03	6.5000000000E+03	9.3827000000E-01	0.000E+00	0.0
	2212	1	0	0	0	0	0.0000000000E+00	0.0000000000E+00	6.3057430815E+03	6.3057430815E+03	9.3827000000E-01	0.000E+00	0.0
	2212	1	0	0	0	0	0.0000000000E+00	0.0000000000E+00	-5.0939201070E+03	5.0939201070E+03	9.3827000000E-01	0.000E+00	0.0
	51	2	1	2	0	0	6.7077279942E+01	-5.3388265135E+01	-1.2919486123E+03	1.6640444326E+03	1.0452573791E+03	0.000E+00	0.0
	1000022	2	5	5	0	0	-6.7077279942E+01	5.3388265135E+01	-9.5233274721E+02	1.2997598114E+03	8.8039095728E+02	0.000E+00	0.0
	14	1	6	6	0	0	-5.5877579711E+01	1.9919194443E+02	-1.3520316960E+02	4.0829478531E+02	3.2500000000E+02	0.000E+00	0.0
	-14	1	6	6	0	0	-1.1199700231E+01	-1.4580367930E+02	-8.1712957761E+02	8.9146502612E+02	3.2500000000E+02	0.000E+00	0.0
	25	2	5	5	0	0	6.7077279942E+01	-5.3388265135E+01	-2.5949022728E+02	3.0057700000E+02	1.2514666011E+02	0.000E+00	0.0
	-5	1	9	9	0	501	7.8486388838E+01	-8.6227238081E+01	-1.9840905675E+02	2.3017140574E+02	4.1800000000E+00	0.000E+00	0.0
	5	1	9	9	501	0	-1.1409108896E+01	3.2838972945E+01	-6.1081170539E+01	7.0405594269E+01	4.1800000000E+00	0.000E+00	0.0
</event>
<event>
    11  -1  1.0000000E+00  1.0000000E+00  -1.0000000E+00  -1.0000000E+00
	2212	-1	0	0	0	0	0.0000000000E+00	0.0000000000E+00	6.5000000000E+03	6.5000000000E+03	9.3827000000E-01	0.000E+00	0.0
	2212	-1	0	0	0	0	0.0000000000E+00	0.0000000000E+00	-6.5000000000E+03	6.5000000000E+03	9.3827000000E-01	0.000E+00	0.0
	2212	1	0	0	0	0	0.0000000000E+00	0.0000000000E+00	5.9438672663E+03	5.9438672663E+03	9.3827000000E-01	0.000E+00	0.0
	2212	1	0	0	0	0	0.0000000000E+00	0.0000000000E+00	-5.9928588966E+03	5.9928588966E+03	9.3827000000E-01	0.000E+00	0.0
	51	2	1	2	0	0	1.1506634256E+02	1.1777870728E+02	5.5341589537E+00	1.0748459362E+03	1.0621445630E+03	0.000E+00	0.0
	1000022	2	5	5	0	0	-1.1506634256E+02	-1.1777870728E+02	8.3322470101E+01	8.5362487202E+02	8.3343908057E+02	0.000E+00	0.0
	14	1	6	6	0	0	-1.0540633180E+02	-3.8425752910E+01	2.9884834107E+02	4.5554622623E+02	3.2500000000E+02	0.000E+00	0.0
	-14	1	6	6	0	0	-9.6600107513E+00	-7.9352954365E+01	-2.1552587097E+02	3.9807864579E+02	3.2500000000E+02	0.000E+00	0.0
	25	2	5	5	0	0	1.1506634256E+02	1.1777870728E+02	-3.4330839781E+01	2.0964896501E+02	1.2514789209E+02	0.000E+00	0.0
	-5	1	9	9	0	501	-1.2251949997E+01	1.3492334419E+01	2.7953555931E+01	3.3630745695E+01	4.1800000000E+00	0.000E+00	0.0
	5	1	9	9	501	0	1.2731829255E+02	1.0428637286E+02	-6.2284395713E+01	1.7601821932E+02	4.1800000000E+00	0.000E+00	0.0
</event>
<event>
    11  -1  1.0000000E+00  1.0000000E+00  -1.0000000E+00  -1.0000000E+00
	2212	-1	0	0	0	0	0.0000000000E+00	0.0000000000E+00	6.5000000000E+03	6.5000000000E+03	9.3827000000E-01	0.000E+00	0.0
	2212	-1	0	0	0	0	0.0000000000E+00	0.0000000000E+00	-6.5000000000E+03	6.5000000000E+03	9.3827000000E-01	0.000E+00	0.0
	2212	1	0	0	0	0	0.0000000000E+00	0.0000000000E+00	5.9110580907E+03	5.9110580907E+03	9.3827000000E-01	0.000E+00	0.0
	2212	1	0	0	0	0	0.0000000000E+00	0.0000000000E+00	-6.0376289148E+03	6.0376289148E+03	9.3827000000E-01	0.000E+00	0.0
	51	2	1	2	0	0	4.3691817842E+00	-5.1941790061E+01	-2.2249309589E+00	1.0449692955E+03	1.0436660572E+03	0.000E+00	0.0
	1000022	2	5	5	0	0	-4.3691817842E+00	5.1941790061E+01	2.3378949756E+02	8.7843477273E+02	8.4514678102E+02	0.000E+00	0.0
	14	1	6	6	0	0	7.9705725652E+01	-2.1727475209E+02	2.0132086534E+02	4.4689642135E+02	3.2500000000E+02	0.000E+00	0.0
	-14	1	6	6	0	0	-8.4074907436E+01	2.6921654216E+02	3.2468632220E+01	4.3153835138E+02	3.2500000000E+02	0.000E+00	0.0
	25	2	5	5	0	0	4.3691817842E+00	-5.1941790061E+01	-1.0721867349E+02	1.7287822179E+02	1.2519583188E+02	0.000E+00	0.0
	-5	1	9	9	0	501	-5.4094081463E+01	-4.9487627378E+01	-3.9861084408E+01	8.3555809870E+01	4.1800000000E+00	0.000E+00	0.0
	5	1	9	9	501	0	5.8463263248E+01	-2.4541626832E+00	-6.7357589080E+01	8.9322411917E+01	4.1800000000E+00	0.000E+00	0.0
</event>
<event>
    11  -1  1.0000000E+00  1.0000000E+00  -1.0000000E+00  -1.0000000E+00
	2212	-1	0	0	0	0	0.0000000000E+00	0.0000000000E+00	6.5000000000E+03	6.5000000000E+03	9.3827000000E-01	0.000E+00	0.0
	2212	-1	0	0	0	0	0.0000000000E+00	0.0000000000E+00	-6.5000000000E+03	6.5000000000E+03	9.3827000000E-01	0.000E+00	0.0
	2212	1	0	0	0	0	0.0000000000E+00	0.0000000000E+00	6.0251699859E+03	6.0251699859E+03	9.3827000000E-01	0.000E+00	0.0
	2212	1	0	0	0	0	0.0000000000E+00	0.0000000000E+00	-5.9174013451E+03	5.9174013451E+03	9.3827000000E-01	0.000E+00	0.0
	51	2	1	2	0	0	5.3469456141E+01	1.8531822800E+00	-2.4383277642E+02	1.0811374334E+03	1.0519226730E+03	0.000E+00	0.0
	1000022	2	5	5	0	0	-5.3469456141E+01	-1.8531822800E+00	4.6877010226E+01	8.5139759762E+02	8.4842088500E+02	0.000E+00	0.0
	14	1	6	6	0	0	3.0985923590E+01	2.5807977986E+02	-3.9586755157E+01	4.1803996390E+02	3.2500000000E+02	0.000E+00	0.0
	-14	1	6	6	0	0	-8.4455379731E+01	-2.5993296214E+02	8.6463765383E+01	4.3335763371E+02	3.2500000000E+02	0.000E+00	0.0
	25	2	5	5	0	0	5.3469456141E+01	1.8531822800E+00	-1.5464565108E+02	2.0603107135E+02	1.2518429589E+02	0.000E+00	0.0
	-5	1	9	9	0	501	8.9949074084E+01	7.1931328713E+00	-7.2271390662E+01	1.1568579600E+02	4.1800000000E+00	0.000E+00	0.0
	5	1	9	9	501	0	-3.6479617943E+01	-5.3399505913E+00	-8.2374260418E+01	9.0345275344E+01	4.1800000000E+00	0.000E+00	0.0
</event>
<event>
    11  -1  1.0000000E+00  1.0000000E+00  -1.0000000E+00  -1.0000000E+00
	2212	-1	0	0	0	0	0.0000000000E+00	0.0000000000E+00	6.5000000000E+03	6.5000000000E+03	9.3827000000E-01	0.000E+00	0.0
	2212	-1	0	0	0	0	0.0000000000E+00	0.0000000000E+00	-6.5000000000E+03	6.5000000000E+03	9.3827000000E-01	0.000E+00	0.0
	2212	1	0	0	0	0	0.0000000000E+00	0.0000000000E+00	4.8716853326E+03	4.8716853326E+03	9.3827000000E-01	0.000E+00	0.0
	2212	1	0	0	0	0	0.0000000000E+00	0.0000000000E+00	-6.3351662110E+03	6.3351662110E+03	9.3827000000E-01	0.000E+00	0.0
	51	2	1	2	0	0	1.2477160879E+02	1.2723727084E+01	1.4845620719E+03	1.8147340022E+03	1.0361491715E+03	0.000E+00	0.0
	1000022	2	5	5	0	0	-1.2477160879E+02	-1.2723727084E+01	1.2026840300E+03	1.4778482728E+03	8.4962155910E+02	0.000E+00	0.0
	14	1	6	6	0	0	-9.7587768751E+01	2.6056241665E+02	5.1949886850E+02	6.7299347690E+02	3.2500000000E+02	0.000E+00	0.0
	-14	1	6	6	0	0	-2.7183840041E+01	-2.7328614373E+02	6.8318516150E+02	8.0485479586E+02	3.2500000000E+02	0.000E+00	0.0
	25	2	5	5	0	0	1.2477160879E+02	1.2723727084E+01	2.6079684839E+02	3.1530018372E+02	1.2517732275E+02	0.000E+00	0.0
	-5	1	9	9	0	501	6.1895683297E+01	6.3422983629E+01	9.0286588876E+01	1.2658076866E+02	4.1800000000E+00	0.000E+00	0.0
	5	1	9	9	501	0	6.2875925494E+01	-5.0699256544E+01	1.7051025951E+02	1.8871941506E+02	4.1800000000E+00	0.000E+00	0.0
</event>
<event>
    11  -1  1.0000000E+00  1.0000000E+00  -1.0000000E+00  -1.0000000E+00
	2212	-1	0	0	0	0	0.0000000000E+00	0.0000000000E+00	6.5000000000E+03	6.5000000000E+03	9.3827000000E-01	0.000E+00	0.0
	2212	-1	0	0	0	0	0.0000000000E+00	0.0000000000E+00	-6.5000000000E+03	6.5000000000E+03	9.3827000000E-01	0.000E+00	0.0
	2212	1	0	0	0	0	0.0000000000E+00	0.0000000000E+00	5.6673089000E+03	5.6673089000E+03	9.3827000000E-01	0.000E+00	0.0
	2212	1	0	0	0	0	0.0000000000E+00	0.0000000000E+00	-6.1731886251E+03	6.1731886251E+03	9.3827000000E-01	0.000E+00	0.0
	51	2	1	2	0	0	-8.6779767164E+01	2.2862227998E+00	6.0772613223E+02	1.2105365338E+03	1.0433272225E+03	0.000E+00	0.0
	1000022	2	5	5	0	0	8.6779767164E+01	-2.2862227998E+00	3.2217582264E+02	9.2084680621E+02	8.5826897008E+02	0.000E+00	0.0
	14	1	6	6	0	0	2.6431654859E+02	1.1077190635E+01	-1.5717504296E+01	4.1935424399E+02	3.2500000000E+02	0.000E+00	0.0
	-14	1	6	6	0	0	-1.7753678142E+02	-1.3363413435E+01	3.3789332694E+02	5.0149256222E+02	3.2500000000E+02	0.000E+00	0.0
	25	2	5	5	0	0	-8.6779767164E+01	2.2862227998E+00	1.8370390246E+02	2.3865566875E+02	1.2519364857E+02	0.000E+00	0.0
	-5	1	9	9	0	501	-8.7346839448E+01	-4.3605524315E+01	8.4163805880E+01	1.2896484301E+02	4.1800000000E+00	0.000E+00	0.0
	5	1	9	9	501	0	5.6707228455E-01	4.5891747115E+01	9.9540096577E+01	1.0969082574E+02	4.1800000000E+00	0.000E+00	0.0
</event>
<event>
    11  -1  1.0000000E+00  1.0000000E+00  -1.0000000E+00  -1.0000000E+00
	2212	-1	0	0	0	0	0.0000000000E+00	0.0000000000E+00	6.5000000000E+03	6.5000000000E+03	9.3827000000E-01	0.000E+00	0.0
	2212	-1	0	0	0	0	0.0000000000E+00	0.0000000000E+00	-6.5000000000E+03	6.5000000000E+03	9.3827000000E-01	0.000E+00	0.0
	2212	1	0	0	0	0	0.0000000000E+00	0.0000000000E+00	4.8911197276E+03	4.8911197276E+03	9.3827000000E-01	0.000E+00	0.0
	2212	1	0	0	0	0	0.0000000000E+00	0.0000000000E+00	-6.3264734905E+03	6.3264734905E+03	9.3827000000E-01	0.000E+00	0.0
	51	2	1	2	0	0	-1.1426320323E-02	-1.1626949365E+02	1.5928502027E+03	1.9150519248E+03	1.0567561267E+03	0.000E+00	0.0
	1000022	2	5	5	0	0	1.1426320323E-02	1.1626949365E+02	1.0316986638E+03	1.3440844775E+03	8.5360550280E+02	0.000E+00	0.0
	14	1	6	6	0	0	1.8966541839E+02	-9.5524966254E+01	2.8531105353E+02	4.8179392626E+02	3.2500000000E+02	0.000E+00	0.0
	-14	1	6	6	0	0	-1.8965399207E+02	2.1179445990E+02	7.4638761025E+02	8.6229055120E+02	3.2500000000E+02	0.000E+00	0.0
	25	2	5	5	0	0	-1.1426320323E-02	-1.1626949365E+02	4.0365509915E+02	4.3832230441E+02	1.2518150100E+02	0.000E+00	0.0
	-5	1	9	9	0	501	-1.8865074326E+01	-6.7882948864E+01	6.5865390605E+01	9.6538634004E+01	4.1800000000E+00	0.000E+00	0.0
	5	1	9	9	501	0	1.8853648006E+01	-4.8386544786E+01	3.3778970854E+02	3.4178367041E+02	4.1800000000E+00	0.000E+00	0.0
</event>
<event>
    11  -1  1.0000000E+00  1.0000000E+00  -1.0000000E+00  -1.0000000E+00
	2212	-1	0	0	0	0	0.0000000000E+00	0.0000000000E+00	6.5000000000E+03	6.5000000000E+03	9.3827000000E-01	0.000E+00	0.0
	2212	-1	0	0	0	0	0.0000000000E+00	0.0000000000E+00	-6.5000000000E+03	6.5000000000E+03	9.3827000000E-01	0.000E+00	0.0
	2212	1	0	0	0	0	0.0000000000E+00	0.0000000000E+00	6.2542956147E+03	6.2542956147E+03	9.3827000000E-01	0.000E+00	0.0
	2212	1	0	0	0	0	0.0000000000E+00	0.0000000000E+00	-5.3988295839E+03	5.3988295839E+03	9.3827000000E-01	0.000E+00	0.0
	51	2	1	2	0	0	-1.0782947603E+02	9.5444226844E+01	-9.2166653631E+02	1.3973029741E+03	1.0403122612E+03	0.000E+00	0.0
	1000022	2	5	5	0	0	1.0782947603E+02	-9.5444226844E+01	-6.3712222764E+02	1.0569070487E+03	8.3089769550E+02	0.000E+00	0.0
	14	1	6	6	0	0	2.7042650039E+02	-1.7653636198E+02	-2.5934808356E+02	5.2648077615E+02	3.2500000000E+02	0.000E+00	0.0
	-14	1	6	6	0	0	-1.6259702436E+02	8.1092135136E+01	-3.7777414408E+02	5.3042627258E+02	3.2500000000E+02	0.000E+00	0.0
	25	2	5	5	0	0	-1.0782947603E+02	9.5444226844E+01	-2.1834380313E+02	2.8996775269E+02	1.2518180736E+02	0.000E+00	0.0
	-5	1	9	9	0	501	-6.1050646613E+01	1.1796595590E+02	-1.2178236941E+02	1.8025417083E+02	4.1800000000E+00	0.000E+00	0.0
	5	1	9	9	501	0	-4.6778829414E+01	-2.2521729053E+01	-9.6561433727E+01	1.0971358186E+02	4.1800000000E+00	0.000E+00	0.0
</event>
<event>
    11  -1  1.0000000E+00  1.0000000E+00  -1.0000000E+00  -1.0000000E+00
	2212	-1	0	0	0	0	0.0000000000E+00	0.0000000000E+00	6.5000000000E+03	6.5000000000E+03	9.3827000000E-01	0.000E+00	0.0
	2212	-1	0	0	0	0	0.0000000000E+00	0.0000000000E+00	-6.5000000000E+03	6.5000000000E+03	9.3827000000E-01	0.000E+00	0.0
	2212	1	0	0	0	0	0.0000000000E+00	0.0000000000E+00	6.0496217938E+03	6.0496217938E+03	9.3827000000E-01	0.000E+00	0.0
	2212	1	0	0	0	0	0.0000000000E+00	0.0000000000E+00	-5.8895505766E+03	5.8895505766E+03	9.3827000000E-01	0.000E+00	0.0
	51	2	1	2	0	0	-3.3159933319E+01	1.0027138190E+02	-2.5535086853E+02	1.0844770457E+03	1.0486812982E+03	0.000E+00	0.0
	1000022	2	5	5	0	0	3.3159933319E+01	-1.0027138190E+02	-3.7491448407E+01	8.5625425091E+02	8.4888856883E+02	0.000E+00	0.0
	14	1	6	6	0	0	-1.9389349915E+02	2.2569819766E+01	-1.7697841735E+02	4.1839030340E+02	3.2500000000E+02	0.000E+00	0.0
	-14	1	6	6	0	0	2.2705343247E+02	-1.2284120166E+02	1.3948696894E+02	4.3786394751E+02	3.2500000000E+02	0.000E+00	0.0
	25	2	5	5	0	0	-3.3159933319E+01	1.0027138190E+02	-1.2257976882E+02	2.0457337876E+02	1.2518201296E+02	0.000E+00	0.0
	-5	1	9	9	0	501	-6.7094368265E+01	5.4120809033E+01	-2.2506972555E+01	8.9189418862E+01	4.1800000000E+00	0.000E+00	0.0
	5	1	9	9	501	0	3.3934434947E+01	4.6150572865E+01	-1.0007279626E+02	1.1538395990E+02	4.1800000000E+00	0.000E+00	0.0
</event>
<event>
    11  -1  1.0000000E+00  1.0000000E+00  -1.0000000E+00  -1.0000000E+00
	2212	-1	0	0	0	0	0.0000000000E+00	0.0000000000E+00	6.5000000000E+03	6.5000000000E+03	9.3827000000E-01	0.000E+00	0.0
	2212	-1	0	0	0	0	0.0000000000E+00	0.0000000000E+00	-6.5000000000E+03	6.5000000000E+03	9.3827000000E-01	0.000E+00	0.0
	2212	1	0	0	0	0	0.0000000000E+00	0.0000000000E+00	6.2476972380E+03	6.2476972380E+03	9.3827000000E-01	0.000E+00	0.0
	2212	1	0	0	0	0	0.0000000000E+00	0.0000000000E+00	-5.4584932063E+03	5.4584932063E+03	9.3827000000E-01	0.000E+00	0.0
	51	2	1	2	0	0	7.1617448057E+01	4.6083890460E+01	-7.2161266367E+02	1.2566136172E+03	1.0252317606E+03	0.000E+00	0.0
	1000022	2	5	5	0	0	-7.1617448057E+01	-4.6083890460E+01	-7.3636934244E+02	1.1335807759E+03	8.5762041902E+02	0.000E+00	0.0
	14	1	6	6	0	0	2.1279288777E+02	-1.7663978706E-01	-1.8101502925E+02	4.2857004690E+02	3.2500000000E+02	0.000E+00	0.0
	-14	1	6	6	0	0	-2.8441033582E+02	-4.5907250673E+01	-5.5535431319E+02	7.0501072897E+02	3.2500000000E+02	0.000E+00	0.0
	25	2	5	5	0	0	7.1617448057E+01	4.6083890460E+01	-5.2834689255E+01	1.6022877985E+02	1.2501589370E+02	0.000E+00	0.0
	-5	1	9	9	0	501	-2.7669852858E+01	4.3056190505E+01	-2.4188604637E+01	5.6762816106E+01	4.1800000000E+00	0.000E+00	0.0
	5	1	9	9	501	0	9.9287300916E+01	3.0276999552E+00	-2.8646084618E+01	1.0346596375E+02	4.1800000000E+00	0.000E+00	0.0
</event>
<event>
    11  -1  1.0000000E+00  1.0000000E+00  -1.0000000E+00  -1.0000000E+00
	2212	-1	0	0	0	0	0.0000000000E+00	0.0000000000E+00	6.5000000000E+03	6.5000000000E+03	9.3827000000E-01	0.000E+00	0.0
	2212	-1	0	0	0	0	0.0000000000E+00	0.0000000000E+00	-6.5000000000E+03	6.5000000000E+03	9.3827000000E-01	0.000E+00	0.0
	2212	1	0	0	0	0	0.0000000000E+00	0.0000000000E+00	5.8910555012E+03	5.8910555012E+03	9.3827000000E-01	0.000E+00	0.0
	2212	1	0	0	0	0	0.0000000000E+00	0.0000000000E+00	-6.0298437258E+03	6.0298437258E+03	9.3827000000E-01	0.000E+00	0.0
	51	2	1	2	0	0	-1.3792396313E+02	-8.9855928551E+00	4.6620865077E+01	1.0800340608E+03	1.0701384522E+03	0.000E+00	0.0
	1000022	2	5	5	0	0	1.3792396313E+02	8.9855928551E+00	2.0559953166E+02	8.8102009741E+02	8.4547116103E+02	0.000E+00	0.0
	14	1	6	6	0	0	8.7545123490E+01	2.7354665094E+02	1.2421209517E+02	4.5116024146E+02	3.2500000000E+02	0.000E+00	0.0
	-14	1	6	6	0	0	5.0378839638E+01	-2.6456105809E+02	8.1387436498E+01	4.2985985595E+02	3.2500000000E+02	0.000E+00	0.0
	25	2	5	5	0	0	-1.3792396313E+02	-8.9855928551E+00	-6.6811307001E+01	1.9808067559E+02	1.2517365064E+02	0.000E+00	0.0
	-5	1	9	9	0	501	5.4946772345E+00	2.6760755342E+01	-3.8718587659E+01	4.7570273646E+01	4.1800000000E+00	0.000E+00	0.0
	5	1	9	9	501	0	-1.4341864036E+02	-3.5746348197E+01	-2.8092719342E+01	1.5051040194E+02	4.1800000000E+00	0.000E+00	0.0
</event>
<event>
    11  -1  1.0000000E+00  1.0000000E+00  -1.0000000E+00  -1.0000000E+00
	2212	-1	0	0	0	0	0.0000000000E+00	0.0000000000E+00	6.5000000000E+03	6.5000000000E+03	9.3827000000E-01	0.000E+00	0.0
	2212	-1	0	0	0	0	0.0000000000E+00	0.0000000000E+00	-6.5000000000E+03	6.5000000000E+03	9.3827000000E-01	0.000E+00	0.0
	2212	1	0	0	0	0	0.0000000000E+00	0.0000000000E+00	5.7632882952E+03	5.7632882952E+03	9.3827000000E-01	0.000E+00	0.0
	2212	1	0	0	0	0	0.0000000000E+00	0.0000000000E+00	-6.1323658876E+03	6.1323658876E+03	9.3827000000E-01	0.000E+00	0.0
	51	2	1	2	0	0	1.2299364206E+02	-3.9618342356E+01	3.5299417732E+02	1.1066450891E+03	1.0408464896E+03	0.000E+00	0.0
	1000022	2	5	5	0	0	-1.2299364206E+02	3.9618342356E+01	3.2393994138E+02	9.1886222420E+02	8.5010214233E+02	0.000E+00	0.0
	14	1	6	6	0	0	1.8159321641E+02	6.9429176923E+01	2.7860361435E+02	4.7015048738E+02	3.2500000000E+02	0.000E+00	0.0
	-14	1	6	6	0	0	-3.0458685847E+02	-2.9810834567E+01	4.5336327032E+01	4.4871173682E+02	3.2500000000E+02	0.000E+00	0.0
	25	2	5	5	0	0	1.2299364206E+02	-3.9618342356E+01	4.5137651009E+01	1.8548359305E+02	1.2517869912E+02	0.000E+00	0.0
	-5	1	9	9	0	501	8.3187107444E+01	3.6126051553E+01	4.1264419705E+01	9.9726682384E+01	4.1800000000E+00	0.000E+00	0.0
	5	1	9	9	501	0	3.9806534621E+01	-7.5744393908E+01	3.8732313041E+00	8.5756910671E+01	4.1800000000E+00	0.000E+00	0.0
</event>
<event>
    11  -1  1.0000000E+00  1.0000000E+00  -1.0000000E+00  -1.0000000E+00
	2212	-1	0	0	0	0	0.0000000000E+00	0.0000000000E+00	6.5000000000E+03	6.5000000000E+03	9.3827000000E-01	0.000E+00	0.0
	2212	-1	0	0	0	0	0.0000000000E+00	0.0000000000E+00	-6.5000000000E+03	6.5000000000E+03	9.3827000000E-01	0.000E+00	0.0
	2212	1	0	0	0	0	0.0000000000E+00	0.0000000000E+00	5.6093898383E+03	5.6093898383E+03	9.3827000000E-01	0.000E+00	0.0
	2212	1	0	0	0	0	0.0000000000E+00	0.0000000000E+00	-6.1921063663E+03	6.1921063663E+03	9.3827000000E-01	0.000E+00	0.0
	51	2	1	2	0	0	-9.6814785560E+01	-7.0828052630E+01	6.6982157617E+02	1.2489609502E+03	1.0473074026E+03	0.000E+00	0.0
	1000022	2	5	5	0	0	9.6814785560E+01	7.0828052630E+01	3.9639212774E+02	9.4397696942E+02	8.4827830581E+02	0.000E+00	0.0
	14	1	6	6	0	0	-1.6513017244E+02	-6.4826240958E+00	2.1200034171E+00	3.6460868432E+02	3.2500000000E+02	0.000E+00	0.0
	-14	1	6	6	0	0	2.6194495800E+02	7.7310676726E+01	3.9427212433E+02	5.7936828510E+02	3.2500000000E+02	0.000E+00	0.0
	25	2	5	5	0	0	-9.6814785560E+01	-7.0828052630E+01	1.8632440035E+02	2.5452682598E+02	1.2520945345E+02	0.000E+00	0.0
	-5	1	9	9	0	501	-7.8570663009E+01	-6.3341566369E+01	4.2982914975E+01	1.0977479900E+02	4.1800000000E+00	0.000E+00	0.0
	5	1	9	9	501	0	-1.8244122551E+01	-7.4864862606E+00	1.4334148537E+02	1.4475202697E+02	4.1800000000E+00	0.000E+00	0.0
</event>
<event>
    11  -1  1.0000000E+00  1.0000000E+00  -1.0000000E+00  -1.0000000E+00
	2212	-1	0	0	0	0	0.0000000000E+00	0.0000000000E+00	6.5000000000E+03	6.5000000000E+03	9.3827000000E-01	0.000E+00	0.0
	2212	-1	0	0	0	0	0.0000000000E+00	0.0000000000E+00	-6.5000000000E+03	6.5000000000E+03	9.3827000000E-01	0.000E+00	0.0
	2212	1	0	0	0	0	0.0000000000E+00	0.0000000000E+00	6.1900100413E+03	6.1900100413E+03	9.3827000000E-01	0.000E+00	0.0
	2212	1	0	0	0	0	0.0000000000E+00	0.0000000000E+00	-5.6353344375E+03	5.6353344375E+03	9.3827000000E-01	0.000E+00	0.0
	51	2	1	2	0	0	1.2603957462E+02	-7.3115894005E+00	-5.3211536568E+02	1.1709981914E+03	1.0354470378E+03	0.000E+00	0.0
	1000022	2	5	5	0	0	-1.2603957462E+02	7.3115894005E+00	-4.8540770324E+02	9.8384525727E+02	8.4639908919E+02	0.000E+00	0.0
	14	1	6	6	0	0	1.6151129438E+02	6.0962378716E+01	-5.8272328984E+01	3.7258955186E+02	3.2500000000E+02	0.000E+00	0.0
	-14	1	6	6	0	0	-2.8755086899E+02	-5.3650789316E+01	-4.2713537426E+02	6.1125570541E+02	3.2500000000E+02	0.000E+00	0.0
	25	2	5	5	0	0	1.2603957462E+02	-7.3115894005E+00	-6.9267900508E+01	1.9081026394E+02	1.2518418860E+02	0.000E+00	0.0
	-5	1	9	9	0	501	1.0484510931E+02	-1.6043079939E+01	1.1480952962E+01	1.0676685835E+02	4.1800000000E+00	0.000E+00	0.0
	5	1	9	9	501	0	2.1194465306E+01	8.7314905390E+00	-8.0748853470E+01	8.4043405591E+01	4.1800000000E+00	0.000E+00	0.0
</event>
<event>
    11  -1  1.0000000E+00  1.0000000E+00  -1.0000000E+00  -1.0000000E+00
	2212	-1	0	0	0	0	0.0000000000E+00	0.0000000000E+00	6.5000000000E+03	6.5000000000E+03	9.3827000000E-01	0.000E+00	0.0
	2212	-1	0	0	0	0	0.0000000000E+00	0.0000000000E+00	-6.5000000000E+03	6.5000000000E+03	9.3827000000E-01	0.000E+00	0.0
	2212	1	0	0	0	0	0.0000000000E+00	0.0000000000E+00	5.7269778043E+03	5.7269778043E+03	9.3827000000E-01	0.000E+00	0.0
	2212	1	0	0	0	0	0.0000000000E+00	0.0000000000E+00	-6.1460289816E+03	6.1460289816E+03	9.3827000000E-01	0.000E+00	0.0
	51	2	1	2	0	0	1.1603688512E+02	4.8066770824E+01	3.7504709232E+02	1.1184565750E+03	1.0461882314E+03	0.000E+00	0.0
	1000022	2	5	5	0	0	-1.1603688512E+02	-4.8066770824E+01	3.9324752151E+02	9.4778941856E+02	8.5316246729E+02	0.000E+00	0.0
	14	1	6	6	0	0	-8.0248794053E+01	-1.8147413218E+02	-4.6708796040E+01	3.8363972842E+02	3.2500000000E+02	0.000E+00	0.0
	-14	1	6	6	0	0	-3.5788091063E+01	1.3340736136E+02	4.3995631755E+02	5.6414969014E+02	3.2500000000E+02	0.000E+00	0.0
	25	2	5	5	0	0	1.1603688512E+02	4.8066770824E+01	2.5803655820E+01	1.7920379558E+02	1.2519264568E+02	0.000E+00	0.0
	-5	1	9	9	0	501	8.6528596899E+00	-2.6818917106E+01	3.8179595827E+01	4.7636962887E+01	4.1800000000E+00	0.000E+00	0.0
	5	1	9	9	501	0	1.0738402543E+02	7.4885687930E+01	-1.2375940007E+01	1.3156683269E+02	4.1800000000E+00	0.000E+00	0.0
</event>
<event>
    11  -1  1.0000000E+00  1.0000000E+00  -1.0000000E+00  -1.0000000E+00
	2212	-1	0	0	0	0	0.0000000000E+00	0.0000000000E+00	6.5000000000E+03	6.5000000000E+03	9.3827000000E-01	0.000E+00	0.0
	2212	-1	0	0	0	0	0.0000000000E+00	0.0000000000E+00	-6.5000000000E+03	6.5000000000E+03	9.3827000000E-01	0.000E+00	0.0
	2212	1	0	0	0	0	0.0000000000E+00	0.0000000000E+00	5.8719464320E+03	5.8719464320E+03	9.3827000000E-01	0.000E+00	0.0
	2212	1	0	0	0	0	0.0000000000E+00	0.0000000000E+00	-6.1005956205E+03	6.1005956205E+03	9.3827000000E-01	0.000E+00	0.0
	51	2	1	2	0	0	-4.6754175194E+00	-4.6173296294E+00	2.8901890415E+02	1.0425758912E+03	1.0016932577E+03	0.000E+00	0.0
	1000022	2	5	5	0	0	4.6754175194E+00	4.6173296294E+00	1.3710642245E+02	8.7226079071E+02	8.6139278884E+02	0.000E+00	0.0
	14	1	6	6	0	0	-1.9163979512E+02	-6.0275637899E+01	2.6658289042E+02	4.6588668264E+02	3.2500000000E+02	0.000E+00	0.0
	-14	1	6	6	0	0	1.9631521264E+02	6.4892967528E+01	-1.2947646797E+02	4.0637410807E+02	3.2500000000E+02	0.000E+00	0.0
	25	2	5	5	0	0	-4.6754175194E+00	-4.6173296294E+00	9.1542766082E+01	1.5519715686E+02	1.2515150903E+02	0.000E+00	0.0
	-5	1	9	9	0	501	-4.8443544807E+01	-7.0940429203E+00	9.9008604000E+01	1.1053179879E+02	4.1800000000E+00	0.000E+00	0.0
	5	1	9	9	501	0	4.3768127288E+01	2.4767132909E+00	-7.4658379180E+00	4.4665358062E+01	4.1800000000E+00	0.000E+00	0.0
</event>
<event>
    11  -1  1.0000000E+00  1.0000000E+00  -1.0000000E+00  -1.0000000E+00
	2212	-1	0	0	0	0	0.0000000000E+00	0.0000000000E+00	6.5000000000E+03	6.5000000000E+03	9.3827000000E-01	0.000E+00	0.0
	2212	-1	0	0	0	0	0.0000000000E+00	0.0000000000E+00	-6.5000000000E+03	6.5000000000E+03	9.3827000000E-01	0.000E+00	0.0
	2212	1	0	0	0	0	0.0000000000E+00	0.0000000000E+00	5.0017955583E+03	5.0017955583E+03	9.3827000000E-01	0.000E+00	0.0
	2212	1	0	0	0	0	0.0000000000E+00	0.0000000000E+00	-6.2996796733E+03	6.2996796733E+03	9.3827000000E-01	0.000E+00	0.0
	51	2	1	2	0	0	-1.2692499869E+02	-5.7317922559E+01	1.4980019200E+03	1.8611524023E+03	1.0956656482E+03	0.000E+00	0.0
	1000022	2	5	5	0	0	1.2692499869E+02	5.7317922559E+01	8.5367632114E+02	1.2164596076E+03	8.5534520284E+02	0.000E+00	0.0
	14	1	6	6	0	0	1.6025293151E+02	-1.4903546354E+02	1.6163322262E+02	4.2384297812E+02	3.2500000000E+02	0.000E+00	0.0
	-14	1	6	6	0	0	-3.3327932816E+01	2.0635338610E+02	6.9204309852E+02	7.9261662945E+02	3.2500000000E+02	0.000E+00	0.0
	25	2	5	5	0	0	-1.2692499869E+02	-5.7317922559E+01	4.4420779387E+02	4.8206516080E+02	1.2518368735E+02	0.000E+00	0.0
	-5	1	9	9	0	501	5.3413334351E+00	1.2550133386E+01	1.6208561498E+02	1.6271218354E+02	4.1800000000E+00	0.000E+00	0.0
	5	1	9	9	501	0	-1.3226633213E+02	-6.9868055946E+01	2.8212217890E+02	3.1935297726E+02	4.1800000000E+00	0.000E+00	0.0
</event>
<event>
    11  -1  1.0000000E+00  1.0000000E+00  -1.0000000E+00  -1.0000000E+00
	2212	-1	0	0	0	0	0.0000000000E+00	0.0000000000E+00	6.5000000000E+03	6.5000000000E+03	9.3827000000E-01	0.000E+00	0.0
	2212	-1	0	0	0	0	0.0000000000E+00	0.0000000000E+00	-6.5000000000E+03	6.5000000000E+03	9.3827000000E-01	0.000E+00	0.0
	2212	1	0	0	0	0	0.0000000000E+00	0.0000000000E+00	5.2053109163E+03	5.2053109163E+03	9.3827000000E-01	0.000E+00	0.0
	2212	1	0	0	0	0	0.0000000000E+00	0.0000000000E+00	-6.2929501587E+03	6.2929501587E+03	9.3827000000E-01	0.000E+00	0.0
	51	2	1	2	0	0	1.0255984949E+02	-5.5100888943E+01	1.0823126067E+03	1.5024033701E+03	1.0355002063E+03	0.000E+00	0.0
	1000022	2	5	5	0	0	-1.0255984949E+02	5.5100888943E+01	9.2006508359E+02	1.2623447217E+03	8.5641100396E+02	0.000E+00	0.0
	14	1	6	6	0	0	1.4737218562E+02	-8.1793854864E+01	1.8641882609E+02	4.1083545917E+02	3.2500000000E+02	0.000E+00	0.0
	-14	1	6	6	0	0	-2.4993203511E+02	1.3689474381E+02	7.3364625750E+02	8.5150926254E+02	3.2500000000E+02	0.000E+00	0.0
	25	2	5	5	0	0	1.0255984949E+02	-5.5100888943E+01	1.6757415882E+02	2.3939420328E+02	1.2519526817E+02	0.000E+00	0.0
	-5	1	9	9	0	501	1.2662004635E+02	-5.5229523842E+01	1.6439070891E+02	2.1476665015E+02	4.1800000000E+00	0.000E+00	0.0
	5	1	9	9	501	0	-2.4060196860E+01	1.2863489849E-01	3.1834499038E+00	2.4627553130E+01	4.1800000000E+00	0.000E+00	0.0
</event>
<event>
    11  -1  1.0000000E+00  1.0000000E+00  -1.0000000E+00  -1.0000000E+00
	2212	-1	0	0	0	0	0.0000000000E+00	0.0000000000E+00	6.5000000000E+03	6.5000000000E+03	9.3827000000E-01	0.000E+00	0.0
	2212	-1	0	0	0	0	0.0000000000E+00	0.0000000000E+00	-6.5000000000E+03	6.5000000000E+03	9.3827000000E-01	0.000E+00	0.0
	2212	1	0	0	0	0	0.0000000000E+00	0.0000000000E+00	5.3869577114E+03	5.3869577114E+03	9.3827000000E-01	0.000E+00	0.0
	2212	1	0	0	0	0	0.0000000000E+00	0.0000000000E+00	-6.2548710590E+03	6.2548710590E+03	9.3827000000E-01	0.000E+00	0.0
	51	2	1	2	0	0	-8.3933121766E+01	-1.0175749982E+02	9.9708269467E+02	1.4501478433E+03	1.0446796206E+03	0.000E+00	0.0
	1000022	2	5	5	0	0	8.3933121766E+01	1.0175749982E+02	5.7979931406E+02	1.0174669047E+03	8.2563448319E+02	0.000E+00	0.0
	14	1	6	6	0	0	2.1460723155E+02	-6.2314349907E+01	4.7363245849E+02	6.1635383326E+02	3.2500000000E+02	0.000E+00	0.0
	-14	1	6	6	0	0	-1.3067410978E+02	1.6407184972E+02	1.0616685557E+02	4.0111307142E+02	3.2500000000E+02	0.000E+00	0.0
	25	2	5	5	0	0	-8.3933121766E+01	-1.0175749982E+02	2.8811403361E+02	3.4070432490E+02	1.2518140015E+02	0.000E+00	0.0
	-5	1	9	9	0	501	-6.1290574792E-01	1.6445046006E+01	1.0968030250E+02	1.1098673952E+02	4.1800000000E+00	0.000E+00	0.0
	5	1	9	9	501	0	-8.3320216018E+01	-1.1820254582E+02	1.7843373111E+02	2.2971758538E+02	4.1800000000E+00	0.000E+00	0.0
</event>
<event>
    11  -1  1.0000000E+00  1.0000000E+00  -1.0000000E+00  -1.0000000E+00
	2212	-1	0	0	0	0	0.0000000000E+00	0.0000000000E+00	6.5000000000E+03	6.5000000000E+03	9.3827000000E-01	0.000E+00	0.0
	2212	-1	0	0	0	0	0.0000000000E+00	0.0000000000E+00	-6.5000000000E+03	6.5000000000E+03	9.3827000000E-01	0.000E+00	0.0
	2212	1	0	0	0	0	0.0000000000E+00	0.0000000000E+00	5.6031273801E+03	5.6031273801E+03	9.3827000000E-01	0.000E+00	0.0
	2212	1	0	0	0	0	0.0000000000E+00	0.0000000000E+00	-6.2004685481E+03	6.2004685481E+03	9.3827000000E-01	0.000E+00	0.0
	51	2	1	2	0	0	5.9244485747E+01	-4.0910340088E+01	7.2219037572E+02	1.2654282816E+03	1.0366128651E+03	0.000E+00	0.0
	1000022	2	5	5	0	0	-5.9244485747E+01	4.0910340088E+01	3.7428849260E+02	9.3068987174E+02	8.4906312877E+02	0.000E+00	0.0
	14	1	6	6	0	0	-2.8595877446E+02	1.0511669742E+02	1.4546921495E+02	4.6862376515E+02	3.2500000000E+02	0.000E+00	0.0
	-14	1	6	6	0	0	2.2671428872E+02	-6.4206357327E+01	2.2881927765E+02	4.6206610658E+02	3.2500000000E+02	0.000E+00	0.0
	25	2	5	5	0	0	5.9244485747E+01	-4.0910340088E+01	2.2305267537E+02	2.6571420009E+02	1.2517178246E+02	0.000E+00	0.0
	-5	1	9	9	0	501	-8.9552274029E+00	1.7915208241E+01	1.4507304507E+02	1.4650874237E+02	4.1800000000E+00	0.000E+00	0.0
	5	1	9	9	501	0	6.8199713150E+01	-5.8825548329E+01	7.7979630298E+01	1.1920545773E+02	4.1800000000E+00	0.000E+00	0.0
</event>
<event>
    11  -1  1.0000000E+00  1.0000000E+00  -1.0000000E+00  -1.0000000E+00
	2212	-1	0	0	0	0	0.0000000000E+00	0.0000000000E+00	6.5000000000E+03	6.5000000000E+03	9.3827000000E-01	0.000E+00	0.0
	2212	-1	0	0	0	0	0.0000000000E+00	0.0000000000E+00	-6.5000000000E+03	6.5000000000E+03	9.3827000000E-01	0.000E+00	0.0
	2212	1	0	0	0	0	0.0000000000E+00	0.0000000000E+00	5.5128839222E+03	5.5128839222E+03	9.3827000000E-01	0.000E+00	0.0
	2212	1	0	0	0	0	0.0000000000E+00	0.0000000000E+00	-6.2143986000E+03	6.2143986000E+03	9.3827000000E-01	0.000E+00	0.0
	51	2	1	2	0	0	1.3678681786E+02	-5.9756303909E+01	7.2387830102E+02	1.2938192219E+03	1.0619260497E+03	0.000E+00	0.0
	1000022	2	5	5	0	0	-1.3678681786E+02	5.9756303909E+01	5.5713877647E+02	1.0302559191E+03	8.5366398139E+02	0.000E+00	0.0
	14	1	6	6	0	0	-1.0358562388E+02	-2.3670613934E+02	3.4935444449E+02	5.4261708944E+02	3.2500000000E+02	0.000E+00	0.0
	-14	1	6	6	0	0	-3.3201193980E+01	2.9646244324E+02	2.0778433198E+02	4.8763882962E+02	3.2500000000E+02	0.000E+00	0.0
	25	2	5	5	0	0	1.3678681786E+02	-5.9756303909E+01	1.4437590138E+02	2.4246155868E+02	1.2514694221E+02	0.000E+00	0.0
	-5	1	9	9	0	501	2.9470486742E+01	-3.1530567126E+01	1.2160727354E+02	1.2910649724E+02	4.1800000000E+00	0.000E+00	0.0
	5	1	9	9	501	0	1.0731633112E+02	-2.8225736783E+01	2.2768627840E+01	1.1335506144E+02	4.1800000000E+00	0.000E+00	0.0
</event>
<event>
    11  -1  1.0000000E+00  1.0000000E+00  -1.0000000E+00  -1.0000000E+00
	2212	-1	0	0	0	0	0.0000000000E+00	0.0000000000E+00	6.5000000000E+03	6.5000000000E+03	9.3827000000E-01	0.000E+00	0.0
	2212	-1	0	0	0	0	0.0000000000E+00	0.0000000000E+00	-6.5000000000E+03	6.5000000000E+03	9.3827000000E-01	0.000E+00	0.0
	2212	1	0	0	0	0	0.0000000000E+00	0.0000000000E+00	5.9641121491E+03	5.9641121491E+03	9.3827000000E-01	0.000E+00	0.0
	2212	1	0	0	0	0	0.0000000000E+00	0.0000000000E+00	-5.9814970328E+03	5.9814970328E+03	9.3827000000E-01	0.000E+00	0.0
	51	2	1	2	0	0	2.6985417769E+01	-1.3730459186E+02	-7.3341221526E+00	1.0635188368E+03	1.0542474867E+03	0.000E+00	0.0
	1000022	2	5	5	0	0	-2.6985417769E+01	1.3730459186E+02	3.9139692392E+01	8.6548464553E+02	8.5320044093E+02	0.000E+00	0.0
	14	1	6	6	0	0	4.7244616561E+01	2.1548532773E+02	-2.0678920343E+02	4.4390624563E+02	3.2500000000E+02	0.000E+00	0.0
	-14	1	6	6	0	0	-7.4230034331E+01	-7.8180735862E+01	2.4592889582E+02	4.2157839989E+02	3.2500000000E+02	0.000E+00	0.0
	25	2	5	5	0	0	2.6985417769E+01	-1.3730459186E+02	-2.1754808677E+01	1.8890617262E+02	1.2502602383E+02	0.000E+00	0.0
	-5	1	9	9	0	501	-3.2713295522E+00	-1.4973754854E+02	-3.4153371550E+01	1.5367485230E+02	4.1800000000E+00	0.000E+00	0.0
	5	1	9	9	501	0	3.0256747322E+01	1.2432956680E+01	1.2398562873E+01	3.5231320322E+01	4.1800000000E+00	0.000E+00	0.0
</event>
<event>
    11  -1  1.0000000E+00  1.0000000E+00  -1.0000000E+00  -1.0000000E+00
	2212	-1	0	0	0	0	0.0000000000E+00	0.0000000000E+00	6.5000000000E+03	6.5000000000E+03	9.3827000000E-01	0.000E+00	0.0
	2212	-1	0	0	0	0	0.0000000000E+00	0.0000000000E+00	-6.5000000000E+03	6.5000000000E+03	9.3827000000E-01	0.000E+00	0.0
	2212	1	0	0	0	0	0.0000000000E+00	0.0000000000E+00	4.9238686604E+03	4.9238686604E+03	9.3827000000E-01	0.000E+00	0.0
	2212	1	0	0	0	0	0.0000000000E+00	0.0000000000E+00	-6.3253938688E+03	6.3253938688E+03	9.3827000000E-01	0.000E+00	0.0
	51	2	1	2	0	0	1.4471704348E+02	-4.4545445048E+01	1.3037079589E+03	1.6802947786E+03	1.0491943488E+03	0.000E+00	0.0
	1000022	2	5	5	0	0	-1.4471704348E+02	4.4545445048E+01	1.2386637530E+03	1.4955492188E+03	8.2428893823E+02	0.000E+00	0.0
	14	1	6	6	0	0	9.3843833417E+01	1.7862124548E+02	3.8900223167E+02	5.4558221255E+02	3.2500000000E+02	0.000E+00	0.0
	-14	1	6	6	0	0	-2.3856087689E+02	-1.3407580043E+02	8.4966152129E+02	9.4996700627E+02	3.2500000000E+02	0.000E+00	0.0
	25	2	5	5	0	0	1.4471704348E+02	-4.4545445048E+01	1.6286145553E+02	2.5518825197E+02	1.2517935492E+02	0.000E+00	0.0
	-5	1	9	9	0	501	2.3962282292E+01	3.7905169796E+01	6.5428362717E+01	7.9431328314E+01	4.1800000000E+00	0.000E+00	0.0
	5	1	9	9	501	0	1.2075476119E+02	-8.2450614845E+01	9.7433092816E+01	1.7575692366E+02	4.1800000000E+00	0.000E+00	0.0
</event>
<event>
    11  -1  1.0000000E+00  1.0000000E+00  -1.0000000E+00  -1.0000000E+00
	2212	-1	0	0	0	0	0.0000000000E+00	0.0000000000E+00	6.5000000000E+03	6.5000000000E+03	9.3827000000E-01	0.000E+00	0.0
	2212	-1	0	0	0	0	0.0000000000E+00	0.0000000000E+00	-6.5000000000E+03	6.5000000000E+03	9.3827000000E-01	0.000E+00	0.0
	2212	1	0	0	0	0	0.0000000000E+00	0.0000000000E+00	5.9017347131E+03	5.9017347131E+03	9.3827000000E-01	0.000E+00	0.0
	2212	1	0	0	0	0	0.0000000000E+00	0.0000000000E+00	-6.0276630860E+03	6.0276630860E+03	9.3827000000E-01	0.000E+00	0.0
	51	2	1	2	0	0	1.0563619795E+02	-9.4041367576E+01	4.1203459489E+01	1.0733273628E+03	1.0631703145E+03	0.000E+00	0.0
	1000022	2	5	5	0	0	-1.0563619795E+02	9.4041367576E+01	1.8760277566E+02	8.7190907128E+02	8.3965936070E+02	0.000E+00	0.0
	14	1	6	6	0	0	1.3357742145E+02	1.1593854135E+02	-9.1008006263E+01	3.8104085095E+02	3.2500000000E+02	0.000E+00	0.0
	-14	1	6	6	0	0	-2.3921361940E+02	-2.1897173776E+01	2.7861078193E+02	4.9086822033E+02	3.2500000000E+02	0.000E+00	0.0
	25	2	5	5	0	0	1.0563619795E+02	-9.4041367576E+01	-6.1674402819E+01	1.9869312966E+02	1.2518962688E+02	0.000E+00	0.0
	-5	1	9	9	0	501	7.8618837276E+00	1.5172157936E+01	-4.8341369797E+01	5.1442822881E+01	4.1800000000E+00	0.000E+00	0.0
	5	1	9	9	501	0	9.7774314223E+01	-1.0921352551E+02	-1.3333033023E+01	1.4725030678E+02	4.1800000000E+00	0.000E+00	0.0
</event>
<event>
    11  -1  1.0000000E+00  1.0000000E+00  -1.0000000E+00  -1.0000000E+00
	2212	-1	0	0	0	0	0.0000000000E+00	0.0000000000E+00	6.5000000000E+03	6.5000000000E+03	9.3827000000E-01	0.000E+00	0.0
	2212	-1	0	0	0	0	0.0000000000E+00	0.0000000000E+00	-6.5000000000E+03	6.5000000000E+03	9.3827000000E-01	0.000E+00	0.0
	2212	1	0	0	0	0	0.0000000000E+00	0.0000000000E+00	6.0239968723E+03	6.0239968723E+03	9.3827000000E-01	0.000E+00	0.0
	2212	1	0	0	0	0	0.0000000000E+00	0.0000000000E+00	-5.9277248729E+03	5.9277248729E+03	9.3827000000E-01	0.000E+00	0.0
	51	2	1	2	0	0	5.1507751666E+00	9.1595695340E+01	-2.0124642949E+02	1.0670217564E+03	1.0438481697E+03	0.000E+00	0.0
	1000022	2	5	5	0	0	-5.1507751666E+00	-9.1595695340E+01	2.5073024785E+01	8.5128003782E+02	8.4595079309E+02	0.000E+00	0.0
	14	1	6	6	0	0	-1.0978971914E+02	-1.7515906138E+02	2.2581719842E+02	4.4648951423E+02	3.2500000000E+02	0.000E+00	0.0
	-14	1	6	6	0	0	1.0463894398E+02	8.3563366041E+01	-2.0074417364E+02	4.0479052359E+02	3.2500000000E+02	0.000E+00	0.0
	25	2	5	5	0	0	5.1507751666E+00	9.1595695340E+01	-1.2134502420E+02	1.9699821691E+02	1.2516940791E+02	0.000E+00	0.0
	-5	1	9	9	0	501	7.3911582872E+00	4.9199131259E+01	-1.4132909377E+02	1.4988852152E+02	4.1800000000E+00	0.000E+00	0.0
	5	1	9	9	501	0	-2.2403831205E+00	4.2396564080E+01	1.9984069575E+01	4.7109695383E+01	4.1800000000E+00	0.000E+00	0.0
</event>
<event>
    11  -1  1.0000000E+00  1.0000000E+00  -1.0000000E+00  -1.0000000E+00
	2212	-1	0	0	0	0	0.0000000000E+00	0.0000000000E+00	6.5000000000E+03	6.5000000000E+03	9.3827000000E-01	0.000E+00	0.0
	2212	-1	0	0	0	0	0.0000000000E+00	0.0000000000E+00	-6.5000000000E+03	6.5000000000E+03	9.3827000000E-01	0.000E+00	0.0
	2212	1	0	0	0	0	0.0000000000E+00	0.0000000000E+00	6.2873679353E+03	6.2873679353E+03	9.3827000000E-01	0.000E+00	0.0
	2212	1	0	0	0	0	0.0000000000E+00	0.0000000000E+00	-5.2106942290E+03	5.2106942290E+03	9.3827000000E-01	0.000E+00	0.0
	51	2	1	2	0	0	-4.1286502920E+01	5.4131988937E+01	-1.2794000371E+03	1.6547175877E+03	1.0471824066E+03	0.000E+00	0.0
	1000022	2	5	5	0	0	4.1286502920E+01	-5.4131988937E+01	-6.8405465718E+02	1.0842616191E+03	8.3848532317E+02	0.000E+00	0.0
	14	1	6	6	0	0	-1.4916601707E+02	-4.5831062265E+01	-7.5245472876E+01	3.6829046703E+02	3.2500000000E+02	0.000E+00	0.0
	-14	1	6	6	0	0	1.9045251999E+02	-8.3009266723E+00	-6.0880918430E+02	7.1597115211E+02	3.2500000000E+02	0.000E+00	0.0
	25	2	5	5	0	0	-4.1286502920E+01	5.4131988937E+01	-3.9261904912E+02	4.1767621664E+02	1.2517530375E+02	0.000E+00	0.0
	-5	1	9	9	0	501	-8.2029533800E+01	1.3218651275E+01	-2.5963597452E+02	2.7263875150E+02	4.1800000000E+00	0.000E+00	0.0
	5	1	9	9	501	0	4.0743030880E+01	4.0913337663E+01	-1.3298307460E+02	1.4503746514E+02	4.1800000000E+00	0.000E+00	0.0
</event>
<event>
    11  -1  1.0000000E+00  1.0000000E+00  -1.0000000E+00  -1.0000000E+00
	2212	-1	0	0	0	0	0.0000000000E+00	0.0000000000E+00	6.5000000000E+03	6.5000000000E+03	9.3827000000E-01	0.000E+00	0.0
	2212	-1	0	0	0	0	0.0000000000E+00	0.0000000000E+00	-6.5000000000E+03	6.5000000000E+03	9.3827000000E-01	0.000E+00	0.0
	2212	1	0	0	0	0	0.0000000000E+00	0.0000000000E+00	6.2474071461E+03	6.2474071461E+03	9.3827000000E-01	0.000E+00	0.0
	2212	1	0	0	0	0	0.0000000000E+00	0.0000000000E+00	-5.4311057681E+03	5.4311057681E+03	9.3827000000E-01	0.000E+00	0.0
	51	2	1	2	0	0	6.7688208749E+01	-9.7135088289E+01	-8.8914795356E+02	1.3728004883E+03	1.0392209478E+03	0.000E+00	0.0
	1000022	2	5	5	0	0	-6.7688208749E+01	9.7135088289E+01	-6.0831998484E+02	1.0514077704E+03	8.4934573449E+02	0.000E+00	0.0
	14	1	6	6	0	0	-1.7359074441E+02	-1.5937275085E+02	-4.3020104863E+02	5.8841427796E+02	3.2500000000E+02	0.000E+00	0.0
	-14	1	6	6	0	0	1.0590253567E+02	2.5650783914E+02	-1.7811893621E+02	4.6299349243E+02	3.2500000000E+02	0.000E+00	0.0
	25	2	5	5	0	0	6.7688208749E+01	-9.7135088289E+01	-2.0798139311E+02	2.7007931540E+02	1.2517850353E+02	0.000E+00	0.0
	-5	1	9	9	0	501	6.5858510176E+01	-6.7378716587E+01	-2.1866411483E+02	2.3813589046E+02	4.1800000000E+00	0.000E+00	0.0
	5	1	9	9	501	0	1.8296985731E+00	-2.9756371702E+01	1.0682721717E+01	3.1943424942E+01	4.1800000000E+00	0.000E+00	0.0
</event>
<event>
    11  -1  1.0000000E+00  1.0000000E+00  -1.0000000E+00  -1.0000000E+00
	2212	-1	0	0	0	0	0.0000000000E+00	0.0000000000E+00	6.5000000000E+03	6.5000000000E+03	9.3827000000E-01	0.000E+00	0.0
	2212	-1	0	0	0	0	0.0000000000E+00	0.0000000000E+00	-6.5000000000E+03	6.5000000000E+03	9.3827000000E-01	0.000E+00	0.0
	2212	1	0	0	0	0	0.0000000000E+00	0.0000000000E+00	6.1819535253E+03	6.1819535253E+03	9.3827000000E-01	0.000E+00	0.0
	2212	1	0	0	0	0	0.0000000000E+00	0.0000000000E+00	-5.6315570271E+03	5.6315570271E+03	9.3827000000E-01	0.000E+00	0.0
	51	2	1	2	0	0	1.4017644000E+02	3.6356402093E+01	-5.7267786038E+02	1.2057164086E+03	1.0511046113E+03	0.000E+00	0.0
	1000022	2	5	5	0	0	-1.4017644000E+02	-3.6356402093E+01	-4.3282143294E+02	9.6183789959E+02	8.4665608719E+02	0.000E+00	0.0
	14	1	6	6	0	0	6.7061094183E+01	-2.5236143556E+02	-1.9977849509E+02	4.6229853083E+02	3.2500000000E+02	0.000E+00	0.0
	-14	1	6	6	0	0	-2.0723753418E+02	2.1600503346E+02	-2.3304293785E+02	4.9953936876E+02	3.2500000000E+02	0.000E+00	0.0
	25	2	5	5	0	0	1.4017644000E+02	3.6356402093E+01	-1.1757506535E+02	2.2465154801E+02	1.2519265046E+02	0.000E+00	0.0
	-5	1	9	9	0	501	5.1320378291E+01	7.3435388477E+01	-8.3185440015E+01	1.2232672373E+02	4.1800000000E+00	0.000E+00	0.0
	5	1	9	9	501	0	8.8856061707E+01	-3.7078986384E+01	-3.4389625340E+01	1.0232482428E+02	4.1800000000E+00	0.000E+00	0.0
</event>
<event>
    11  -1  1.0000000E+00  1.0000000E+00  -1.0000000E+00  -1.0000000E+00
	2212	-1	0	0	0	0	0.0000000000E+00	0.0000000000E+00	6.5000000000E+03	6.5000000000E+03	9.3827000000E-01	0.000E+00	0.0
	2212	-1	0	0	0	0	0.0000000000E+00	0.0000000000E+00	-6.5000000000E+03	6.5000000000E+03	9.3827000000E-01	0.000E+00	0.0
	2212	1	0	0	0	0	0.0000000000E+00	0.0000000000E+00	6.2640798567E+03	6.2640798567E+03	9.3827000000E-01	0.000E+00	0.0
	2212	1	0	0	0	0	0.0000000000E+00	0.0000000000E+00	-5.3062776306E+03	5.3062776306E+03	9.3827000000E-01	0.000E+00	0.0
	51	2	1	2	0	0	1.1216172732E+02	-3.4599781385E+01	-8.1175347011E+02	1.3413477192E+03	1.0613635615E+03	0.000E+00	0.0
	1000022	2	5	5	0	0	-1.1216172732E+02	3.4599781385E+01	-9.2800868607E+02	1.2554701547E+03	8.3739344996E+02	0.000E+00	0.0
	14	1	6	6	0	0	1.5243030648E+01	-1.7786922065E+01	-8.2613802364E+02	8.8807531138E+02	3.2500000000E+02	0.000E+00	0.0
	-14	1	6	6	0	0	-1.2740475796E+02	5.2386703449E+01	-1.0187066243E+02	3.6739484334E+02	3.2500000000E+02	0.000E+00	0.0
	25	2	5	5	0	0	1.1216172732E+02	-3.4599781385E+01	-2.9793540003E+01	1.7417235793E+02	1.2518369421E+02	0.000E+00	0.0
	-5	1	9	9	0	501	4.5814113040E+01	-7.7572456154E+01	-2.9894089207E+01	9.5013408932E+01	4.1800000000E+00	0.000E+00	0.0
	5	1	9	9	501	0	6.6347614276E+01	4.2972674770E+01	1.0054920414E-01	7.9158949002E+01	4.1800000000E+00	0.000E+00	0.0
</event>
<event>
    11  -1  1.0000000E+00  1.0000000E+00  -1.0000000E+00  -1.0000000E+00
	2212	-1	0	0	0	0	0.0000000000E+00	0.0000000000E+00	6.5000000000E+03	6.5000000000E+03	9.3827000000E-01	0.000E+00	0.0
	2212	-1	0	0	0	0	0.0000000000E+00	0.0000000000E+00	-6.5000000000E+03	6.5000000000E+03	9.3827000000E-01	0.000E+00	0.0
	2212	1	0	0	0	0	0.0000000000E+00	0.0000000000E+00	5.1628240362E+03	5.1628240362E+03	9.3827000000E-01	0.000E+00	0.0
	2212	1	0	0	0	0	0.0000000000E+00	0.0000000000E+00	-6.2918779171E+03	6.2918779171E+03	9.3827000000E-01	0.000E+00	0.0
	51	2	1	2	0	0	-3.6804519592E+01	-1.2883417130E+02	1.2110782580E+03	1.6117837170E+03	1.0550750622E+03	0.000E+00	0.0
	1000022	2	5	5	0	0	3.6804519592E+01	1.2883417130E+02	8.5419988725E+02	1.2148929701E+03	8.5343697189E+02	0.000E+00	0.0
	14	1	6	6	0	0	-7.4791544490E+01	3.0760381946E+02	5.9740967215E+02	7.5015811750E+02	3.2500000000E+02	0.000E+00	0.0
	-14	1	6	6	0	0	1.1159606408E+02	-1.7876964816E+02	2.5679021510E+02	4.6473485257E+02	3.2500000000E+02	0.000E+00	0.0
	25	2	5	5	0	0	-3.6804519592E+01	-1.2883417130E+02	2.7485399368E+02	3.3040507657E+02	1.2517979238E+02	0.000E+00	0.0
	-5	1	9	9	0	501	-3.2898251334E+01	-1.5227394596E+02	2.1230555100E+02	2.6336432739E+02	4.1800000000E+00	0.000E+00	0.0
	5	1	9	9	501	0	-3.9062682584E+00	2.3439774656E+01	6.2548442683E+01	6.7040749173E+01	4.1800000000E+00	0.000E+00	0.0
</event>
<event>
    11  -1  1.0000000E+00  1.0000000E+00  -1.0000000E+00  -1.0000000E+00
	2212	-1	0	0	0	0	0.0000000000E+00	0.0000000000E+00	6.5000000000E+03	6.5000000000E+03	9.3827000000E-01	0.000E+00	0.0
	2212	-1	0	0	0	0	0.0000000000E+00	0.0000000000E+00	-6.5000000000E+03	6.5000000000E+03	9.3827000000E-01	0.000E+00	0.0
	2212	1	0	0	0	0	0.0000000000E+00	0.0000000000E+00	5.4275820573E+03	5.4275820573E+03	9.3827000000E-01	0.000E+00	0.0
	2212	1	0	0	0	0	0.0000000000E+00	0.0000000000E+00	-6.2427681763E+03	6.2427681763E+03	9.3827000000E-01	0.000E+00	0.0
	51	2	1	2	0	0	1.1686028780E+02	1.6277399378E+02	8.4821978950E+02	1.3649427109E+03	1.0504475678E+03	0.000E+00	0.0
	1000022	2	5	5	0	0	-1.1686028780E+02	-1.6277399378E+02	6.1323610229E+02	1.0188374345E+03	7.8855532519E+02	0.000E+00	0.0
	14	1	6	6	0	0	2.4744424282E+01	1.3228762339E+02	2.8505546796E+02	4.5276254444E+02	3.2500000000E+02	0.000E+00	0.0
	-14	1	6	6	0	0	-1.4160471208E+02	-2.9506161717E+02	3.2818063433E+02	5.6607489006E+02	3.2500000000E+02	0.000E+00	0.0
	25	2	5	5	0	0	1.1686028780E+02	1.6277399378E+02	2.0195001665E+02	3.1081233190E+02	1.2517506348E+02	0.000E+00	0.0
	-5	1	9	9	0	501	8.9549409976E+01	2.1662179113E+01	8.5871465809E+01	1.2601479227E+02	4.1800000000E+00	0.000E+00	0.0
	5	1	9	9	501	0	2.7310877821E+01	1.4111181466E+02	1.1607855084E+02	1.8479753962E+02	4.1800000000E+00	0.000E+00	0.0
</event>
<event>
    11  -1  1.0000000E+00  1.0000000E+00  -1.0000000E+00  -1.0000000E+00
	2212	-1	0	0	0	0	0.0000000000E+00	0.0000000000E+00	6.5000000000E+03	6.5000000000E+03	9.3827000000E-01	0.000E+00	0.0
	2212	-1	0	0	0	0	0.0000000000E+00	0.0000000000E+00	-6.5000000000E+03	6.5000000000E+03	9.3827000000E-01	0.000E+00	0.0
	2212	1	0	0	0	0	0.0000000000E+00	0.0000000000E+00	5.8086088082E+03	5.8086088082E+03	9.3827000000E-01	0.000E+00	0.0
	2212	1	0	0	0	0	0.0000000000E+00	0.0000000000E+00	-6.0584662654E+03	6.0584662654E+03	9.3827000000E-01	0.000E+00	0.0
	51	2	1	2	0	0	-1.1063713860E+02	-2.2753133074E+02	2.1365731802E+02	1.1535816713E+03	1.1050294747E+03	0.000E+00	0.0
	1000022	2	5	5	0	0	1.1063713860E+02	2.2753133074E+02	2.2817683811E+02	8.4982032669E+02	7.7853634167E+02	0.000E+00	0.0
	14	1	6	6	0	0	-4.6128983906E+01	2.9149186301E+02	1.9961287718E+02	4.8225065069E+02	3.2500000000E+02	0.000E+00	0.0
	-14	1	6	6	0	0	1.5676612250E+02	-6.3960532261E+01	2.8563960932E+01	3.6756967600E+02	3.2500000000E+02	0.000E+00	0.0
	25	2	5	5	0	0	-1.1063713860E+02	-2.2753133074E+02	2.1680619009E+01	2.8310459971E+02	1.2516821573E+02	0.000E+00	0.0
	-5	1	9	9	0	501	-1.6437232030E+01	-7.2630905341E-01	-2.7773349211E+01	3.2550598275E+01	4.1800000000E+00	0.000E+00	0.0
	5	1	9	9	501	0	-9.4199906566E+01	-2.2680502169E+02	4.9453968220E+01	2.5055400143E+02	4.1800000000E+00	0.000E+00	0.0
</event>
<event>
    11  -1  1.0000000E+00  1.0000000E+00  -1.0000000E+00  -1.0000000E+00
	2212	-1	0	0	0	0	0.0000000000E+00	0.0000000000E+00	6.5000000000E+03	6.5000000000E+03	9.3827000000E-01	0.000E+00	0.0
	2212	-1	0	0	0	0	0.0000000000E+00	0.0000000000E+00	-6.5000000000E+03	6.5000000000E+03	9.3827000000E-01	0.000E+00	0.0
	2212	1	0	0	0	0	0.0000000000E+00	0.0000000000E+00	6.3116094864E+03	6.3116094864E+03	9.3827000000E-01	0.000E+00	0.0
	2212	1	0	0	0	0	0.0000000000E+00	0.0000000000E+00	-5.0279750539E+03	5.0279750539E+03	9.3827000000E-01	0.000E+00	0.0
	51	2	1	2	0	0	-8.8729710773E+01	8.8120287648E+01	-1.4048582728E+03	1.7602633484E+03	1.0532151453E+03	0.000E+00	0.0
	1000022	2	5	5	0	0	8.8729710773E+01	-8.8120287648E+01	-9.4253236453E+02	1.2761492043E+03	8.5120584280E+02	0.000E+00	0.0
	14	1	6	6	0	0	-1.6802822267E+02	1.1753633387E+02	-5.4178414226E+02	6.6423138303E+02	3.2500000000E+02	0.000E+00	0.0
	-14	1	6	6	0	0	2.5675793344E+02	-2.0565662152E+02	-4.0074822227E+02	6.1191782129E+02	3.2500000000E+02	0.000E+00	0.0
	25	2	5	5	0	0	-8.8729710773E+01	8.8120287648E+01	-3.4110206806E+02	3.8426625539E+02	1.2518701021E+02	0.000E+00	0.0
	-5	1	9	9	0	501	2.4564921434E+01	4.5522469201E+01	-6.8218225596E+01	8.5714230269E+01	4.1800000000E+00	0.000E+00	0.0
	5	1	9	9	501	0	-1.1329463221E+02	4.2597818448E+01	-2.7288384246E+02	2.9855202512E+02	4.1800000000E+00	0.000E+00	0.0
</event>
<event>
    11  -1  1.0000000E+00  1.0000000E+00  -1.0000000E+00  -1.0000000E+00
	2212	-1	0	0	0	0	0.0000000000E+00	0.0000000000E+00	6.5000000000E+03	6.5000000000E+03	9.3827000000E-01	0.000E+00	0.0
	2212	-1	0	0	0	0	0.0000000000E+00	0.0000000000E+00	-6.5000000000E+03	6.5000000000E+03	9.3827000000E-01	0.000E+00	0.0
	2212	1	0	0	0	0	0.0000000000E+00	0.0000000000E+00	5.5187519149E+03	5.5187519149E+03	9.3827000000E-01	0.000E+00	0.0
	2212	1	0	0	0	0	0.0000000000E+00	0.0000000000E+00	-6.2239948542E+03	6.2239948542E+03	9.3827000000E-01	0.000E+00	0.0
	51	2	1	2	0	0	-7.5250202594E+01	1.0954233704E+02	6.9661942149E+02	1.2594676725E+03	1.0408256737E+03	0.000E+00	0.0
	1000022	2	5	5	0	0	7.5250202594E+01	-1.0954233704E+02	5.9566486687E+02	1.0443180249E+03	8.4742043102E+02	0.000E+00	0.0
	14	1	6	6	0	0	1.3037959320E+02	8.3080124768E+01	5.5347668082E+02	6.6019889554E+02	3.2500000000E+02	0.000E+00	0.0
	-14	1	6	6	0	0	-5.5129390605E+01	-1.9262246181E+02	4.2188186049E+01	3.8411912936E+02	3.2500000000E+02	0.000E+00	0.0
	25	2	5	5	0	0	-7.5250202594E+01	1.0954233704E+02	1.0957807242E+02	2.1293520598E+02	1.2518758483E+02	0.000E+00	0.0
	-5	1	9	9	0	501	1.7182728807E+01	-1.5925458334E+01	2.7657127476E+00	2.3958045818E+01	4.1800000000E+00	0.000E+00	0.0
	5	1	9	9	501	0	-9.2432931401E+01	1.2546779537E+02	1.0681235968E+02	1.8897716016E+02	4.1800000000E+00	0.000E+00	0.0
</event>
<event>
    11  -1  1.0000000E+00  1.0000000E+00  -1.0000000E+00  -1.0000000E+00
	2212	-1	0	0	0	0	0.0000000000E+00	0.0000000000E+00	6.5000000000E+03	6.5000000000E+03	9.3827000000E-01	0.000E+00	0.0
	2212	-1	0	0	0	0	0.0000000000E+00	0.0000000000E+00	-6.5000000000E+03	6.5000000000E+03	9.3827000000E-01	0.000E+00	0.0
	2212	1	0	0	0	0	0.0000000000E+00	0.0000000000E+00	6.2948216037E+03	6.2948216037E+03	9.3827000000E-01	0.000E+00	0.0
	2212	1	0	0	0	0	0.0000000000E+00	0.0000000000E+00	-5.1517838025E+03	5.1517838025E+03	9.3827000000E-01	0.000E+00	0.0
	51	2	1	2	0	0	7.4430537945E+01	1.2720884676E+02	-1.1744868079E+03	1.5835531588E+03	1.0519027280E+03	0.000E+00	0.0
	1000022	2	5	5	0	0	-7.4430537945E+01	-1.2720884676E+02	-9.1219107806E+02	1.2522534469E+03	8.4517698536E+02	0.000E+00	0.0
	14	1	6	6	0	0	-2.0065013648E+02	6.8358319126E+01	-6.9833040019E+02	7.9888903165E+02	3.2500000000E+02	0.000E+00	0.0
	-14	1	6	6	0	0	1.2621959853E+02	-1.9556716589E+02	-2.1386067787E+02	4.5336441520E+02	3.2500000000E+02	0.000E+00	0.0
	25	2	5	5	0	0	7.4430537945E+01	1.2720884676E+02	-2.3084672308E+02	3.0114114692E+02	1.2519498848E+02	0.000E+00	0.0
	-5	1	9	9	0	501	9.3098048960E+01	1.3948809126E+02	-1.8352275099E+02	2.4864079885E+02	4.1800000000E+00	0.000E+00	0.0
	5	1	9	9	501	0	-1.8667511016E+01	-1.2279244500E+01	-4.7323972090E+01	5.2500348069E+01	4.1800000000E+00	0.000E+00	0.0
</event>
<event>
    11  -1  1.0000000E+00  1.0000000E+00  -1.0000000E+00  -1.0000000E+00
	2212	-1	0	0	0	0	0.0000000000E+00	0.0000000000E+00	6.5000000000E+03	6.5000000000E+03	9.3827000000E-01	0.000E+00	0.0
	2212	-1	0	0	0	0	0.0000000000E+00	0.0000000000E+00	-6.5000000000E+03	6.5000000000E+03	9.3827000000E-01	0.000E+00	0.0
	2212	1	0	0	0	0	0.0000000000E+00	0.0000000000E+00	5.6119585487E+03	5.6119585487E+03	9.3827000000E-01	0.000E+00	0.0
	2212	1	0	0	0	0	0.0000000000E+00	0.0000000000E+00	-6.1783904129E+03	6.1783904129E+03	9.3827000000E-01	0.000E+00	0.0
	51	2	1	2	0	0	7.3772613028E+01	1.2209135993E+02	6.6034792247E+02	1.2644440103E+03	1.0688360856E+03	0.000E+00	0.0
	1000022	2	5	5	0	0	-7.3772613028E+01	-1.2209135993E+02	3.7040651771E+02	9.3679722941E+02	8.4855133142E+02	0.000E+00	0.0
	14	1	6	6	0	0	1.1747044759E+01	4.5084615102E+01	-9.2244992488E+01	3.4103482845E+02	3.2500000000E+02	0.000E+00	0.0
	-14	1	6	6	0	0	-8.5519657788E+01	-1.6717597503E+02	4.6265151020E+02	5.9576240095E+02	3.2500000000E+02	0.000E+00	0.0
	25	2	5	5	0	0	7.3772613028E+01	1.2209135993E+02	1.9602534645E+02	2.7285380900E+02	1.2519810713E+02	0.000E+00	0.0
	-5	1	9	9	0	501	-2.2917209906E+01	-5.3755195677E+00	6.4643976278E+00	2.4766016175E+01	4.1800000000E+00	0.000E+00	0.0
	5	1	9	9	501	0	9.6689822934E+01	1.2746687950E+02	1.8956094882E+02	2.4808779282E+02	4.1800000000E+00	0.000E+00	0.0
</event>
<event>
    11  -1  1.0000000E+00  1.0000000E+00  -1.0000000E+00  -1.0000000E+00
	2212	-1	0	0	0	0	0.0000000000E+00	0.0000000000E+00	6.5000000000E+03	6.5000000000E+03	9.3827000000E-01	0.000E+00	0.0
	2212	-1	0	0	0	0	0.0000000000E+00	0.0000000000E+00	-6.5000000000E+03	6.5000000000E+03	9.3827000000E-01	0.000E+00	0.0
	2212	1	0	0	0	0	0.0000000000E+00	0.0000000000E+00	6.0090159446E+03	6.0090159446E+03	9.3827000000E-01	0.000E+00	0.0
	2212	1	0	0	0	0	0.0000000000E+00	0.0000000000E+00	-5.9312954508E+03	5.9312954508E+03	9.3827000000E-01	0.000E+00	0.0
	51	2	1	2	0	0	-1.4702518883E+02	-3.5895549307E+00	-8.6347286698E+01	1.0705067064E+03	1.0568346434E+03	0.000E+00	0.0
	1000022	2	5	5	0	0	1.4702518883E+02	3.5895549307E+00	-5.5631462927E+01	8.6531814183E+02	8.5091206118E+02	0.000E+00	0.0
	14	1	6	6	0	0	2.8240139416E+02	1.7632160108E+02	2.1047551545E+01	4.6573367267E+02	3.2500000000E+02	0.000E+00	0.0
	-14	1	6	6	0	0	-1.3537620533E+02	-1.7273204615E+02	-7.6679014471E+01	3.9958446916E+02	3.2500000000E+02	0.000E+00	0.0
	25	2	5	5	0	0	-1.4702518883E+02	-3.5895549307E+00	-2.2089030850E+01	1.9437046277E+02	1.2515055117E+02	0.000E+00	0.0
	-5	1	9	9	0	501	-8.6930360339E+01	-6.3311758433E+01	-4.3645677711E+00	1.0771159713E+02	4.1800000000E+00	0.000E+00	0.0
	5	1	9	9	501	0	-6.0094828491E+01	5.9722203502E+01	-1.7724463079E+01	8.6658865640E+01	4.1800000000E+00	0.000E+00	0.0
</event>
<event>
    11  -1  1.0000000E+00  1.0000000E+00  -1.0000000E+00  -1.0000000E+00
	2212	-1	0	0	0	0	0.0000000000E+00	0.0000000000E+00	6.5000000000E+03	6.5000000000E+03	9.3827000000E-01	0.000E+00	0.0
	2212	-1	0	0	0	0	0.0000000000E+00	0.0000000000E+00	-6.5000000000E+03	6.5000000000E+03	9.3827000000E-01	0.000E+00	0.0
	2212	1	0	0	0	0	0.0000000000E+00	0.0000000000E+00	6.1468997294E+03	6.1468997294E+03	9.3827000000E-01	0.000E+00	0.0
	2212	1	0	0	0	0	0.0000000000E+00	0.0000000000E+00	-5.7175330961E+03	5.7175330961E+03	9.3827000000E-01	0.000E+00	0.0
	51	2	1	2	0	0	3.6363121555E+01	3.6368166720E+01	-2.8677270174E+02	1.0908898225E+03	1.0512645253E+03	0.000E+00	0.0
	1000022	2	5	5	0	0	-3.6363121555E+01	-3.6368166720E+01	-4.9773826238E+02	9.8394513177E+02	8.4720701386E+02	0.000E+00	0.0
	14	1	6	6	0	0	2.9897147539E+01	1.3438429103E+02	1.0947509171E+01	3.5312579212E+02	3.2500000000E+02	0.000E+00	0.0
	-14	1	6	6	0	0	-6.6260269094E+01	-1.7075245775E+02	-5.0868577155E+02	6.3081933964E+02	3.2500000000E+02	0.000E+00	0.0
	25	2	5	5	0	0	3.6363121555E+01	3.6368166720E+01	6.8371629082E+01	1.5162204282E+02	1.2517844880E+02	0.000E+00	0.0
	-5	1	9	9	0	501	3.6777228285E+01	7.0704129783E+01	8.2015828083E+01	1.1443647559E+02	4.1800000000E+00	0.000E+00	0.0
	5	1	9	9	501	0	-4.1410673054E-01	-3.4335963063E+01	-1.3644199001E+01	3.7185567230E+01	4.1800000000E+00	0.000E+00	0.0
</event>
<event>
    11  -1  1.0000000E+00  1.0000000E+00  -1.0000000E+00  -1.0000000E+00
	2212	-1	0	0	0	0	0.0000000000E+00	0.0000000000E+00	6.5000000000E+03	6.5000000000E+03	9.3827000000E-01	0.000E+00	0.0
	2212	-1	0	0	0	0	0.0000000000E+00	0.0000000000E+00	-6.5000000000E+03	6.5000000000E+03	9.3827000000E-01	0.000E+00	0.0
	2212	1	0	0	0	0	0.0000000000E+00	0.0000000000E+00	5.4308670220E+03	5.4308670220E+03	9.3827000000E-01	0.000E+00	0.0
	2212	1	0	0	0	0	0.0000000000E+00	0.0000000000E+00	-6.2756540324E+03	6.2756540324E+03	9.3827000000E-01	0.000E+00	0.0
	51	2	1	2	0	0	3.0934656090E+01	5.5169572683E+00	8.6061207507E+02	1.3042481448E+03	9.7950124535E+02	0.000E+00	0.0
	1000022	2	5	5	0	0	-3.0934656090E+01	-5.5169572683E+00	7.1765208973E+02	1.1122798587E+03	8.4920820322E+02	0.000E+00	0.0
	14	1	6	6	0	0	4.9622102538E+01	6.0868475163E+01	1.9233763811E+01	3.3490634810E+02	3.2500000000E+02	0.000E+00	0.0
	-14	1	6	6	0	0	-8.0556758628E+01	-6.6385432431E+01	6.9841832592E+02	7.7737351060E+02	3.2500000000E+02	0.000E+00	0.0
	25	2	5	5	0	0	3.0934656090E+01	5.5169572683E+00	1.2713492073E+02	1.8119908689E+02	1.2522951432E+02	0.000E+00	0.0
	-5	1	9	9	0	501	-1.9534115125E+01	-4.5510388484E+01	8.3291316364E+01	9.6993262114E+01	4.1800000000E+00	0.000E+00	0.0
	5	1	9	9	501	0	5.0468771215E+01	5.1027345753E+01	4.3843604361E+01	8.4205824774E+01	4.1800000000E+00	0.000E+00	0.0
</event>
<event>
    11  -1  1.0000000E+00  1.0000000E+00  -1.0000000E+00  -1.0000000E+00
	2212	-1	0	0	0	0	0.0000000000E+00	0.0000000000E+00	6.5000000000E+03	6.5000000000E+03	9.3827000000E-01	0.000E+00	0.0
	2212	-1	0	0	0	0	0.0000000000E+00	0.0000000000E+00	-6.5000000000E+03	6.5000000000E+03	9.3827000000E-01	0.000E+00	0.0
	2212	1	0	0	0	0	0.0000000000E+00	0.0000000000E+00	4.9697335359E+03	4.9697335359E+03	9.3827000000E-01	0.000E+00	0.0
	2212	1	0	0	0	0	0.0000000000E+00	0.0000000000E+00	-6.3191874485E+03	6.3191874485E+03	9.3827000000E-01	0.000E+00	0.0
	51	2	1	2	0	0	-1.0336747271E+02	1.1618797998E+01	1.1989175766E+03	1.5984332085E+03	1.0520292465E+03	0.000E+00	0.0
	1000022	2	5	5	0	0	1.0336747271E+02	-1.1618797998E+01	1.2674680949E+03	1.5288916506E+03	8.4865450970E+02	0.000E+00	0.0
	14	1	6	6	0	0	1.7507101809E+02	2.2928279556E+02	5.3698680063E+02	6.9079684841E+02	3.2500000000E+02	0.000E+00	0.0
	-14	1	6	6	0	0	-7.1703545381E+01	-2.4090159356E+02	7.3048129431E+02	8.3809480224E+02	3.2500000000E+02	0.000E+00	0.0
	25	2	5	5	0	0	-1.0336747271E+02	1.1618797998E+01	8.1985817636E+01	1.8218736498E+02	1.2510288080E+02	0.000E+00	0.0
	-5	1	9	9	0	501	-1.1905253974E+01	4.4366642563E+01	-1.1243767738E+01	4.7476612742E+01	4.1800000000E+00	0.000E+00	0.0
	5	1	9	9	501	0	-9.1462218739E+01	-3.2747844565E+01	9.3229585373E+01	1.3471075224E+02	4.1800000000E+00	0.000E+00	0.0
</event>
<event>
    11  -1  1.0000000E+00  1.0000000E+00  -1.0000000E+00  -1.0000000E+00
	2212	-1	0	0	0	0	0.0000000000E+00	0.0000000000E+00	6.5000000000E+03	6.5000000000E+03	9.3827000000E-01	0.000E+00	0.0
	2212	-1	0	0	0	0	0.0000000000E+00	0.0000000000E+00	-6.5000000000E+03	6.5000000000E+03	9.3827000000E-01	0.000E+00	0.0
	2212	1	0	0	0	0	0.0000000000E+00	0.0000000000E+00	5.8660949572E+03	5.8660949572E+03	9.3827000000E-01	0.000E+00	0.0
	2212	1	0	0	0	0	0.0000000000E+00	0.0000000000E+00	-6.0609006421E+03	6.0609006421E+03	9.3827000000E-01	0.000E+00	0.0
	51	2	1	2	0	0	9.8508878076E+01	-9.6639515783E+01	1.4370492648E+02	1.0738172517E+03	1.0551725874E+03	0.000E+00	0.0
	1000022	2	5	5	0	0	-9.8508878076E+01	9.6639515783E+01	2.1208363393E+02	8.8589296474E+02	8.4898980095E+02	0.000E+00	0.0
	14	1	6	6	0	0	2.3434029737E+01	9.0451142572E+01	3.7279507366E+02	5.0332070282E+02	3.2500000000E+02	0.000E+00	0.0
	-14	1	6	6	0	0	-1.2194290781E+02	6.1883732112E+00	-1.6071143973E+02	3.8257226192E+02	3.2500000000E+02	0.000E+00	0.0
	25	2	5	5	0	0	9.8508878076E+01	-9.6639515783E+01	-1.7277948963E+01	1.8711143600E+02	1.2517574402E+02	0.000E+00	0.0
	-5	1	9	9	0	501	3.1195933527E+01	-6.4596895933E+01	-6.6315386747E+01	9.7781123700E+01	4.1800000000E+00	0.000E+00	0.0
	5	1	9	9	501	0	6.7312944549E+01	-3.2042619850E+01	4.9037437784E+01	8.9330312297E+01	4.1800000000E+00	0.000E+00	0.0
</event>
<event>
    11  -1  1.0000000E+00  1.0000000E+00  -1.0000000E+00  -1.0000000E+00
	2212	-1	0	0	0	0	0.0000000000E+00	0.0000000000E+00	6.5000000000E+03	6.5000000000E+03	9.3827000000E-01	0.000E+00	0.0
	2212	-1	0	0	0	0	0.0000000000E+00	0.0000000000E+00	-6.5000000000E+03	6.5000000000E+03	9.3827000000E-01	0.000E+00	0.0
	2212	1	0	0	0	0	0.0000000000E+00	0.0000000000E+00	5.4274552606E+03	5.4274552606E+03	9.3827000000E-01	0.000E+00	0.0
	2212	1	0	0	0	0	0.0000000000E+00	0.0000000000E+00	-6.2454713252E+03	6.2454713252E+03	9.3827000000E-01	0.000E+00	0.0
	51	2	1	2	0	0	1.0802063053E+02	-7.3091769134E+01	8.3104461504E+02	1.3414990050E+03	1.0449753896E+03	0.000E+00	0.0
	1000022	2	5	5	0	0	-1.0802063053E+02	7.3091769134E+01	6.6977343250E+02	1.0932890349E+03	8.5420934185E+02	0.000E+00	0.0
	14	1	6	6	0	0	-8.5748917936E+01	1.1635167877E+02	9.5692178568E+00	3.5581899894E+02	3.2500000000E+02	0.000E+00	0.0
	-14	1	6	6	0	0	-2.2271712589E+01	-4.3259909633E+01	6.6020421465E+02	7.3747003600E+02	3.2500000000E+02	0.000E+00	0.0
	25	2	5	5	0	0	1.0802063053E+02	-7.3091769134E+01	1.4824263208E+02	2.3378437933E+02	1.2517345852E+02	0.000E+00	0.0
	-5	1	9	9	0	501	-2.7898919925E+01	-1.9480090841E+01	3.3795114012E+01	4.8139441243E+01	4.1800000000E+00	0.000E+00	0.0
	5	1	9	9	501	0	1.3591955045E+02	-5.3611678293E+01	1.1444751807E+02	1.8564493808E+02	4.1800000000E+00	0.000E+00	0.0
</event>
<event>
    11  -1  1.0000000E+00  1.0000000E+00  -1.0000000E+00  -1.0000000E+00
	2212	-1	0	0	0	0	0.0000000000E+00	0.0000000000E+00	6.5000000000E+03	6.5000000000E+03	9.3827000000E-01	0.000E+00	0.0
	2212	-1	0	0	0	0	0.0000000000E+00	0.0000000000E+00	-6.5000000000E+03	6.5000000000E+03	9.3827000000E-01	0.000E+00	0.0
	2212	1	0	0	0	0	0.0000000000E+00	0.0000000000E+00	6.1850406423E+03	6.1850406423E+03	9.3827000000E-01	0.000E+00	0.0
	2212	1	0	0	0	0	0.0000000000E+00	0.0000000000E+00	-5.6075629895E+03	5.6075629895E+03	9.3827000000E-01	0.000E+00	0.0
	51	2	1	2	0	0	4.4698161814E+01	1.3487122545E+02	-5.1430218880E+02	1.1870216785E+03	1.0603421856E+03	0.000E+00	0.0
	1000022	2	5	5	0	0	-4.4698161814E+01	-1.3487122545E+02	-5.3843159876E+02	1.0140452298E+03	8.4746148489E+02	0.000E+00	0.0
	14	1	6	6	0	0	1.1849289242E+02	-1.1018789771E+02	9.4273825159E-01	3.6305347693E+02	3.2500000000E+02	0.000E+00	0.0
	-14	1	6	6	0	0	-1.6319105423E+02	-2.4683327748E+01	-5.3937433701E+02	6.5099175285E+02	3.2500000000E+02	0.000E+00	0.0
	25	2	5	5	0	0	4.4698161814E+01	1.3487122545E+02	-3.9046054049E+01	1.9335113848E+02	1.2518744063E+02	0.000E+00	0.0
	-5	1	9	9	0	501	8.1175653496E+01	9.3206689524E+01	-5.5323119639E+01	1.3548097158E+02	4.1800000000E+00	0.000E+00	0.0
	5	1	9	9	501	0	-3.6477491682E+01	4.1664535930E+01	1.6277065590E+01	5.7870166908E+01	4.1800000000E+00	0.000E+00	0.0
</event>
<event>
    11  -1  1.0000000E+00  1.0000000E+00  -1.0000000E+00  -1.0000000E+00
	2212	-1	0	0	0	0	0.0000000000E+00	0.0000000000E+00	6.5000000000E+03	6.5000000000E+03	9.3827000000E-01	0.000E+00	0.0
	2212	-1	0	0	0	0	0.0000000000E+00	0.0000000000E+00	-6.5000000000E+03	6.5000000000E+03	9.3827000000E-01	0.000E+00	0.0
	2212	1	0	0	0	0	0.0000000000E+00	0.0000000000E+00	6.2867355339E+03	6.2867355339E+03	9.3827000000E-01	0.000E+00	0.0
	2212	1	0	0	0	0	0.0000000000E+00	0.0000000000E+00	-5.2135528064E+03	5.2135528064E+03	9.3827000000E-01	0.000E+00	0.0
	51	2	1	2	0	0	4.2626928361E+01	1.3598810479E+02	-1.1197497837E+03	1.5399880822E+03	1.0475752458E+03	0.000E+00	0.0
	1000022	2	5	5	0	0	-4.2626928361E+01	-1.3598810479E+02	-8.4075567598E+02	1.1997064931E+03	8.4386950603E+02	0.000E+00	0.0
	14	1	6	6	0	0	-1.8182710634E+02	7.6165163783E+01	-1.7934480103E+02	4.2029963886E+02	3.2500000000E+02	0.000E+00	0.0
	-14	1	6	6	0	0	1.3920017798E+02	-2.1215326857E+02	-6.6141087496E+02	7.7940685423E+02	3.2500000000E+02	0.000E+00	0.0
	25	2	5	5	0	0	4.2626928361E+01	1.3598810479E+02	-2.3242705146E+02	3.0000516657E+02	1.2518364931E+02	0.000E+00	0.0
	-5	1	9	9	0	501	3.8620968787E+01	4.5446821087E+01	-1.1105258874E+01	6.0809472549E+01	4.1800000000E+00	0.000E+00	0.0
	5	1	9	9	501	0	4.0059595733E+00	9.0541283700E+01	-2.2132179259E+02	2.3919569402E+02	4.1800000000E+00	0.000E+00	0.0
</event>
<event>
    11  -1  1.0000000E+00  1.0000000E+00  -1.0000000E+00  -1.0000000E+00
	2212	-1	0	0	0	0	0.0000000000E+00	0.0000000000E+00	6.5000000000E+03	6.5000000000E+03	9.3827000000E-01	0.000E+00	0.0
	2212	-1	0	0	0	0	0.0000000000E+00	0.0000000000E+00	-6.5000000000E+03	6.5000000000E+03	9.3827000000E-01	0.000E+00	0.0
	2212	1	0	0	0	0	0.0000000000E+00	0.0000000000E+00	6.1296597647E+03	6.1296597647E+03	9.3827000000E-01	0.000E+00	0.0
	2212	1	0	0	0	0	0.0000000000E+00	0.0000000000E+00	-5.7417247146E+03	5.7417247146E+03	9.3827000000E-01	0.000E+00	0.0
	51	2	1	2	0	0	8.7597438886E+01	-8.6823836163E+01	-3.0126075764E+02	1.1087150782E+03	1.0598487584E+03	0.000E+00	0.0
	1000022	2	5	5	0	0	-8.7597438886E+01	8.6823836163E+01	-4.0701892339E+02	9.5187584011E+02	8.5158177597E+02	0.000E+00	0.0
	14	1	6	6	0	0	-2.2606561091E+02	2.3980836338E+02	-3.0259327621E+02	5.5299313051E+02	3.2500000000E+02	0.000E+00	0.0
	-14	1	6	6	0	0	1.3846817203E+02	-1.5298452721E+02	-1.0442564718E+02	3.9888270960E+02	3.2500000000E+02	0.000E+00	0.0
	25	2	5	5	0	0	8.7597438886E+01	-8.6823836163E+01	1.9083873325E+01	1.7673968064E+02	1.2514403968E+02	0.000E+00	0.0
	-5	1	9	9	0	501	1.9542401092E+01	-4.9545306767E+01	6.6811302371E+01	8.5544522838E+01	4.1800000000E+00	0.000E+00	0.0
	5	1	9	9	501	0	6.8055037795E+01	-3.7278529396E+01	-4.7727429046E+01	9.1195157802E+01	4.1800000000E+00	0.000E+00	0.0
</event>
<event>
    11  -1  1.0000000E+00  1.0000000E+00  -1.0000000E+00  -1.0000000E+00
	2212	-1	0	0	0	0	0.0000000000E+00	0.0000000000E+00	6.5000000000E+03	6.5000000000E+03	9.3827000000E-01	0.000E+00	0.0
	2212	-1	0	0	0	0	0.0000000000E+00	0.0000000000E+00	-6.5000000000E+03	6.5000000000E+03	9.3827000000E-01	0.000E+00	0.0
	2212	1	0	0	0	0	0.0000000000E+00	0.0000000000E+00	5.8400372097E+03	5.8400372097E+03	9.3827000000E-01	0.000E+00	0.0
	2212	1	0	0	0	0	0.0000000000E+00	0.0000000000E+00	-6.0774715094E+03	6.0774715094E+03	9.3827000000E-01	0.000E+00	0.0
	51	2	1	2	0	0	2.6690224362E+01	-4.5453963736E+01	3.8426227531E+02	1.1250992195E+03	1.0561308284E+03	0.000E+00	0.0
	1000022	2	5	5	0	0	-2.6690224362E+01	4.5453963736E+01	4.9003028901E+01	8.5020895966E+02	8.4715733329E+02	0.000E+00	0.0
	14	1	6	6	0	0	-1.3105672284E+02	-1.0059887639E+02	2.3619740392E+02	4.3440788684E+02	3.2500000000E+02	0.000E+00	0.0
	-14	1	6	6	0	0	1.0436649848E+02	1.4605284012E+02	-1.8719437502E+02	4.1580107281E+02	3.2500000000E+02	0.000E+00	0.0
	25	2	5	5	0	0	2.6690224362E+01	-4.5453963736E+01	1.8843127076E+02	2.3228232130E+02	1.2518107721E+02	0.000E+00	0.0
	-5	1	9	9	0	501	4.0131889559E+01	-1.8106682732E+01	1.9573536019E+02	2.0066944000E+02	4.1800000000E+00	0.000E+00	0.0
	5	1	9	9	501	0	-1.3441665197E+01	-2.7347281005E+01	-7.3040894315E+00	3.1612881299E+01	4.1800000000E+00	0.000E+00	0.0
</event>
<event>
    11  -1  1.0000000E+00  1.0000000E+00  -1.0000000E+00  -1.0000000E+00
	2212	-1	0	0	0	0	0.0000000000E+00	0.0000000000E+00	6.5000000000E+03	6.5000000000E+03	9.3827000000E-01	0.000E+00	0.0
	2212	-1	0	0	0	0	0.0000000000E+00	0.0000000000E+00	-6.5000000000E+03	6.5000000000E+03	9.3827000000E-01	0.000E+00	0.0
	2212	1	0	0	0	0	0.0000000000E+00	0.0000000000E+00	5.6823434698E+03	5.6823434698E+03	9.3827000000E-01	0.000E+00	0.0
	2212	1	0	0	0	0	0.0000000000E+00	0.0000000000E+00	-6.1629801798E+03	6.1629801798E+03	9.3827000000E-01	0.000E+00	0.0
	51	2	1	2	0	0	-1.9639394503E+01	3.2989529358E+01	6.3163945611E+02	1.2258500089E+03	1.0498884832E+03	0.000E+00	0.0
	1000022	2	5	5	0	0	1.9639394503E+01	-3.2989529358E+01	2.4822134013E+02	8.8791789884E+02	8.5165154055E+02	0.000E+00	0.0
	14	1	6	6	0	0	2.1812123398E+02	1.0316084427E+02	-1.5558652745E+01	4.0507543024E+02	3.2500000000E+02	0.000E+00	0.0
	-14	1	6	6	0	0	-1.9848183948E+02	-1.3615037363E+02	2.6377999288E+02	4.8284246860E+02	3.2500000000E+02	0.000E+00	0.0
	25	2	5	5	0	0	-1.9639394503E+01	3.2989529358E+01	2.3241536993E+02	2.6675845154E+02	1.2517648511E+02	0.000E+00	0.0
	-5	1	9	9	0	501	-2.4342332722E+01	1.3189821802E+01	2.4218666638E+02	2.4379986532E+02	4.1800000000E+00	0.000E+00	0.0
	5	1	9	9	501	0	4.7029382187E+00	1.9799707556E+01	-9.7712964408E+00	2.2958586222E+01	4.1800000000E+00	0.000E+00	0.0
</event>
<event>
    11  -1  1.0000000E+00  1.0000000E+00  -1.0000000E+00  -1.0000000E+00
	2212	-1	0	0	0	0	0.0000000000E+00	0.0000000000E+00	6.5000000000E+03	6.5000000000E+03	9.3827000000E-01	0.000E+00	0.0
	2212	-1	0	0	0	0	0.0000000000E+00	0.0000000000E+00	-6.5000000000E+03	6.5000000000E+03	9.3827000000E-01	0.000E+00	0.0
	2212	1	0	0	0	0	0.0000000000E+00	0.0000000000E+00	6.1632069790E+03	6.1632069790E+03	9.3827000000E-01	0.000E+00	0.0
	2212	1	0	0	0	0	0.0000000000E+00	0.0000000000E+00	-5.6567297583E+03	5.6567297583E+03	9.3827000000E-01	0.000E+00	0.0
	51	2	1	2	0	0	-1.1453637031E+02	2.5138650725E+01	-4.2002842708E+02	1.1516095434E+03	1.0658471414E+03	0.000E+00	0.0
	1000022	2	5	5	0	0	1.1453637031E+02	-2.5138650725E+01	-5.0709722602E+02	1.0085407624E+03	8.6386129729E+02	0.000E+00	0.0
	14	1	6	6	0	0	2.6397791931E+02	-9.5515916738E+01	-6.3133676571E+01	4.3407199098E+02	3.2500000000E+02	0.000E+00	0.0
	-14	1	6	6	0	0	-1.4944154900E+02	7.0377266013E+01	-4.4396354945E+02	5.7446877146E+02	3.2500000000E+02	0.000E+00	0.0
	25	2	5	5	0	0	-1.1453637031E+02	2.5138650725E+01	6.2000533779E-01	1.7152250027E+02	1.2517608321E+02	0.000E+00	0.0
	-5	1	9	9	0	501	-6.9784772594E+01	5.4637674007E+01	4.7099528367E+01	1.0045410832E+02	4.1800000000E+00	0.000E+00	0.0
	5	1	9	9	501	0	-4.4751597716E+01	-2.9499023282E+01	-4.6479523029E+01	7.1068391946E+01	4.1800000000E+00	0.000E+00	0.0
</event>
<event>
    11  -1  1.0000000E+00  1.0000000E+00  -1.0000000E+00  -1.0000000E+00
	2212	-1	0	0	0	0	0.0000000000E+00	0.0000000000E+00	6.5000000000E+03	6.5000000000E+03	9.3827000000E-01	0.000E+00	0.0
	2212	-1	0	0	0	0	0.0000000000E+00	0.0000000000E+00	-6.5000000000E+03	6.5000000000E+03	9.3827000000E-01	0.000E+00	0.0
	2212	1	0	0	0	0	0.0000000000E+00	0.0000000000E+00	5.5901319375E+03	5.5901319375E+03	9.3827000000E-01	0.000E+00	0.0
	2212	1	0	0	0	0	0.0000000000E+00	0.0000000000E+00	-6.1976544321E+03	6.1976544321E+03	9.3827000000E-01	0.000E+00	0.0
	51	2	1	2	0	0	-1.1828010520E+02	-3.3820909868E+01	5.7988726183E+02	1.2048989908E+03	1.0489891822E+03	0.000E+00	0.0
	1000022	2	5	5	0	0	1.1828010520E+02	3.3820909868E+01	5.3664041341E+02	1.0229527821E+03	8.6215742404E+02	0.000E+00	0.0
	14	1	6	6	0	0	2.9848772576E+02	1.1228763793E+02	4.3511934658E+02	6.2980733707E+02	3.2500000000E+02	0.000E+00	0.0
	-14	1	6	6	0	0	-1.8020762055E+02	-7.8466728064E+01	1.0152106683E+02	3.9314544501E+02	3.2500000000E+02	0.000E+00	0.0
	25	2	5	5	0	0	-1.1828010520E+02	-3.3820909868E+01	7.0882081214E+01	1.8926084839E+02	1.2514536375E+02	0.000E+00	0.0
	-5	1	9	9	0	501	1.7232627091E+01	4.7828522774E-01	4.3198298971E+01	4.6698582711E+01	4.1800000000E+00	0.000E+00	0.0
	5	1	9	9	501	0	-1.3551273229E+02	-3.4299195095E+01	2.7683782242E+01	1.4256226568E+02	4.1800000000E+00	0.000E+00	0.0
</event>
<event>
    11  -1  1.0000000E+00  1.0000000E+00  -1.0000000E+00  -1.0000000E+00
	2212	-1	0	0	0	0	0.0000000000E+00	0.0000000000E+00	6.5000000000E+03	6.5000000000E+03	9.3827000000E-01	0.000E+00	0.0
	2212	-1	0	0	0	0	0.0000000000E+00	0.0000000000E+00	-6.5000000000E+03	6.5000000000E+03	9.3827000000E-01	0.000E+00	0.0
	2212	1	0	0	0	0	0.0000000000E+00	0.0000000000E+00	4.9105830479E+03	4.9105830479E+03	9.3827000000E-01	0.000E+00	0.0
	2212	1	0	0	0	0	0.0000000000E+00	0.0000000000E+00	-6.3228965460E+03	6.3228965460E+03	9.3827000000E-01	0.000E+00	0.0
	51	2	1	2	0	0	-6.4231779074E+01	-7.8887883165E+01	1.6254659481E+03	1.9438244510E+03	1.0611149459E+03	0.000E+00	0.0
	1000022	2	5	5	0	0	6.4231779074E+01	7.8887883165E+01	9.4774427632E+02	1.2747444976E+03	8.4640729049E+02	0.000E+00	0.0
	14	1	6	6	0	0	-8.1962338313E+01	-2.0325247140E+02	5.1449099862E+02	6.4680397316E+02	3.2500000000E+02	0.000E+00	0.0
	-14	1	6	6	0	0	1.4619411739E+02	2.8214035457E+02	4.3325327770E+02	6.2794052447E+02	3.2500000000E+02	0.000E+00	0.0
	25	2	5	5	0	0	-6.4231779074E+01	-7.8887883165E+01	4.6456922177E+02	4.9177590851E+02	1.2517972207E+02	0.000E+00	0.0
	-5	1	9	9	0	501	-8.4075584849E+01	-1.7403714163E+01	1.7391834515E+02	1.9400169178E+02	4.1800000000E+00	0.000E+00	0.0
	5	1	9	9	501	0	1.9843805775E+01	-6.1484169003E+01	2.9065087662E+02	2.9777421672E+02	4.1800000000E+00	0.000E+00	0.0
</event>
<event>
    11  -1  1.0000000E+00  1.0000000E+00  -1.0000000E+00  -1.0000000E+00
	2212	-1	0	0	0	0	0.0000000000E+00	0.0000000000E+00	6.5000000000E+03	6.5000000000E+03	9.3827000000E-01	0.000E+00	0.0
	2212	-1	0	0	0	0	0.0000000000E+00	0.0000000000E+00	-6.5000000000E+03	6.5000000000E+03	9.3827000000E-01	0.000E+00	0.0
	2212	1	0	0	0	0	0.0000000000E+00	0.0000000000E+00	5.4470966383E+03	5.4470966383E+03	9.3827000000E-01	0.000E+00	0.0
	2212	1	0	0	0	0	0.0000000000E+00	0.0000000000E+00	-6.2420894876E+03	6.2420894876E+03	9.3827000000E-01	0.000E+00	0.0
	51	2	1	2	0	0	-7.9400889462E+01	-2.3764935970E+01	6.6619411430E+02	1.2397190220E+03	1.0422184907E+03	0.000E+00	0.0
	1000022	2	5	5	0	0	7.9400889462E+01	2.3764935970E+01	7.8955741406E+02	1.1605784177E+03	8.4656487063E+02	0.000E+00	0.0
	14	1	6	6	0	0	3.5218636730E+01	1.7989872343E+02	6.8918211549E+02	7.8370969841E+02	3.2500000000E+02	0.000E+00	0.0
	-14	1	6	6	0	0	4.4182252731E+01	-1.5613378746E+02	1.0037529857E+02	3.7686871932E+02	3.2500000000E+02	0.000E+00	0.0
	25	2	5	5	0	0	-7.9400889462E+01	-2.3764935970E+01	5.4354351694E+00	1.5023545639E+02	1.2518735948E+02	0.000E+00	0.0
	-5	1	9	9	0	501	-5.5459503868E+01	-1.8859183340E+01	-5.7746831491E+01	8.2362578352E+01	4.1800000000E+00	0.000E+00	0.0
	5	1	9	9	501	0	-2.3941385593E+01	-4.9057526307E+00	6.3182266661E+01	6.7872878039E+01	4.1800000000E+00	0.000E+00	0.0
</event>
<event>
    11  -1  1.0000000E+00  1.0000000E+00  -1.0000000E+00  -1.0000000E+00
	2212	-1	0	0	0	0	0.0000000000E+00	0.0000000000E+00	6.5000000000E+03	6.5000000000E+03	9.3827000000E-01	0.000E+00	0.0
	2212	-1	0	0	0	0	0.0000000000E+00	0.0000000000E+00	-6.5000000000E+03	6.5000000000E+03	9.3827000000E-01	0.000E+00	0.0
	2212	1	0	0	0	0	0.0000000000E+00	0.0000000000E+00	6.0197867136E+03	6.0197867136E+03	9.3827000000E-01	0.000E+00	0.0
	2212	1	0	0	0	0	0.0000000000E+00	0.0000000000E+00	-5.9326381239E+03	5.9326381239E+03	9.3827000000E-01	0.000E+00	0.0
	51	2	1	2	0	0	-9.3743541898E+01	-7.5510365767E+01	-1.6975937267E+02	1.0644842676E+03	1.0439438895E+03	0.000E+00	0.0
	1000022	2	5	5	0	0	9.3743541898E+01	7.5510365767E+01	1.0637648370E+01	8.4824853292E+02	8.3959677646E+02	0.000E+00	0.0
	14	1	6	6	0	0	-1.0512675406E+01	-1.9778809034E+02	-1.0718427545E+02	3.9540373535E+02	3.2500000000E+02	0.000E+00	0.0
	-14	1	6	6	0	0	1.0425621730E+02	2.7329845610E+02	1.1782192382E+02	4.5284479757E+02	3.2500000000E+02	0.000E+00	0.0
	25	2	5	5	0	0	-9.3743541898E+01	-7.5510365767E+01	-9.7786238151E+01	1.9932662957E+02	1.2521697129E+02	0.000E+00	0.0
	-5	1	9	9	0	501	-7.6233082106E+01	-8.2515995649E+01	-1.3934487451E+01	1.1327848289E+02	4.1800000000E+00	0.000E+00	0.0
	5	1	9	9	501	0	-1.7510459792E+01	7.0056298825E+00	-8.3851750700E+01	8.6048146683E+01	4.1800000000E+00	0.000E+00	0.0
</event>
<event>
    11  -1  1.0000000E+00  1.0000000E+00  -1.0000000E+00  -1.0000000E+00
	2212	-1	0	0	0	0	0.0000000000E+00	0.0000000000E+00	6.5000000000E+03	6.5000000000E+03	9.3827000000E-01	0.000E+00	0.0
	2212	-1	0	0	0	0	0.0000000000E+00	0.0000000000E+00	-6.5000000000E+03	6.5000000000E+03	9.3827000000E-01	0.000E+00	0.0
	2212	1	0	0	0	0	0.0000000000E+00	0.0000000000E+00	6.1379295406E+03	6.1379295406E+03	9.3827000000E-01	0.000E+00	0.0
	2212	1	0	0	0	0	0.0000000000E+00	0.0000000000E+00	-5.7178062759E+03	5.7178062759E+03	9.3827000000E-01	0.000E+00	0.0
	51	2	1	2	0	0	-1.3954729732E+02	-9.7116048045E+01	-3.5665926707E+02	1.1353183570E+03	1.0643481404E+03	0.000E+00	0.0
	1000022	2	5	5	0	0	1.3954729732E+02	9.7116048045E+01	-4.0251677008E+02	9.3240324117E+02	8.2368141838E+02	0.000E+00	0.0
	14	1	6	6	0	0	-1.6182164483E+02	1.5035724146E+02	-1.5916846274E+02	4.2397304670E+02	3.2500000000E+02	0.000E+00	0.0
	-14	1	6	6	0	0	3.0136894215E+02	-5.3241193417E+01	-2.4334830734E+02	5.0843019448E+02	3.2500000000E+02	0.000E+00	0.0
	25	2	5	5	0	0	-1.3954729732E+02	-9.7116048045E+01	-1.7606494582E+01	2.1186094228E+02	1.2518025098E+02	0.000E+00	0.0
	-5	1	9	9	0	501	-7.3797945921E+01	-8.2756320127E+01	-6.5778547074E+01	1.2899238349E+02	4.1800000000E+00	0.000E+00	0.0
	5	1	9	9	501	0	-6.5749351397E+01	-1.4359727918E+01	4.8172052492E+01	8.2868558792E+01	4.1800000000E+00	0.000E+00	0.0
</event>
<event>
    11  -1  1.0000000E+00  1.0000000E+00  -1.0000000E+00  -1.0000000E+00
	2212	-1	0	0	0	0	0.0000000000E+00	0.0000000000E+00	6.5000000000E+03	6.5000000000E+03	9.3827000000E-01	0.000E+00	0.0
	2212	-1	0	0	0	0	0.0000000000E+00	0.0000000000E+00	-6.5000000000E+03	6.5000000000E+03	9.3827000000E-01	0.000E+00	0.0
	2212	1	0	0	0	0	0.0000000000E+00	0.0000000000E+00	5.0249565888E+03	5.0249565888E+03	9.3827000000E-01	0.000E+00	0.0
	2212	1	0	0	0	0	0.0000000000E+00	0.0000000000E+00	-6.3160230356E+03	6.3160230356E+03	9.3827000000E-01	0.000E+00	0.0
	51	2	1	2	0	0	4.7643546306E+01	-7.1908811748E+01	1.1619153110E+03	1.5630048021E+03	1.0418714109E+03	0.000E+00	0.0
	1000022	2	5	5	0	0	-4.7643546306E+01	7.1908811748E+01	1.2122288663E+03	1.4877704502E+03	8.5820819344E+02	0.000E+00	0.0
	14	1	6	6	0	0	2.0642399242E+02	3.9662628649E+01	3.1251794149E+02	4.9747005187E+02	3.2500000000E+02	0.000E+00	0.0
	-14	1	6	6	0	0	-2.5406753873E+02	3.2246183099E+01	8.9971092485E+02	9.9030039829E+02	3.2500000000E+02	0.000E+00	0.0
	25	2	5	5	0	0	4.7643546306E+01	-7.1908811748E+01	7.8837580470E+01	1.7124992549E+02	1.2518142104E+02	0.000E+00	0.0
	-5	1	9	9	0	501	1.6423387759E+00	3.4751774225E+01	2.5652001845E+01	4.3426727797E+01	4.1800000000E+00	0.000E+00	0.0
	5	1	9	9	501	0	4.6001207530E+01	-1.0666058597E+02	5.3185578625E+01	1.2782319769E+02	4.1800000000E+00	0.000E+00	0.0
</event>
<event>
    11  -1  1.0000000E+00  1.0000000E+00  -1.0000000E+00  -1.0000000E+00
	2212	-1	0	0	0	0	0.0000000000E+00	0.0000000000E+00	6.5000000000E+03	6.5000000000E+03	9.3827000000E-01	0.000E+00	0.0
	2212	-1	0	0	0	0	0.0000000000E+00	0.0000000000E+00	-6.5000000000E+03	6.5000000000E+03	9.3827000000E-01	0.000E+00	0.0
	2212	1	0	0	0	0	0.0000000000E+00	0.0000000000E+00	5.7174531219E+03	5.7174531219E+03	9.3827000000E-01	0.000E+00	0.0
	2212	1	0	0	0	0	0.0000000000E+00	0.0000000000E+00	-6.1466257868E+03	6.1466257868E+03	9.3827000000E-01	0.000E+00	0.0
	51	2	1	2	0	0	-9.8920296999E+01	-1.5182146571E+02	4.4674888967E+02	1.1569559639E+03	1.0517259859E+03	0.000E+00	0.0
	1000022	2	5	5	0	0	9.8920296999E+01	1.5182146571E+02	3.2797416360E+02	8.9355733329E+02	8.1119829468E+02	0.000E+00	0.0
	14	1	6	6	0	0	-1.2883101037E+02	2.3503325944E+02	1.2097533248E+02	4.3828996492E+02	3.2500000000E+02	0.000E+00	0.0
	-14	1	6	6	0	0	2.2775130737E+02	-8.3211793736E+01	2.0699883112E+02	4.5526736838E+02	3.2500000000E+02	0.000E+00	0.0
	25	2	5	5	0	0	-9.8920296999E+01	-1.5182146571E+02	1.0119850128E+02	2.4236375804E+02	1.2515619018E+02	0.000E+00	0.0
	-5	1	9	9	0	501	2.1914445533E+01	-6.3197638010E+01	5.1191593597E+01	8.4334073944E+01	4.1800000000E+00	0.000E+00	0.0
	5	1	9	9	501	0	-1.2083474253E+02	-8.8623827697E+01	5.0006907686E+01	1.5802968409E+02	4.1800000000E+00	0.000E+00	0.0
</event>
<event>
    11  -1  1.0000000E+00  1.0000000E+00  -1.0000000E+00  -1.0000000E+00
	2212	-1	0	0	0	0	0.0000000000E+00	0.0000000000E+00	6.5000000000E+03	6.5000000000E+03	9.3827000000E-01	0.000E+00	0.0
	2212	-1	0	0	0	0	0.0000000000E+00	0.0000000000E+00	-6.5000000000E+03	6.5000000000E+03	9.3827000000E-01	0.000E+00	0.0
	2212	1	0	0	0	0	0.0000000000E+00	0.0000000000E+00	5.9791732167E+03	5.9791732167E+03	9.3827000000E-01	0.000E+00	0.0
	2212	1	0	0	0	0	0.0000000000E+00	0.0000000000E+00	-5.9718225391E+03	5.9718225391E+03	9.3827000000E-01	0.000E+00	0.0
	51	2	1	2	0	0	-1.0824670567E+02	-8.8805361745E+01	3.7615772204E+01	1.0589497437E+03	1.0489784897E+03	0.000E+00	0.0
	1000022	2	5	5	0	0	1.0824670567E+02	8.8805361745E+01	-5.1035645966E+01	8.5618043228E+02	8.4311123459E+02	0.000E+00	0.0
	14	1	6	6	0	0	-1.3342858743E+02	2.3110853811E+02	2.0301665280E+01	4.2101247243E+02	3.2500000000E+02	0.000E+00	0.0
	-14	1	6	6	0	0	2.4167529310E+02	-1.4230317636E+02	-7.1337311246E+01	4.3516795985E+02	3.2500000000E+02	0.000E+00	0.0
	25	2	5	5	0	0	-1.0824670567E+02	-8.8805361745E+01	4.3684968342E+01	1.9282381190E+02	1.2517549446E+02	0.000E+00	0.0
	-5	1	9	9	0	501	-3.8645256059E+01	3.7209317035E+00	-3.5271697054E+01	5.2620016740E+01	4.1800000000E+00	0.000E+00	0.0
	5	1	9	9	501	0	-6.9601449612E+01	-9.2526293449E+01	7.8956665396E+01	1.4020379516E+02	4.1800000000E+00	0.000E+00	0.0
</event>
<event>
    11  -1  1.0000000E+00  1.0000000E+00  -1.0000000E+00  -1.0000000E+00
	2212	-1	0	0	0	0	0.0000000000E+00	0.0000000000E+00	6.5000000000E+03	6.5000000000E+03	9.3827000000E-01	0.000E+00	0.0
	2212	-1	0	0	0	0	0.0000000000E+00	0.0000000000E+00	-6.5000000000E+03	6.5000000000E+03	9.3827000000E-01	0.000E+00	0.0
	2212	1	0	0	0	0	0.0000000000E+00	0.0000000000E+00	5.2114225649E+03	5.2114225649E+03	9.3827000000E-01	0.000E+00	0.0
	2212	1	0	0	0	0	0.0000000000E+00	0.0000000000E+00	-6.2773412934E+03	6.2773412934E+03	9.3827000000E-01	0.000E+00	0.0
	51	2	1	2	0	0	-1.7018787358E+01	4.9519169682E+01	1.2870368868E+03	1.6753679224E+03	1.0712851815E+03	0.000E+00	0.0
	1000022	2	5	5	0	0	1.7018787358E+01	-4.9519169682E+01	6.5603231661E+02	1.0794728806E+03	8.5565268206E+02	0.000E+00	0.0
	14	1	6	6	0	0	2.7314854771E+02	-1.0665065267E+02	3.7059960034E+02	5.7354472764E+02	3.2500000000E+02	0.000E+00	0.0
	-14	1	6	6	0	0	-2.5612976035E+02	5.7131482990E+01	2.8543271627E+02	5.0592815301E+02	3.2500000000E+02	0.000E+00	0.0
	25	2	5	5	0	0	-1.7018787358E+01	4.9519169682E+01	4.0988641186E+02	4.3176326100E+02	1.2518328814E+02	0.000E+00	0.0
	-5	1	9	9	0	501	3.1405105713E+01	-2.3352191791E+01	2.0803823117E+02	2.1172856103E+02	4.1800000000E+00	0.000E+00	0.0
	5	1	9	9	501	0	-4.8423893071E+01	7.2871361474E+01	2.0184818069E+02	2.2003469997E+02	4.1800000000E+00	0.000E+00	0.0
</event>
<event>
    11  -1  1.0000000E+00  1.0000000E+00  -1.0000000E+00  -1.0000000E+00
	2212	-1	0	0	0	0	0.0000000000E+00	0.0000000000E+00	6.5000000000E+03	6.5000000000E+03	9.3827000000E-01	0.000E+00	0.0
	2212	-1	0	0	0	0	0.0000000000E+00	0.0000000000E+00	-6.5000000000E+03	6.5000000000E+03	9.3827000000E-01	0.000E+00	0.0
	2212	1	0	0	0	0	0.0000000000E+00	0.0000000000E+00	6.3151446494E+03	6.3151446494E+03	9.3827000000E-01	0.000E+00	0.0
	2212	1	0	0	0	0	0.0000000000E+00	0.0000000000E+00	-5.0179333839E+03	5.0179333839E+03	9.3827000000E-01	0.000E+00	0.0
	51	2	1	2	0	0	-1.2772850401E+02	1.2110918917E+01	-1.3888866324E+03	1.7439435480E+03	1.0468389446E+03	0.000E+00	0.0
	1000022	2	5	5	0	0	1.2772850401E+02	-1.2110918917E+01	-9.8595718904E+02	1.3077408144E+03	8.4947820095E+02	0.000E+00	0.0
	14	1	6	6	0	0	2.4635304274E+02	-1.3714802982E+01	-8.3678962669E+02	9.3097787129E+02	3.2500000000E+02	0.000E+00	0.0
	-14	1	6	6	0	0	-1.1862453873E+02	1.6038840644E+00	-1.4916756234E+02	3.7676294309E+02	3.2500000000E+02	0.000E+00	0.0
	25	2	5	5	0	0	-1.2772850401E+02	1.2110918917E+01	-3.1125407639E+02	3.5918115233E+02	1.2518288631E+02	0.000E+00	0.0
	-5	1	9	9	0	501	9.4528634118E-02	3.4974821121E+01	-1.3918749291E+02	1.4357533782E+02	4.1800000000E+00	0.000E+00	0.0
	5	1	9	9	501	0	-1.2782303265E+02	-2.2863902204E+01	-1.7206658348E+02	2.1560581451E+02	4.1800000000E+00	0.000E+00	0.0
</event>
<event>
    11  -1  1.0000000E+00  1.0000000E+00  -1.0000000E+00  -1.0000000E+00
	2212	-1	0	0	0	0	0.0000000000E+00	0.0000000000E+00	6.5000000000E+03	6.5000000000E+03	9.3827000000E-01	0.000E+00	0.0
	2212	-1	0	0	0	0	0.0000000000E+00	0.0000000000E+00	-6.5000000000E+03	6.5000000000E+03	9.3827000000E-01	0.000E+00	0.0
	2212	1	0	0	0	0	0.0000000000E+00	0.0000000000E+00	5.9590079533E+03	5.9590079533E+03	9.3827000000E-01	0.000E+00	0.0
	2212	1	0	0	0	0	0.0000000000E+00	0.0000000000E+00	-5.9783761650E+03	5.9783761650E+03	9.3827000000E-01	0.000E+00	0.0
	51	2	1	2	0	0	1.2070423368E+02	4.3886683484E+01	6.1068388642E+01	1.0719152418E+03	1.0624393557E+03	0.000E+00	0.0
	1000022	2	5	5	0	0	-1.2070423368E+02	-4.3886683484E+01	-2.5532280144E+01	8.7773471942E+02	8.6791173937E+02	0.000E+00	0.0
	14	1	6	6	0	0	9.8708202130E+01	-1.7168010021E+02	1.7529162510E+02	4.1901016671E+02	3.2500000000E+02	0.000E+00	0.0
	-14	1	6	6	0	0	-2.1941243581E+02	1.2779341673E+02	-2.0082390524E+02	4.5872455271E+02	3.2500000000E+02	0.000E+00	0.0
	25	2	5	5	0	0	1.2070423368E+02	4.3886683484E+01	4.4900491883E+01	1.8488116230E+02	1.2517762175E+02	0.000E+00	0.0
	-5	1	9	9	0	501	1.2637722219E+02	-3.0039689655E+00	5.2340237007E+01	1.3688388849E+02	4.1800000000E+00	0.000E+00	0.0
	5	1	9	9	501	0	-5.6729885133E+00	4.6890652450E+01	-7.4397451240E+00	4.7997273812E+01	4.1800000000E+00	0.000E+00	0.0
</event>
<event>
    11  -1  1.0000000E+00  1.0000000E+00  -1.0000000E+00  -1.0000000E+00
	2212	-1	0	0	0	0	0.0000000000E+00	0.0000000000E+00	6.5000000000E+03	6.5000000000E+03	9.3827000000E-01	0.000E+00	0.0
	2212	-1	0	0	0	0	0.0000000000E+00	0.0000000000E+00	-6.5000000000E+03	6.5000000000E+03	9.3827000000E-01	0.000E+00	0.0
	2212	1	0	0	0	0	0.0000000000E+00	0.0000000000E+00	6.3217848959E+03	6.3217848959E+03	9.3827000000E-01	0.000E+00	0.0
	2212	1	0	0	0	0	0.0000000000E+00	0.0000000000E+00	-4.9499736843E+03	4.9499736843E+03	9.3827000000E-01	0.000E+00	0.0
	51	2	1	2	0	0	6.8732507185E+01	-6.3277045857E+01	-1.5431406941E+03	1.8694822142E+03	1.0511671633E+03	0.000E+00	0.0
	1000022	2	5	5	0	0	-6.8732507185E+01	6.3277045857E+01	-9.7161737536E+02	1.2986716979E+03	8.5660942842E+02	0.000E+00	0.0
	14	1	6	6	0	0	-1.6596462110E+02	3.0136607329E+01	-8.6855271806E+02	9.4258224819E+02	3.2500000000E+02	0.000E+00	0.0
	-14	1	6	6	0	0	9.7232113918E+01	3.3140438528E+01	-1.0306465731E+02	3.5608944976E+02	3.2500000000E+02	0.000E+00	0.0
	25	2	5	5	0	0	6.8732507185E+01	-6.3277045857E+01	-4.0019383621E+02	4.2956972191E+02	1.2508755878E+02	0.000E+00	0.0
	-5	1	9	9	0	501	1.3690875077E+01	5.5226346102E+00	4.0058560396E+00	1.5857453642E+01	4.1800000000E+00	0.000E+00	0.0
	5	1	9	9	501	0	5.5041632109E+01	-6.8799680467E+01	-4.0419969225E+02	4.1371226826E+02	4.1800000000E+00	0.000E+00	0.0
</event>
<event>
    11  -1  1.0000000E+00  1.0000000E+00  -1.0000000E+00  -1.0000000E+00
	2212	-1	0	0	0	0	0.0000000000E+00	0.0000000000E+00	6.5000000000E+03	6.5000000000E+03	9.3827000000E-01	0.000E+00	0.0
	2212	-1	0	0	0	0	0.0000000000E+00	0.0000000000E+00	-6.5000000000E+03	6.5000000000E+03	9.3827000000E-01	0.000E+00	0.0
	2212	1	0	0	0	0	0.0000000000E+00	0.0000000000E+00	6.0811834661E+03	6.0811834661E+03	9.3827000000E-01	0.000E+00	0.0
	2212	1	0	0	0	0	0.0000000000E+00	0.0000000000E+00	-5.8366090870E+03	5.8366090870E+03	9.3827000000E-01	0.000E+00	0.0
	51	2	1	2	0	0	8.0435294618E+01	1.1694703557E+02	-2.3060233299E+02	1.0884301599E+03	1.0542088651E+03	0.000E+00	0.0
	1000022	2	5	5	0	0	-8.0435294618E+01	-1.1694703557E+02	-2.1671983719E+02	8.9090792687E+02	8.5241011290E+02	0.000E+00	0.0
	14	1	6	6	0	0	-1.5871110168E+02	-2.0860065534E+02	-3.2351905429E+02	5.2819790391E+02	3.2500000000E+02	0.000E+00	0.0
	-14	1	6	6	0	0	7.8275807059E+01	9.1653619769E+01	1.0679921709E+02	3.6271002296E+02	3.2500000000E+02	0.000E+00	0.0
	25	2	5	5	0	0	8.0435294618E+01	1.1694703557E+02	-2.7854541983E+01	1.9129952005E+02	1.2519259209E+02	0.000E+00	0.0
	-5	1	9	9	0	501	8.3885611359E+01	1.3962972107E+02	-1.2595921124E+01	1.6343005975E+02	4.1800000000E+00	0.000E+00	0.0
	5	1	9	9	501	0	-3.4503167402E+00	-2.2682685501E+01	-1.5258620859E+01	2.7869460305E+01	4.1800000000E+00	0.000E+00	0.0
</event>
<event>
    11  -1  1.0000000E+00  1.0000000E+00  -1.0000000E+00  -1.0000000E+00
	2212	-1	0	0	0	0	0.0000000000E+00	0.0000000000E+00	6.5000000000E+03	6.5000000000E+03	9.3827000000E-01	0.000E+00	0.0
	2212	-1	0	0	0	0	0.0000000000E+00	0.0000000000E+00	-6.5000000000E+03	6.5000000000E+03	9.3827000000E-01	0.000E+00	0.0
	2212	1	0	0	0	0	0.0000000000E+00	0.0000000000E+00	5.9322493030E+03	5.9322493030E+03	9.3827000000E-01	0.000E+00	0.0
	2212	1	0	0	0	0	0.0000000000E+00	0.0000000000E+00	-6.0153956618E+03	6.0153956618E+03	9.3827000000E-01	0.000E+00	0.0
	51	2	1	2	0	0	1.1269772384E+02	3.7446840702E+01	1.7171381551E+01	1.0559051578E+03	1.0490652044E+03	0.000E+00	0.0
	1000022	2	5	5	0	0	-1.1269772384E+02	-3.7446840702E+01	1.3516283373E+02	8.7213692024E+02	8.5337610301E+02	0.000E+00	0.0
	14	1	6	6	0	0	4.3098596734E+00	-2.2699648257E+02	-1.0575077397E+02	4.1030988800E+02	3.2500000000E+02	0.000E+00	0.0
	-14	1	6	6	0	0	-1.1700758351E+02	1.8954964187E+02	2.4091360770E+02	4.6182703224E+02	3.2500000000E+02	0.000E+00	0.0
	25	2	5	5	0	0	1.1269772384E+02	3.7446840702E+01	-5.2016474891E+01	1.8021811490E+02	1.2517912143E+02	0.000E+00	0.0
	-5	1	9	9	0	501	5.0900249510E+01	-4.1018463340E+01	4.0017095029E+00	6.5626487136E+01	4.1800000000E+00	0.000E+00	0.0
	5	1	9	9	501	0	6.1797474329E+01	7.8465304042E+01	-5.6018184393E+01	1.1459162777E+02	4.1800000000E+00	0.000E+00	0.0
</event>
<event>
    11  -1  1.0000000E+00  1.0000000E+00  -1.0000000E+00  -1.0000000E+00
	2212	-1	0	0	0	0	0.0000000000E+00	0.0000000000E+00	6.5000000000E+03	6.5000000000E+03	9.3827000000E-01	0.000E+00	0.0
	2212	-1	0	0	0	0	0.0000000000E+00	0.0000000000E+00	-6.5000000000E+03	6.5000000000E+03	9.3827000000E-01	0.000E+00	0.0
	2212	1	0	0	0	0	0.0000000000E+00	0.0000000000E+00	5.7585336800E+03	5.7585336800E+03	9.3827000000E-01	0.000E+00	0.0
	2212	1	0	0	0	0	0.0000000000E+00	0.0000000000E+00	-6.1422228330E+03	6.1422228330E+03	9.3827000000E-01	0.000E+00	0.0
	51	2	1	2	0	0	1.3224148547E+02	-5.4874096801E+01	4.9536931689E+02	1.1519585993E+03	1.0301062457E+03	0.000E+00	0.0
	1000022	2	5	5	0	0	-1.3224148547E+02	5.4874096801E+01	1.9751305195E+02	8.3310255030E+02	7.9658613888E+02	0.000E+00	0.0
	14	1	6	6	0	0	2.2372542097E+00	2.3148801831E+02	1.8372466775E+02	4.3928517101E+02	3.2500000000E+02	0.000E+00	0.0
	-14	1	6	6	0	0	-1.3447873967E+02	-1.7661392151E+02	1.3788384201E+01	3.9381737929E+02	3.2500000000E+02	0.000E+00	0.0
	25	2	5	5	0	0	1.3224148547E+02	-5.4874096801E+01	1.8617610106E+02	2.6614093665E+02	1.2518179012E+02	0.000E+00	0.0
	-5	1	9	9	0	501	1.3017572518E+02	-6.3797083746E+01	2.0122076275E+02	2.4803841453E+02	4.1800000000E+00	0.000E+00	0.0
	5	1	9	9	501	0	2.0657602841E+00	8.9229869443E+00	-1.5044661695E+01	1.8102522119E+01	4.1800000000E+00	0.000E+00	0.0
</event>
<event>
    11  -1  1.0000000E+00  1.0000000E+00  -1.0000000E+00  -1.0000000E+00
	2212	-1	0	0	0	0	0.0000000000E+00	0.0000000000E+00	6.5000000000E+03	6.5000000000E+03	9.3827000000E-01	0.000E+00	0.0
	2212	-1	0	0	0	0	0.0000000000E+00	0.0000000000E+00	-6.5000000000E+03	6.5000000000E+03	9.3827000000E-01	0.000E+00	0.0
	2212	1	0	0	0	0	0.0000000000E+00	0.0000000000E+00	5.0874652585E+03	5.0874652585E+03	9.3827000000E-01	0.000E+00	0.0
	2212	1	0	0	0	0	0.0000000000E+00	0.0000000000E+00	-6.2206063223E+03	6.2206063223E+03	9.3827000000E-01	0.000E+00	0.0
	51	2	1	2	0	0	1.5255779892E+02	-2.4291898010E+02	9.7749522776E+02	1.6175269822E+03	1.2564287107E+03	0.000E+00	0.0
	1000022	2	5	5	0	0	-1.5255779892E+02	2.4291898010E+02	1.0148856006E+03	1.3573592458E+03	8.5448687938E+02	0.000E+00	0.0
	14	1	6	6	0	0	1.9297216541E+02	1.8997025953E+02	5.0911092710E+02	6.6192589632E+02	3.2500000000E+02	0.000E+00	0.0
	-14	1	6	6	0	0	-3.4552996433E+02	5.2948720567E+01	5.0577467348E+02	6.9543334950E+02	3.2500000000E+02	0.000E+00	0.0
	25	2	5	5	0	0	1.5255779892E+02	-2.4291898010E+02	1.1825546327E+02	3.3456917334E+02	1.2517453516E+02	0.000E+00	0.0
	-5	1	9	9	0	501	-1.6859263888E+01	-6.2546498676E+01	3.2852241305E+01	7.2753291570E+01	4.1800000000E+00	0.000E+00	0.0
	5	1	9	9	501	0	1.6941706281E+02	-1.8037248143E+02	8.5403221961E+01	2.6181588177E+02	4.1800000000E+00	0.000E+00	0.0
</event>
<event>
    11  -1  1.0000000E+00  1.0000000E+00  -1.0000000E+00  -1.0000000E+00
	2212	-1	0	0	0	0	0.0000000000E+00	0.0000000000E+00	6.5000000000E+03	6.5000000000E+03	9.3827000000E-01	0.000E+00	0.0
	2212	-1	0	0	0	0	0.0000000000E+00	0.0000000000E+00	-6.5000000000E+03	6.5000000000E+03	9.3827000000E-01	0.000E+00	0.0
	2212	1	0	0	0	0	0.0000000000E+00	0.0000000000E+00	5.9626450177E+03	5.9626450177E+03	9.3827000000E-01	0.000E+00	0.0
	2212	1	0	0	0	0	0.0000000000E+00	0.0000000000E+00	-5.9868237853E+03	5.9868237853E+03	9.3827000000E-01	0.000E+00	0.0
	51	2	1	2	0	0	1.0404565409E+02	7.8922087894E+01	5.4658668898E+01	1.0597513611E+03	1.0502529139E+03	0.000E+00	0.0
	1000022	2	5	5	0	0	-1.0404565409E+02	-7.8922087894E+01	-1.0327524452E+01	8.6637039401E+02	8.5640925250E+02	0.000E+00	0.0
	14	1	6	6	0	0	-3.5460051211E+01	2.3655601673E+02	-4.9684927595E+01	4.0658302511E+02	3.2500000000E+02	0.000E+00	0.0
	-14	1	6	6	0	0	-6.8585602880E+01	-3.1547810462E+02	3.9357403143E+01	4.5978736890E+02	3.2500000000E+02	0.000E+00	0.0
	25	2	5	5	0	0	1.0404565409E+02	7.8922087894E+01	3.4506292028E+01	1.8416080300E+02	1.2518116104E+02	0.000E+00	0.0
	-5	1	9	9	0	501	2.9461119039E+01	1.6349343816E+01	-4.6407341241E+01	5.7501063463E+01	4.1800000000E+00	0.000E+00	0.0
	5	1	9	9	501	0	7.4584535051E+01	6.2572744078E+01	8.0913633270E+01	1.2665973954E+02	4.1800000000E+00	0.000E+00	0.0
</event>
<event>
    11  -1  1.0000000E+00  1.0000000E+00  -1.0000000E+00  -1.0000000E+00
	2212	-1	0	0	0	0	0.0000000000E+00	0.0000000000E+00	6.5000000000E+03	6.5000000000E+03	9.3827000000E-01	0.000E+00	0.0
	2212	-1	0	0	0	0	0.0000000000E+00	0.0000000000E+00	-6.5000000000E+03	6.5000000000E+03	9.3827000000E-01	0.000E+00	0.0
	2212	1	0	0	0	0	0.0000000000E+00	0.0000000000E+00	5.6437499801E+03	5.6437499801E+03	9.3827000000E-01	0.000E+00	0.0
	2212	1	0	0	0	0	0.0000000000E+00	0.0000000000E+00	-6.1791465695E+03	6.1791465695E+03	9.3827000000E-01	0.000E+00	0.0
	51	2	1	2	0	0	4.8427096377E+01	-3.7188701377E+01	6.7141860153E+02	1.2463764065E+03	1.0482952948E+03	0.000E+00	0.0
	1000022	2	5	5	0	0	-4.8427096377E+01	3.7188701377E+01	3.1060165009E+02	9.1265756832E+02	8.5600366168E+02	0.000E+00	0.0
	14	1	6	6	0	0	-5.5188240353E+01	-2.2728237769E+02	1.6613073229E+01	4.0075430788E+02	3.2500000000E+02	0.000E+00	0.0
	-14	1	6	6	0	0	6.7611439756E+00	2.6447107907E+02	2.9398857686E+02	5.1190326044E+02	3.2500000000E+02	0.000E+00	0.0
	25	2	5	5	0	0	4.8427096377E+01	-3.7188701377E+01	2.2479493934E+02	2.6444588214E+02	1.2518257328E+02	0.000E+00	0.0
	-5	1	9	9	0	501	6.8987606605E+01	-6.0939143299E+01	1.0124938940E+02	1.3690062201E+02	4.1800000000E+00	0.000E+00	0.0
	5	1	9	9	501	0	-2.0560510228E+01	2.3750441922E+01	1.2354554994E+02	1.2754526013E+02	4.1800000000E+00	0.000E+00	0.0
</event>
<event>
    11  -1  1.0000000E+00  1.0000000E+00  -1.0000000E+00  -1.0000000E+00
	2212	-1	0	0	0	0	0.0000000000E+00	0.0000000000E+00	6.5000000000E+03	6.5000000000E+03	9.3827000000E-01	0.000E+00	0.0
	2212	-1	0	0	0	0	0.0000000000E+00	0.0000000000E+00	-6.5000000000E+03	6.5000000000E+03	9.3827000000E-01	0.000E+00	0.0
	2212	1	0	0	0	0	0.0000000000E+00	0.0000000000E+00	5.8870951566E+03	5.8870951566E+03	9.3827000000E-01	0.000E+00	0.0
	2212	1	0	0	0	0	0.0000000000E+00	0.0000000000E+00	-5.8156817208E+03	5.8156817208E+03	9.3827000000E-01	0.000E+00	0.0
	51	2	1	2	0	0	3.6653057870E+02	3.3096570377E+01	-1.6376086832E+02	1.3564459522E+03	1.2952559404E+03	0.000E+00	0.0
	1000022	2	5	5	0	0	-3.6653057870E+02	-3.3096570377E+01	3.9934216307E+01	8.9286182187E+02	8.1250688812E+02	0.000E+00	0.0
	14	1	6	6	0	0	-4.1209095935E+01	2.5796992523E+01	2.2006270223E+02	3.9549496498E+02	3.2500000000E+02	0.000E+00	0.0
	-14	1	6	6	0	0	-3.2532148276E+02	-5.8893562900E+01	-1.8012848592E+02	4.9736685690E+02	3.2500000000E+02	0.000E+00	0.0
	25	2	5	5	0	0	3.6653057870E+02	3.3096570377E+01	-1.1134765205E+02	4.0436130074E+02	1.2517872754E+02	0.000E+00	0.0
	-5	1	9	9	0	501	2.9817883532E+00	1.4171523792E+01	1.2734160468E+01	1.9732065052E+01	4.1800000000E+00	0.000E+00	0.0
	5	1	9	9	501	0	3.6354879035E+02	1.8925046585E+01	-1.2408181252E+02	3.8462923569E+02	4.1800000000E+00	0.000E+00	0.0
</event>
<event>
    11  -1  1.0000000E+00  1.0000000E+00  -1.0000000E+00  -1.0000000E+00
	2212	-1	0	0	0	0	0.0000000000E+00	0.0000000000E+00	6.5000000000E+03	6.5000000000E+03	9.3827000000E-01	0.000E+00	0.0
	2212	-1	0	0	0	0	0.0000000000E+00	0.0000000000E+00	-6.5000000000E+03	6.5000000000E+03	9.3827000000E-01	0.000E+00	0.0
	2212	1	0	0	0	0	0.0000000000E+00	0.0000000000E+00	5.6360333064E+03	5.6360333064E+03	9.3827000000E-01	0.000E+00	0.0
	2212	1	0	0	0	0	0.0000000000E+00	0.0000000000E+00	-6.1838524582E+03	6.1838524582E+03	9.3827000000E-01	0.000E+00	0.0
	51	2	1	2	0	0	6.6355427995E+01	8.2372565370E+01	4.4343410578E+02	1.1403446295E+03	1.0452577603E+03	0.000E+00	0.0
	1000022	2	5	5	0	0	-6.6355427995E+01	-8.2372565370E+01	5.5753107336E+02	1.0159386132E+03	8.4267555190E+02	0.000E+00	0.0
	14	1	6	6	0	0	3.7563736111E+01	2.1509794236E+02	3.1412780445E+02	5.0197553387E+02	3.2500000000E+02	0.000E+00	0.0
	-14	1	6	6	0	0	-1.0391916411E+02	-2.9747050773E+02	2.4340326891E+02	5.1396307937E+02	3.2500000000E+02	0.000E+00	0.0
	25	2	5	5	0	0	6.6355427995E+01	8.2372565370E+01	-9.7119215812E+00	1.6417562214E+02	1.2518398913E+02	0.000E+00	0.0
	-5	1	9	9	0	501	-1.3657244746E+01	-1.6562724044E+01	2.4008095043E+01	3.2476224987E+01	4.1800000000E+00	0.000E+00	0.0
	5	1	9	9	501	0	8.0012672741E+01	9.8935289414E+01	-3.3720016624E+01	1.3169939716E+02	4.1800000000E+00	0.000E+00	0.0
</event>
<event>
    11  -1  1.0000000E+00  1.0000000E+00  -1.0000000E+00  -1.0000000E+00
	2212	-1	0	0	0	0	0.0000000000E+00	0.0000000000E+00	6.5000000000E+03	6.5000000000E+03	9.3827000000E-01	0.000E+00	0.0
	2212	-1	0	0	0	0	0.0000000000E+00	0.0000000000E+00	-6.5000000000E+03	6.5000000000E+03	9.3827000000E-01	0.000E+00	0.0
	2212	1	0	0	0	0	0.0000000000E+00	0.0000000000E+00	6.2167982697E+03	6.2167982697E+03	9.3827000000E-01	0.000E+00	0.0
	2212	1	0	0	0	0	0.0000000000E+00	0.0000000000E+00	-5.5779826220E+03	5.5779826220E+03	9.3827000000E-01	0.000E+00	0.0
	51	2	1	2	0	0	-4.4850445584E+01	6.7907762165E+01	-5.7990533800E+02	1.1778713406E+03	1.0219920094E+03	0.000E+00	0.0
	1000022	2	5	5	0	0	4.4850445584E+01	-6.7907762165E+01	-6.0161043188E+02	1.0512308860E+03	8.5821223322E+02	0.000E+00	0.0
	14	1	6	6	0	0	1.0355289926E+02	-8.6792797100E+01	1.4136846405E+01	3.5225139176E+02	3.2500000000E+02	0.000E+00	0.0
	-14	1	6	6	0	0	-5.8702453677E+01	1.8885034936E+01	-6.1574727828E+02	6.9897949421E+02	3.2500000000E+02	0.000E+00	0.0
	25	2	5	5	0	0	-4.4850445584E+01	6.7907762165E+01	-3.7205215811E+01	1.5398822234E+02	1.2532006186E+02	0.000E+00	0.0
	-5	1	9	9	0	501	3.5627355486E+01	3.9796764234E+00	1.4457321201E+01	3.8879722475E+01	4.1800000000E+00	0.000E+00	0.0
	5	1	9	9	501	0	-8.0477801070E+01	6.3928085741E+01	-5.1662537013E+01	1.1510849987E+02	4.1800000000E+00	0.000E+00	0.0
</event>
<event>
    11  -1  1.0000000E+00  1.0000000E+00  -1.0000000E+00  -1.0000000E+00
	2212	-1	0	0	0	0	0.0000000000E+00	0.0000000000E+00	6.5000000000E+03	6.5000000000E+03	9.3827000000E-01	0.000E+00	0.0
	2212	-1	0	0	0	0	0.0000000000E+00	0.0000000000E+00	-6.5000000000E+03	6.5000000000E+03	9.3827000000E-01	0.000E+00	0.0
	2212	1	0	0	0	0	0.0000000000E+00	0.0000000000E+00	6.2949208876E+03	6.2949208876E+03	9.3827000000E-01	0.000E+00	0.0
	2212	1	0	0	0	0	0.0000000000E+00	0.0000000000E+00	-5.1429646800E+03	5.1429646800E+03	9.3827000000E-01	0.000E+00	0.0
	51	2	1	2	0	0	-3.8616573381E+01	-2.0985670525E+01	-1.3828098026E+03	1.7399117748E+03	1.0550821749E+03	0.000E+00	0.0
	1000022	2	5	5	0	0	3.8616573381E+01	2.0985670525E+01	-7.1657810652E+02	1.1069708849E+03	8.4259641534E+02	0.000E+00	0.0
	14	1	6	6	0	0	2.4253536318E+02	1.9136946728E+01	-1.7223720627E+02	4.4099918407E+02	3.2500000000E+02	0.000E+00	0.0
	-14	1	6	6	0	0	-2.0391878980E+02	1.8487237964E+00	-5.4434090025E+02	6.6597170082E+02	3.2500000000E+02	0.000E+00	0.0
	25	2	5	5	0	0	-3.8616573381E+01	-2.0985670525E+01	-4.3537810106E+02	4.5514354756E+02	1.2517955060E+02	0.000E+00	0.0
	-5	1	9	9	0	501	-7.3120308129E+01	-4.3963674135E+01	-2.2478976167E+02	2.4047306181E+02	4.1800000000E+00	0.000E+00	0.0
	5	1	9	9	501	0	3.4503734748E+01	2.2978003610E+01	-2.1058833939E+02	2.1467048574E+02	4.1800000000E+00	0.000E+00	0.0
</event>
<event>
    11  -1  1.0000000E+00  1.0000000E+00  -1.0000000E+00  -1.0000000E+00
	2212	-1	0	0	0	0	0.0000000000E+00	0.0000000000E+00	6.5000000000E+03	6.5000000000E+03	9.3827000000E-01	0.000E+00	0.0
	2212	-1	0	0	0	0	0.0000000000E+00	0.0000000000E+00	-6.5000000000E+03	6.5000000000E+03	9.3827000000E-01	0.000E+00	0.0
	2212	1	0	0	0	0	0.0000000000E+00	0.0000000000E+00	5.3355177545E+03	5.3355177545E+03	9.3827000000E-01	0.000E+00	0.0
	2212	1	0	0	0	0	0.0000000000E+00	0.0000000000E+00	-6.2701733214E+03	6.2701733214E+03	9.3827000000E-01	0.000E+00	0.0
	51	2	1	2	0	0	5.1688034064E+01	4.4025025824E+01	7.3933145309E+02	1.2734744601E+03	1.0346575990E+03	0.000E+00	0.0
	1000022	2	5	5	0	0	-5.1688034064E+01	-4.4025025824E+01	9.5275327394E+02	1.2507589782E+03	8.0749573667E+02	0.000E+00	0.0
	14	1	6	6	0	0	-1.1518727931E+02	-8.3369967928E+01	1.5695659064E+02	3.8791626959E+02	3.2500000000E+02	0.000E+00	0.0
	-14	1	6	6	0	0	6.3499245251E+01	3.9344942104E+01	7.9579668330E+02	8.6284270859E+02	3.2500000000E+02	0.000E+00	0.0
	25	2	5	5	0	0	5.1688034064E+01	4.4025025824E+01	-1.8097707010E+01	1.4354994595E+02	1.2517669200E+02	0.000E+00	0.0
	-5	1	9	9	0	501	4.3158942716E+01	-3.9102666748E+01	-2.5129952099E+00	5.8442282879E+01	4.1800000000E+00	0.000E+00	0.0
	5	1	9	9	501	0	8.5290913484E+00	8.3127692572E+01	-1.5584711800E+01	8.5107663071E+01	4.1800000000E+00	0.000E+00	0.0
</event>
<event>
    11  -1  1.0000000E+00  1.0000000E+00  -1.0000000E+00  -1.0000000E+00
	2212	-1	0	0	0	0	0.0000000000E+00	0.0000000000E+00	6.5000000000E+03	6.5000000000E+03	9.3827000000E-01	0.000E+00	0.0
	2212	-1	0	0	0	0	0.0000000000E+00	0.0000000000E+00	-6.5000000000E+03	6.5000000000E+03	9.3827000000E-01	0.000E+00	0.0
	2212	1	0	0	0	0	0.0000000000E+00	0.0000000000E+00	6.3104982008E+03	6.3104982008E+03	9.3827000000E-01	0.000E+00	0.0
	2212	1	0	0	0	0	0.0000000000E+00	0.0000000000E+00	-5.0442698491E+03	5.0442698491E+03	9.3827000000E-01	0.000E+00	0.0
	51	2	1	2	0	0	-3.6182260842E+01	3.6941885220E+00	-1.0754535786E+03	1.5037875958E+03	1.0504541545E+03	0.000E+00	0.0
	1000022	2	5	5	0	0	3.6182260842E+01	-3.6941885220E+00	-1.2466853152E+03	1.5134068109E+03	8.5723573014E+02	0.000E+00	0.0
	14	1	6	6	0	0	-2.0369654794E+02	-1.4936760056E+02	-7.6047136463E+02	8.6472230234E+02	3.2500000000E+02	0.000E+00	0.0
	-14	1	6	6	0	0	2.3987880878E+02	1.4567341204E+02	-4.8621395056E+02	6.4868450853E+02	3.2500000000E+02	0.000E+00	0.0
	25	2	5	5	0	0	-3.6182260842E+01	3.6941885220E+00	-1.9543036546E+01	1.3182513917E+02	1.2519238800E+02	0.000E+00	0.0
	-5	1	9	9	0	501	-7.8717258999E+01	-1.3170171485E+01	-2.8806621874E+01	8.4953835376E+01	4.1800000000E+00	0.000E+00	0.0
	5	1	9	9	501	0	4.2534998157E+01	1.6864360007E+01	9.2635853282E+00	4.6871303799E+01	4.1800000000E+00	0.000E+00	0.0
</event>
<event>
    11  -1  1.0000000E+00  1.0000000E+00  -1.0000000E+00  -1.0000000E+00
	2212	-1	0	0	0	0	0.0000000000E+00	0.0000000000E+00	6.5000000000E+03	6.5000000000E+03	9.3827000000E-01	0.000E+00	0.0
	2212	-1	0	0	0	0	0.0000000000E+00	0.0000000000E+00	-6.5000000000E+03	6.5000000000E+03	9.3827000000E-01	0.000E+00	0.0
	2212	1	0	0	0	0	0.0000000000E+00	0.0000000000E+00	5.7150139125E+03	5.7150139125E+03	9.3827000000E-01	0.000E+00	0.0
	2212	1	0	0	0	0	0.0000000000E+00	0.0000000000E+00	-6.1492498462E+03	6.1492498462E+03	9.3827000000E-01	0.000E+00	0.0
	51	2	1	2	0	0	-1.2523502914E+02	-2.0057994068E+01	3.8912016300E+02	1.1264264736E+03	1.0494455505E+03	0.000E+00	0.0
	1000022	2	5	5	0	0	1.2523502914E+02	2.0057994068E+01	4.0685668881E+02	9.5543660500E+02	8.5512607567E+02	0.000E+00	0.0
	14	1	6	6	0	0	7.5331271455E+01	-2.6480048947E+02	1.5830660591E+02	4.5440079353E+02	3.2500000000E+02	0.000E+00	0.0
	-14	1	6	6	0	0	4.9903757683E+01	2.8485848353E+02	2.4855008290E+02	5.0103581148E+02	3.2500000000E+02	0.000E+00	0.0
	25	2	5	5	0	0	-1.2523502914E+02	-2.0057994068E+01	2.7379244888E+01	1.8029963621E+02	1.2518865810E+02	0.000E+00	0.0
	-5	1	9	9	0	501	-2.7490096082E+01	4.8680612771E+01	-5.3943599295E+00	5.6321212357E+01	4.1800000000E+00	0.000E+00	0.0
	5	1	9	9	501	0	-9.7744933056E+01	-6.8738606839E+01	3.2773604818E+01	1.2397842385E+02	4.1800000000E+00	0.000E+00	0.0
</event>
<event>
    11  -1  1.0000000E+00  1.0000000E+00  -1.0000000E+00  -1.0000000E+00
	2212	-1	0	0	0	0	0.0000000000E+00	0.0000000000E+00	6.5000000000E+03	6.5000000000E+03	9.3827000000E-01	0.000E+00	0.0
	2212	-1	0	0	0	0	0.0000000000E+00	0.0000000000E+00	-6.5000000000E+03	6.5000000000E+03	9.3827000000E-01	0.000E+00	0.0
	2212	1	0	0	0	0	0.0000000000E+00	0.0000000000E+00	6.1111453565E+03	6.1111453565E+03	9.3827000000E-01	0.000E+00	0.0
	2212	1	0	0	0	0	0.0000000000E+00	0.0000000000E+00	-5.8250992092E+03	5.8250992092E+03	9.3827000000E-01	0.000E+00	0.0
	51	2	1	2	0	0	6.9451456511E+01	-5.3509014424E+01	-2.0759922622E+02	1.0490650045E+03	1.0245746559E+03	0.000E+00	0.0
	1000022	2	5	5	0	0	-6.9451456511E+01	5.3509014424E+01	-3.1853127014E+02	9.0752200016E+02	8.4524983957E+02	0.000E+00	0.0
	14	1	6	6	0	0	1.9669655734E+02	1.4202581374E+02	-7.0273294168E+01	4.1161171425E+02	3.2500000000E+02	0.000E+00	0.0
	-14	1	6	6	0	0	-2.6614801385E+02	-8.8516799314E+01	-2.4825797597E+02	4.9591028591E+02	3.2500000000E+02	0.000E+00	0.0
	25	2	5	5	0	0	6.9451456511E+01	-5.3509014424E+01	3.2485122790E+01	1.5623343412E+02	1.2516742107E+02	0.000E+00	0.0
	-5	1	9	9	0	501	6.5836065510E+01	-6.3954748322E+01	-2.6857443757E+01	9.5725608068E+01	4.1800000000E+00	0.000E+00	0.0
	5	1	9	9	501	0	3.6153910018E+00	1.0445733898E+01	5.9342566548E+01	6.0507826049E+01	4.1800000000E+00	0.000E+00	0.0
</event>
<event>
    11  -1  1.0000000E+00  1.0000000E+00  -1.0000000E+00  -1.0000000E+00
	2212	-1	0	0	0	0	0.0000000000E+00	0.0000000000E+00	6.5000000000E+03	6.5000000000E+03	9.3827000000E-01	0.000E+00	0.0
	2212	-1	0	0	0	0	0.0000000000E+00	0.0000000000E+00	-6.5000000000E+03	6.5000000000E+03	9.3827000000E-01	0.000E+00	0.0
	2212	1	0	0	0	0	0.0000000000E+00	0.0000000000E+00	6.2480265471E+03	6.2480265471E+03	9.3827000000E-01	0.000E+00	0.0
	2212	1	0	0	0	0	0.0000000000E+00	0.0000000000E+00	-5.4284923725E+03	5.4284923725E+03	9.3827000000E-01	0.000E+00	0.0
	51	2	1	2	0	0	-8.3930097790E+01	-6.1883002105E+01	-9.0532836484E+02	1.3821935908E+03	1.0392140814E+03	0.000E+00	0.0
	1000022	2	5	5	0	0	8.3930097790E+01	6.1883002105E+01	-6.0160429757E+02	1.0513801758E+03	8.5591984204E+02	0.000E+00	0.0
	14	1	6	6	0	0	-1.0278511663E+02	2.2233077209E+02	-4.7274824609E+02	6.2378815042E+02	3.2500000000E+02	0.000E+00	0.0
	-14	1	6	6	0	0	1.8671521442E+02	-1.6044776998E+02	-1.2885605148E+02	4.2759202540E+02	3.2500000000E+02	0.000E+00	0.0
	25	2	5	5	0	0	-8.3930097790E+01	-6.1883002105E+01	-2.1792987706E+02	2.7210090463E+02	1.2518667548E+02	0.000E+00	0.0
	-5	1	9	9	0	501	-4.3598313112E+01	1.7218720511E+01	-1.5809154334E+02	1.6494758476E+02	4.1800000000E+00	0.000E+00	0.0
	5	1	9	9	501	0	-4.0331784677E+01	-7.9101722616E+01	-5.9838333726E+01	1.0715331987E+02	4.1800000000E+00	0.000E+00	0.0
</event>
<event>
    11  -1  1.0000000E+00  1.0000000E+00  -1.0000000E+00  -1.0000000E+00
	2212	-1	0	0	0	0	0.0000000000E+00	0.0000000000E+00	6.5000000000E+03	6.5000000000E+03	9.3827000000E-01	0.000E+00	0.0
	2212	-1	0	0	0	0	0.0000000000E+00	0.0000000000E+00	-6.5000000000E+03	6.5000000000E+03	9.3827000000E-01	0.000E+00	0.0
	2212	1	0	0	0	0	0.0000000000E+00	0.0000000000E+00	5.8379402801E+03	5.8379402801E+03	9.3827000000E-01	0.000E+00	0.0
	2212	1	0	0	0	0	0.0000000000E+00	0.0000000000E+00	-6.0819247633E+03	6.0819247633E+03	9.3827000000E-01	0.000E+00	0.0
	51	2	1	2	0	0	5.3256794472E+01	-1.0841094727E+02	3.4231615928E+02	1.1130735237E+03	1.0522181792E+03	0.000E+00	0.0
	1000022	2	5	5	0	0	-5.3256794472E+01	1.0841094727E+02	1.0243403586E+02	8.5586411731E+02	8.4108348928E+02	0.000E+00	0.0
	14	1	6	6	0	0	-2.0301523840E+02	7.2412879409E+01	-1.4853136682E+02	4.1730729572E+02	3.2500000000E+02	0.000E+00	0.0
	-14	1	6	6	0	0	1.4975844393E+02	3.5998067859E+01	2.5096540268E+02	4.3855682159E+02	3.2500000000E+02	0.000E+00	0.0
	25	2	5	5	0	0	5.3256794472E+01	-1.0841094727E+02	1.4155044732E+02	2.2427083936E+02	1.2518650330E+02	0.000E+00	0.0
	-5	1	9	9	0	501	-6.9997624918E+00	-1.1288853895E+02	9.7367910060E+01	1.4930104223E+02	4.1800000000E+00	0.000E+00	0.0
	5	1	9	9	501	0	6.0256556964E+01	4.4775916788E+00	4.4182537258E+01	7.4969797138E+01	4.1800000000E+00	0.000E+00	0.0
</event>
<event>
    11  -1  1.0000000E+00  1.0000000E+00  -1.0000000E+00  -1.0000000E+00
	2212	-1	0	0	0	0	0.0000000000E+00	0.0000000000E+00	6.5000000000E+03	6.5000000000E+03	9.3827000000E-01	0.000E+00	0.0
	2212	-1	0	0	0	0	0.0000000000E+00	0.0000000000E+00	-6.5000000000E+03	6.5000000000E+03	9.3827000000E-01	0.000E+00	0.0
	2212	1	0	0	0	0	0.0000000000E+00	0.0000000000E+00	6.1711065105E+03	6.1711065105E+03	9.3827000000E-01	0.000E+00	0.0
	2212	1	0	0	0	0	0.0000000000E+00	0.0000000000E+00	-5.7012311408E+03	5.7012311408E+03	9.3827000000E-01	0.000E+00	0.0
	51	2	1	2	0	0	9.7010285202E+01	4.2444159959E+01	-4.4580927835E+02	1.1228525837E+03	1.0251046336E+03	0.000E+00	0.0
	1000022	2	5	5	0	0	-9.7010285202E+01	-4.2444159959E+01	-4.2059843009E+02	9.5645485514E+02	8.5246134715E+02	0.000E+00	0.0
	14	1	6	6	0	0	-2.1614275701E+02	1.9390944269E+02	-1.6801834658E+02	4.6709070657E+02	3.2500000000E+02	0.000E+00	0.0
	-14	1	6	6	0	0	1.1913247180E+02	-2.3635360265E+02	-2.5258008351E+02	4.8936414858E+02	3.2500000000E+02	0.000E+00	0.0
	25	2	5	5	0	0	9.7010285202E+01	4.2444159959E+01	-4.9276939593E+01	1.7120749363E+02	1.2518501089E+02	0.000E+00	0.0
	-5	1	9	9	0	501	-1.1737051583E+01	8.5399384180E+00	-5.5040201758E+01	5.7075258542E+01	4.1800000000E+00	0.000E+00	0.0
	5	1	9	9	501	0	1.0874733679E+02	3.3904221541E+01	5.7632621648E+00	1.1413223509E+02	4.1800000000E+00	0.000E+00	0.0
</event>
<event>
    11  -1  1.0000000E+00  1.0000000E+00  -1.0000000E+00  -1.0000000E+00
	2212	-1	0	0	0	0	0.0000000000E+00	0.0000000000E+00	6.5000000000E+03	6.5000000000E+03	9.3827000000E-01	0.000E+00	0.0
	2212	-1	0	0	0	0	0.0000000000E+00	0.0000000000E+00	-6.5000000000E+03	6.5000000000E+03	9.3827000000E-01	0.000E+00	0.0
	2212	1	0	0	0	0	0.0000000000E+00	0.0000000000E+00	6.1323669592E+03	6.1323669592E+03	9.3827000000E-01	0.000E+00	0.0
	2212	1	0	0	0	0	0.0000000000E+00	0.0000000000E+00	-5.7587928788E+03	5.7587928788E+03	9.3827000000E-01	0.000E+00	0.0
	51	2	1	2	0	0	-8.9730695898E+01	2.3481387528E+01	-2.9705062202E+02	1.0894085353E+03	1.0440157620E+03	0.000E+00	0.0
	1000022	2	5	5	0	0	8.9730695898E+01	-2.3481387528E+01	-3.9074191822E+02	9.5209282078E+02	8.6324881661E+02	0.000E+00	0.0
	14	1	6	6	0	0	2.4608631083E+02	-1.3723510864E+01	-4.2575684011E+02	5.8961062917E+02	3.2500000000E+02	0.000E+00	0.0
	-14	1	6	6	0	0	-1.5635561493E+02	-9.7578766637E+00	3.5014921895E+01	3.6248219161E+02	3.2500000000E+02	0.000E+00	0.0
	25	2	5	5	0	0	-8.9730695898E+01	2.3481387528E+01	1.7167837807E+01	1.5674734124E+02	1.2518794264E+02	0.000E+00	0.0
	-5	1	9	9	0	501	-1.0322070335E+02	1.6927498036E+01	5.3250843137E+01	1.1744862062E+02	4.1800000000E+00	0.000E+00	0.0
	5	1	9	9	501	0	1.3490007455E+01	6.5538894918E+00	-3.6083005329E+01	3.9298720618E+01	4.1800000000E+00	0.000E+00	0.0
</event>
<event>
    11  -1  1.0000000E+00  1.0000000E+00  -1.0000000E+00  -1.0000000E+00
	2212	-1	0	0	0	0	0.0000000000E+00	0.0000000000E+00	6.5000000000E+03	6.5000000000E+03	9.3827000000E-01	0.000E+00	0.0
	2212	-1	0	0	0	0	0.0000000000E+00	0.0000000000E+00	-6.5000000000E+03	6.5000000000E+03	9.3827000000E-01	0.000E+00	0.0
	2212	1	0	0	0	0	0.0000000000E+00	0.0000000000E+00	5.2080740063E+03	5.2080740063E+03	9.3827000000E-01	0.000E+00	0.0
	2212	1	0	0	0	0	0.0000000000E+00	0.0000000000E+00	-6.2853246914E+03	6.2853246914E+03	9.3827000000E-01	0.000E+00	0.0
	51	2	1	2	0	0	1.1702529504E+02	-2.2978607643E+01	9.5831648634E+02	1.4289758115E+03	1.0532703574E+03	0.000E+00	0.0
	1000022	2	5	5	0	0	-1.1702529504E+02	2.2978607643E+01	1.0073334195E+03	1.3201064115E+03	8.4482979564E+02	0.000E+00	0.0
	14	1	6	6	0	0	-7.9160760648E+01	2.7053536872E+02	4.0181993414E+02	5.8867654210E+02	3.2500000000E+02	0.000E+00	0.0
	-14	1	6	6	0	0	-3.7864534387E+01	-2.4755676108E+02	6.0551348534E+02	7.3142986940E+02	3.2500000000E+02	0.000E+00	0.0
	25	2	5	5	0	0	1.1702529504E+02	-2.2978607643E+01	6.9917265599E+01	1.8649489083E+02	1.2517581311E+02	0.000E+00	0.0
	-5	1	9	9	0	501	8.0455780637E+01	1.1573104480E+01	9.9055814738E+01	1.2820528935E+02	4.1800000000E+00	0.000E+00	0.0
	5	1	9	9	501	0	3.6569514398E+01	-3.4551712122E+01	-2.9138549139E+01	5.8289601472E+01	4.1800000000E+00	0.000E+00	0.0
</event>
<event>
    11  -1  1.0000000E+00  1.0000000E+00  -1.0000000E+00  -1.0000000E+00
	2212	-1	0	0	0	0	0.0000000000E+00	0.0000000000E+00	6.5000000000E+03	6.5000000000E+03	9.3827000000E-01	0.000E+00	0.0
	2212	-1	0	0	0	0	0.0000000000E+00	0.0000000000E+00	-6.5000000000E+03	6.5000000000E+03	9.3827000000E-01	0.000E+00	0.0
	2212	1	0	0	0	0	0.0000000000E+00	0.0000000000E+00	5.7768534517E+03	5.7768534517E+03	9.3827000000E-01	0.000E+00	0.0
	2212	1	0	0	0	0	0.0000000000E+00	0.0000000000E+00	-6.1161712806E+03	6.1161712806E+03	9.3827000000E-01	0.000E+00	0.0
	51	2	1	2	0	0	9.5804716045E+01	-2.8236096645E+01	4.4926784531E+02	1.1498152338E+03	1.0536876454E+03	0.000E+00	0.0
	1000022	2	5	5	0	0	-9.5804716045E+01	2.8236096645E+01	1.7136567300E+02	8.7491172299E+02	8.5213174356E+02	0.000E+00	0.0
	14	1	6	6	0	0	-4.1578112445E+01	2.5294795498E+02	-5.3001560767E+01	4.1730752786E+02	3.2500000000E+02	0.000E+00	0.0
	-14	1	6	6	0	0	-5.4226603600E+01	-2.2471185834E+02	2.2436723377E+02	4.5760419514E+02	3.2500000000E+02	0.000E+00	0.0
	25	2	5	5	0	0	9.5804716045E+01	-2.8236096645E+01	1.6795215588E+02	2.3206354465E+02	1.2517883735E+02	0.000E+00	0.0
	-5	1	9	9	0	501	1.0314643498E+02	-6.5230544050E+01	1.2492897621E+02	1.7469668693E+02	4.1800000000E+00	0.000E+00	0.0
	5	1	9	9	501	0	-7.3417189388E+00	3.6994447405E+01	4.3023179668E+01	5.7366857719E+01	4.1800000000E+00	0.000E+00	0.0
</event>
<event>
    11  -1  1.0000000E+00  1.0000000E+00  -1.0000000E+00  -1.0000000E+00
	2212	-1	0	0	0	0	0.0000000000E+00	0.0000000000E+00	6.5000000000E+03	6.5000000000E+03	9.3827000000E-01	0.000E+00	0.0
	2212	-1	0	0	0	0	0.0000000000E+00	0.0000000000E+00	-6.5000000000E+03	6.5000000000E+03	9.3827000000E-01	0.000E+00	0.0
	2212	1	0	0	0	0	0.0000000000E+00	0.0000000000E+00	5.8617139755E+03	5.8617139755E+03	9.3827000000E-01	0.000E+00	0.0
	2212	1	0	0	0	0	0.0000000000E+00	0.0000000000E+00	-6.0664888789E+03	6.0664888789E+03	9.3827000000E-01	0.000E+00	0.0
	51	2	1	2	0	0	-4.6406276845E+01	-8.4741175250E+01	9.6078420300E+01	1.0608402483E+03	1.0520534018E+03	0.000E+00	0.0
	1000022	2	5	5	0	0	4.6406276845E+01	8.4741175250E+01	2.7807829597E+02	8.9750569108E+02	8.4785276878E+02	0.000E+00	0.0
	14	1	6	6	0	0	8.9513092508E+01	-2.1661234426E+02	1.9047166947E+02	4.4366424048E+02	3.2500000000E+02	0.000E+00	0.0
	-14	1	6	6	0	0	-4.3106815663E+01	3.0135351951E+02	8.7606626499E+01	4.5384145060E+02	3.2500000000E+02	0.000E+00	0.0
	25	2	5	5	0	0	-4.6406276845E+01	-8.4741175250E+01	-7.3303392602E+01	1.7429145447E+02	1.2517793105E+02	0.000E+00	0.0
	-5	1	9	9	0	501	-6.9197414206E+01	-5.0811195300E+00	-5.6660067000E+01	8.9676839267E+01	4.1800000000E+00	0.000E+00	0.0
	5	1	9	9	501	0	2.2791137360E+01	-7.9660055720E+01	-1.6643325602E+01	8.4614615207E+01	4.1800000000E+00	0.000E+00	0.0
</event>
<event>
    11  -1  1.0000000E+00  1.0000000E+00  -1.0000000E+00  -1.0000000E+00
	2212	-1	0	0	0	0	0.0000000000E+00	0.0000000000E+00	6.5000000000E+03	6.5000000000E+03	9.3827000000E-01	0.000E+00	0.0
	2212	-1	0	0	0	0	0.0000000000E+00	0.0000000000E+00	-6.5000000000E+03	6.5000000000E+03	9.3827000000E-01	0.000E+00	0.0
	2212	1	0	0	0	0	0.0000000000E+00	0.0000000000E+00	5.6789895452E+03	5.6789895452E+03	9.3827000000E-01	0.000E+00	0.0
	2212	1	0	0	0	0	0.0000000000E+00	0.0000000000E+00	-6.1654885779E+03	6.1654885779E+03	9.3827000000E-01	0.000E+00	0.0
	51	2	1	2	0	0	4.0212600721E+01	-5.7681032083E+01	6.2584761136E+02	1.2227750760E+03	1.0481171209E+03	0.000E+00	0.0
	1000022	2	5	5	0	0	-4.0212600721E+01	5.7681032083E+01	2.6395942439E+02	8.9067516104E+02	8.4775203335E+02	0.000E+00	0.0
	14	1	6	6	0	0	4.4912915083E+01	1.7171163544E+02	3.6686518041E+02	5.2126491949E+02	3.2500000000E+02	0.000E+00	0.0
	-14	1	6	6	0	0	-8.5125515803E+01	-1.1403060336E+02	-1.0290575602E+02	3.6941024156E+02	3.2500000000E+02	0.000E+00	0.0
	25	2	5	5	0	0	4.0212600721E+01	-5.7681032083E+01	2.2253960831E+02	2.6484671579E+02	1.2520283894E+02	0.000E+00	0.0
	-5	1	9	9	0	501	3.9166693381E+01	-8.1966559340E+01	8.2929059099E+01	1.2307415636E+02	4.1800000000E+00	0.000E+00	0.0
	5	1	9	9	501	0	1.0459073392E+00	2.4285527257E+01	1.3961054922E+02	1.4177255943E+02	4.1800000000E+00	0.000E+00	0.0
</event>
<event>
    11  -1  1.0000000E+00  1.0000000E+00  -1.0000000E+00  -1.0000000E+00
	2212	-1	0	0	0	0	0.0000000000E+00	0.0000000000E+00	6.5000000000E+03	6.5000000000E+03	9.3827000000E-01	0.000E+00	0.0
	2212	-1	0	0	0	0	0.0000000000E+00	0.0000000000E+00	-6.5000000000E+03	6.5000000000E+03	9.3827000000E-01	0.000E+00	0.0
	2212	1	0	0	0	0	0.0000000000E+00	0.0000000000E+00	5.3035127378E+03	5.3035127378E+03	9.3827000000E-01	0.000E+00	0.0
	2212	1	0	0	0	0	0.0000000000E+00	0.0000000000E+00	-6.2636488000E+03	6.2636488000E+03	9.3827000000E-01	0.000E+00	0.0
	51	2	1	2	0	0	-1.5313797385E+02	-8.2076335894E+00	8.6367285906E+02	1.3786276555E+03	1.0635623164E+03	0.000E+00	0.0
	1000022	2	5	5	0	0	1.5313797385E+02	8.2076335894E+00	8.7618562399E+02	1.2178128402E+03	8.3177416508E+02	0.000E+00	0.0
	14	1	6	6	0	0	-8.9923541027E+01	-1.4079905207E+02	6.0706845633E+02	7.0856737645E+02	3.2500000000E+02	0.000E+00	0.0
	-14	1	6	6	0	0	2.4306151488E+02	1.4900668566E+02	2.6911716766E+02	5.0924546372E+02	3.2500000000E+02	0.000E+00	0.0
	25	2	5	5	0	0	-1.5313797385E+02	-8.2076335894E+00	8.3950438238E+01	2.1502562207E+02	1.2517882322E+02	0.000E+00	0.0
	-5	1	9	9	0	501	-1.3199077526E+02	-5.4386735213E+01	4.1572967185E+01	1.4874564102E+02	4.1800000000E+00	0.000E+00	0.0
	5	1	9	9	501	0	-2.1147198584E+01	4.6179101624E+01	4.2377471053E+01	6.6279981047E+01	4.1800000000E+00	0.000E+00	0.0
</event>
<event>
    11  -1  1.0000000E+00  1.0000000E+00  -1.0000000E+00  -1.0000000E+00
	2212	-1	0	0	0	0	0.0000000000E+00	0.0000000000E+00	6.5000000000E+03	6.5000000000E+03	9.3827000000E-01	0.000E+00	0.0
	2212	-1	0	0	0	0	0.0000000000E+00	0.0000000000E+00	-6.5000000000E+03	6.5000000000E+03	9.3827000000E-01	0.000E+00	0.0
	2212	1	0	0	0	0	0.0000000000E+00	0.0000000000E+00	5.6509511973E+03	5.6509511973E+03	9.3827000000E-01	0.000E+00	0.0
	2212	1	0	0	0	0	0.0000000000E+00	0.0000000000E+00	-6.1760115779E+03	6.1760115779E+03	9.3827000000E-01	0.000E+00	0.0
	51	2	1	2	0	0	-5.8979831038E+01	-9.4394573475E+01	5.1250748841E+02	1.1727663062E+03	1.0489651698E+03	0.000E+00	0.0
	1000022	2	5	5	0	0	5.8979831038E+01	9.4394573475E+01	4.5647414019E+02	9.9203523372E+02	8.7371408843E+02	0.000E+00	0.0
	14	1	6	6	0	0	-2.0035885414E+02	2.2310529016E+02	1.8703875706E+02	4.8013345809E+02	3.2500000000E+02	0.000E+00	0.0
	-14	1	6	6	0	0	2.5933868518E+02	-1.2871071669E+02	2.6943538313E+02	5.1190177564E+02	3.2500000000E+02	0.000E+00	0.0
	25	2	5	5	0	0	-5.8979831038E+01	-9.4394573475E+01	6.8586240388E+01	1.8100199103E+02	1.2517464766E+02	0.000E+00	0.0
	-5	1	9	9	0	501	-6.1720551844E+01	-8.0651781265E+01	1.0232582027E+02	1.4422961636E+02	4.1800000000E+00	0.000E+00	0.0
	5	1	9	9	501	0	2.7407208066E+00	-1.3742792209E+01	-3.3739579884E+01	3.6772374672E+01	4.1800000000E+00	0.000E+00	0.0
</event>
<event>
    11  -1  1.0000000E+00  1.0000000E+00  -1.0000000E+00  -1.0000000E+00
	2212	-1	0	0	0	0	0.0000000000E+00	0.0000000000E+00	6.5000000000E+03	6.5000000000E+03	9.3827000000E-01	0.000E+00	0.0
	2212	-1	0	0	0	0	0.0000000000E+00	0.0000000000E+00	-6.5000000000E+03	6.5000000000E+03	9.3827000000E-01	0.000E+00	0.0
	2212	1	0	0	0	0	0.0000000000E+00	0.0000000000E+00	6.3317862147E+03	6.3317862147E+03	9.3827000000E-01	0.000E+00	0.0
	2212	1	0	0	0	0	0.0000000000E+00	0.0000000000E+00	-4.8976421706E+03	4.8976421706E+03	9.3827000000E-01	0.000E+00	0.0
	51	2	1	2	0	0	-5.5460262084E+01	7.3409882354E+01	-1.2913566132E+03	1.6595847244E+03	1.0383422863E+03	0.000E+00	0.0
	1000022	2	5	5	0	0	5.5460262084E+01	-7.3409882354E+01	-1.3398281065E+03	1.5888344263E+03	8.4899389143E+02	0.000E+00	0.0
	14	1	6	6	0	0	2.4002900310E+02	-2.0787074518E+02	-7.7394935665E+02	8.9746686607E+02	3.2500000000E+02	0.000E+00	0.0
	-14	1	6	6	0	0	-1.8456874101E+02	1.3446086283E+02	-5.6587874982E+02	6.9136756020E+02	3.2500000000E+02	0.000E+00	0.0
	25	2	5	5	0	0	-5.5460262084E+01	7.3409882354E+01	-9.4315937587E+01	1.8173718839E+02	1.2517211376E+02	0.000E+00	0.0
	-5	1	9	9	0	501	2.9734567281E+01	1.2833800328E+01	-6.5553711156E+01	7.3236687313E+01	4.1800000000E+00	0.000E+00	0.0
	5	1	9	9	501	0	-8.5194829365E+01	6.0576082026E+01	-2.8762226431E+01	1.0850050107E+02	4.1800000000E+00	0.000E+00	0.0
</event>
<event>
    11  -1  1.0000000E+00  1.0000000E+00  -1.0000000E+00  -1.0000000E+00
	2212	-1	0	0	0	0	0.0000000000E+00	0.0000000000E+00	6.5000000000E+03	6.5000000000E+03	9.3827000000E-01	0.000E+00	0.0
	2212	-1	0	0	0	0	0.0000000000E+00	0.0000000000E+00	-6.5000000000E+03	6.5000000000E+03	9.3827000000E-01	0.000E+00	0.0
	2212	1	0	0	0	0	0.0000000000E+00	0.0000000000E+00	6.2319714508E+03	6.2319714508E+03	9.3827000000E-01	0.000E+00	0.0
	2212	1	0	0	0	0	0.0000000000E+00	0.0000000000E+00	-5.4653864088E+03	5.4653864088E+03	9.3827000000E-01	0.000E+00	0.0
	51	2	1	2	0	0	-8.9847764920E+01	3.9213917574E+01	-6.3727063189E+02	1.2348879018E+03	1.0531969994E+03	0.000E+00	0.0
	1000022	2	5	5	0	0	8.9847764920E+01	-3.9213917574E+01	-7.6242488032E+02	1.1435857941E+03	8.4669145385E+02	0.000E+00	0.0
	14	1	6	6	0	0	-1.7871280487E+02	-1.7357624391E+02	-3.8281874799E+02	5.6057307542E+02	3.2500000000E+02	0.000E+00	0.0
	-14	1	6	6	0	0	2.6856056979E+02	1.3436232634E+02	-3.7960613234E+02	5.8301271863E+02	3.2500000000E+02	0.000E+00	0.0
	25	2	5	5	0	0	-8.9847764920E+01	3.9213917574E+01	-4.1601616808E+00	1.5905634640E+02	1.2518491200E+02	0.000E+00	0.0
	-5	1	9	9	0	501	1.8639805014E+01	2.4933324786E+01	-3.3265314173E+01	4.5751137067E+01	4.1800000000E+00	0.000E+00	0.0
	5	1	9	9	501	0	-1.0848756993E+02	1.4280592788E+01	2.9105152492E+01	1.1330520933E+02	4.1800000000E+00	0.000E+00	0.0
</event>
<event>
    11  -1  1.0000000E+00  1.0000000E+00  -1.0000000E+00  -1.0000000E+00
	2212	-1	0	0	0	0	0.0000000000E+00	0.0000000000E+00	6.5000000000E+03	6.5000000000E+03	9.3827000000E-01	0.000E+00	0.0
	2212	-1	0	0	0	0	0.0000000000E+00	0.0000000000E+00	-6.5000000000E+03	6.5000000000E+03	9.3827000000E-01	0.000E+00	0.0
	2212	1	0	0	0	0	0.0000000000E+00	0.0000000000E+00	5.6678717614E+03	5.6678717614E+03	9.3827000000E-01	0.000E+00	0.0
	2212	1	0	0	0	0	0.0000000000E+00	0.0000000000E+00	-6.1728961028E+03	6.1728961028E+03	9.3827000000E-01	0.000E+00	0.0
	51	2	1	2	0	0	-4.6441286220E+01	-8.2455062379E+01	6.1566769901E+02	1.2152250431E+03	1.0434412103E+03	0.000E+00	0.0
	1000022	2	5	5	0	0	4.6441286220E+01	8.2455062379E+01	3.0957709764E+02	9.0858051212E+02	8.4895520332E+02	0.000E+00	0.0
	14	1	6	6	0	0	-1.1194349828E+02	-1.8550609986E+02	6.3655123094E+01	3.9575350231E+02	3.2500000000E+02	0.000E+00	0.0
	-14	1	6	6	0	0	1.5838478450E+02	2.6796116224E+02	2.4592197455E+02	5.1282700981E+02	3.2500000000E+02	0.000E+00	0.0
	25	2	5	5	0	0	-4.6441286220E+01	-8.2455062379E+01	1.9544724376E+02	2.5065162369E+02	1.2518378884E+02	0.000E+00	0.0
	-5	1	9	9	0	501	2.9714005799E+01	-4.9594957847E-01	9.7103290616E+01	1.0163508034E+02	4.1800000000E+00	0.000E+00	0.0
	5	1	9	9	501	0	-7.6155292019E+01	-8.1959112801E+01	9.8343953143E+01	1.4901654335E+02	4.1800000000E+00	0.000E+00	0.0
</event>
<event>
    11  -1  1.0000000E+00  1.0000000E+00  -1.0000000E+00  -1.0000000E+00
	2212	-1	0	0	0	0	0.0000000000E+00	0.0000000000E+00	6.5000000000E+03	6.5000000000E+03	9.3827000000E-01	0.000E+00	0.0
	2212	-1	0	0	0	0	0.0000000000E+00	0.0000000000E+00	-6.5000000000E+03	6.5000000000E+03	9.3827000000E-01	0.000E+00	0.0
	2212	1	0	0	0	0	0.0000000000E+00	0.0000000000E+00	6.1671998342E+03	6.1671998342E+03	9.3827000000E-01	0.000E+00	0.0
	2212	1	0	0	0	0	0.0000000000E+00	0.0000000000E+00	-5.6962328844E+03	5.6962328844E+03	9.3827000000E-01	0.000E+00	0.0
	51	2	1	2	0	0	7.7288544219E+01	-5.7225365571E+01	-4.1791991662E+02	1.1197681169E+03	1.0343961124E+03	0.000E+00	0.0
	1000022	2	5	5	0	0	-7.7288544219E+01	5.7225365571E+01	-4.5116442633E+02	9.7756128034E+02	8.6187496524E+02	0.000E+00	0.0
	14	1	6	6	0	0	-2.7953027049E+02	-1.0874568235E+02	-1.6686437003E+02	4.7268542768E+02	3.2500000000E+02	0.000E+00	0.0
	-14	1	6	6	0	0	2.0224172627E+02	1.6597104792E+02	-2.8430005629E+02	5.0487585266E+02	3.2500000000E+02	0.000E+00	0.0
	25	2	5	5	0	0	7.7288544219E+01	-5.7225365571E+01	-1.9802523498E+01	1.5900600109E+02	1.2507000805E+02	0.000E+00	0.0
	-5	1	9	9	0	501	1.9130945549E+01	-8.7286957279E+01	3.1326208568E+00	8.9511405430E+01	4.1800000000E+00	0.000E+00	0.0
	5	1	9	9	501	0	5.8157598670E+01	3.0061591708E+01	-2.2935144355E+01	6.9494595658E+01	4.1800000000E+00	0.000E+00	0.0
</event>
<event>
    11  -1  1.0000000E+00  1.0000000E+00  -1.0000000E+00  -1.0000000E+00
	2212	-1	0	0	0	0	0.0000000000E+00	0.0000000000E+00	6.5000000000E+03	6.5000000000E+03	9.3827000000E-01	0.000E+00	0.0
	2212	-1	0	0	0	0	0.0000000000E+00	0.0000000000E+00	-6.5000000000E+03	6.5000000000E+03	9.3827000000E-01	0.000E+00	0.0
	2212	1	0	0	0	0	0.0000000000E+00	0.0000000000E+00	6.2855683318E+03	6.2855683318E+03	9.3827000000E-01	0.000E+00	0.0
	2212	1	0	0	0	0	0.0000000000E+00	0.0000000000E+00	-5.2256132402E+03	5.2256132402E+03	9.3827000000E-01	0.000E+00	0.0
	51	2	1	2	0	0	-9.4686979405E+00	-1.3397811936E+02	-1.0624728647E+03	1.4966508932E+03	1.0455025180E+03	0.000E+00	0.0
	1000022	2	5	5	0	0	9.4686979405E+00	1.3397811936E+02	-8.7998050360E+02	1.2317291985E+03	8.5132328700E+02	0.000E+00	0.0
	14	1	6	6	0	0	2.7311767054E+02	1.0400418996E+02	-5.1649891450E+02	6.7661382056E+02	3.2500000000E+02	0.000E+00	0.0
	-14	1	6	6	0	0	-2.6364897260E+02	2.9973929402E+01	-3.6348158909E+02	5.5511537792E+02	3.2500000000E+02	0.000E+00	0.0
	25	2	5	5	0	0	-9.4686979405E+00	-1.3397811936E+02	-1.7997458809E+02	2.5708922951E+02	1.2515680910E+02	0.000E+00	0.0
	-5	1	9	9	0	501	5.2524226365E+01	-7.3066221460E+01	-5.7560719272E+01	1.0690264673E+02	4.1800000000E+00	0.000E+00	0.0
	5	1	9	9	501	0	-6.1992924305E+01	-6.0911897902E+01	-1.2241386881E+02	1.5018658278E+02	4.1800000000E+00	0.000E+00	0.0
</event>
<event>
    11  -1  1.0000000E+00  1.0000000E+00  -1.0000000E+00  -1.0000000E+00
	2212	-1	0	0	0	0	0.0000000000E+00	0.0000000000E+00	6.5000000000E+03	6.5000000000E+03	9.3827000000E-01	0.000E+00	0.0
	2212	-1	0	0	0	0	0.0000000000E+00	0.0000000000E+00	-6.5000000000E+03	6.5000000000E+03	9.3827000000E-01	0.000E+00	0.0
	2212	1	0	0	0	0	0.0000000000E+00	0.0000000000E+00	6.1177303571E+03	6.1177303571E+03	9.3827000000E-01	0.000E+00	0.0
	2212	1	0	0	0	0	0.0000000000E+00	0.0000000000E+00	-5.6860432624E+03	5.6860432624E+03	9.3827000000E-01	0.000E+00	0.0
	51	2	1	2	0	0	5.0293673033E+01	1.9945558490E+02	-4.3793509063E+02	1.2160192981E+03	1.1156181272E+03	0.000E+00	0.0
	1000022	2	5	5	0	0	-5.0293673033E+01	-1.9945558490E+02	-3.3953965228E+02	9.3840183017E+02	8.5029338201E+02	0.000E+00	0.0
	14	1	6	6	0	0	-2.5785042841E+02	4.5408337668E+01	-1.8063086226E+02	4.5475407526E+02	3.2500000000E+02	0.000E+00	0.0
	-14	1	6	6	0	0	2.0755675538E+02	-2.4486392257E+02	-1.5890879002E+02	4.8364775491E+02	3.2500000000E+02	0.000E+00	0.0
	25	2	5	5	0	0	5.0293673033E+01	1.9945558490E+02	-9.2147442452E+01	2.5782455039E+02	1.2518132344E+02	0.000E+00	0.0
	-5	1	9	9	0	501	6.8492535641E+01	2.0257638668E+02	-1.0145839782E+02	2.3672705542E+02	4.1800000000E+00	0.000E+00	0.0
	5	1	9	9	501	0	-1.8198862608E+01	-3.1208017808E+00	9.3109553712E+00	2.1097494968E+01	4.1800000000E+00	0.000E+00	0.0
</event>
<event>
    11  -1  1.0000000E+00  1.0000000E+00  -1.0000000E+00  -1.0000000E+00
	2212	-1	0	0	0	0	0.0000000000E+00	0.0000000000E+00	6.5000000000E+03	6.5000000000E+03	9.3827000000E-01	0.000E+00	0.0
	2212	-1	0	0	0	0	0.0000000000E+00	0.0000000000E+00	-6.5000000000E+03	6.5000000000E+03	9.3827000000E-01	0.000E+00	0.0
	2212	1	0	0	0	0	0.0000000000E+00	0.0000000000E+00	5.5552658059E+03	5.5552658059E+03	9.3827000000E-01	0.000E+00	0.0
	2212	1	0	0	0	0	0.0000000000E+00	0.0000000000E+00	-6.2078971937E+03	6.2078971937E+03	9.3827000000E-01	0.000E+00	0.0
	51	2	1	2	0	0	-1.1450225365E+02	6.5808716017E+01	7.4892602319E+02	1.2969848799E+03	1.0506369674E+03	0.000E+00	0.0
	1000022	2	5	5	0	0	1.1450225365E+02	-6.5808716017E+01	4.4066982762E+02	9.5748248299E+02	8.3972689314E+02	0.000E+00	0.0
	14	1	6	6	0	0	-5.1800885856E+01	-2.7341067038E+02	2.5690898976E+02	4.9906307765E+02	3.2500000000E+02	0.000E+00	0.0
	-14	1	6	6	0	0	1.6630313950E+02	2.0760195436E+02	1.8376083787E+02	4.5841940534E+02	3.2500000000E+02	0.000E+00	0.0
	25	2	5	5	0	0	-1.1450225365E+02	6.5808716017E+01	2.1196156019E+02	2.7935451740E+02	1.2517863315E+02	0.000E+00	0.0
	-5	1	9	9	0	501	-1.2990261952E+00	-7.5479471992E+00	-1.3801721225E+01	1.6328468536E+01	4.1800000000E+00	0.000E+00	0.0
	5	1	9	9	501	0	-1.1320322745E+02	7.3356663216E+01	2.2576328141E+02	2.6302604886E+02	4.1800000000E+00	0.000E+00	0.0
</event>
<event>
    11  -1  1.0000000E+00  1.0000000E+00  -1.0000000E+00  -1.0000000E+00
	2212	-1	0	0	0	0	0.0000000000E+00	0.0000000000E+00	6.5000000000E+03	6.5000000000E+03	9.3827000000E-01	0.000E+00	0.0
	2212	-1	0	0	0	0	0.0000000000E+00	0.0000000000E+00	-6.5000000000E+03	6.5000000000E+03	9.3827000000E-01	0.000E+00	0.0
	2212	1	0	0	0	0	0.0000000000E+00	0.0000000000E+00	6.3295610728E+03	6.3295610728E+03	9.3827000000E-01	0.000E+00	0.0
	2212	1	0	0	0	0	0.0000000000E+00	0.0000000000E+00	-4.8673390033E+03	4.8673390033E+03	9.3827000000E-01	0.000E+00	0.0
	51	2	1	2	0	0	-9.0153330298E+01	-8.0604641266E+01	-1.6289458941E+03	1.9445218980E+03	1.0550241490E+03	0.000E+00	0.0
	1000022	2	5	5	0	0	9.0153330298E+01	8.0604641266E+01	-1.0393250351E+03	1.3457848274E+03	8.4635426495E+02	0.000E+00	0.0
	14	1	6	6	0	0	-1.1535773878E+02	2.4579606139E+02	-4.0598341981E+02	5.8666059085E+02	3.2500000000E+02	0.000E+00	0.0
	-14	1	6	6	0	0	2.0551106908E+02	-1.6519142013E+02	-6.3334161530E+02	7.5912423652E+02	3.2500000000E+02	0.000E+00	0.0
	25	2	5	5	0	0	-9.0153330298E+01	-8.0604641266E+01	-4.2289703439E+02	4.5731509651E+02	1.2518172648E+02	0.000E+00	0.0
	-5	1	9	9	0	501	-5.4529576045E+01	2.0208500104E+01	-2.2397764173E+02	2.3144181673E+02	4.1800000000E+00	0.000E+00	0.0
	5	1	9	9	501	0	-3.5623754252E+01	-1.0081314137E+02	-1.9891939266E+02	2.2587327977E+02	4.1800000000E+00	0.000E+00	0.0
</event>
<event>
    11  -1  1.0000000E+00  1.0000000E+00  -1.0000000E+00  -1.0000000E+00
	2212	-1	0	0	0	0	0.0000000000E+00	0.0000000000E+00	6.5000000000E+03	6.5000000000E+03	9.3827000000E-01	0.000E+00	0.0
	2212	-1	0	0	0	0	0.0000000000E+00	0.0000000000E+00	-6.5000000000E+03	6.5000000000E+03	9.3827000000E-01	0.000E+00	0.0
	2212	1	0	0	0	0	0.0000000000E+00	0.0000000000E+00	6.1304369118E+03	6.1304369118E+03	9.3827000000E-01	0.000E+00	0.0
	2212	1	0	0	0	0	0.0000000000E+00	0.0000000000E+00	-5.7406556847E+03	5.7406556847E+03	9.3827000000E-01	0.000E+00	0.0
	51	2	1	2	0	0	-8.6607739046E+00	-1.2635000512E+02	-5.0096870841E+02	1.1787754241E+03	1.0594821947E+03	0.000E+00	0.0
	1000022	2	5	5	0	0	8.6607739046E+00	1.2635000512E+02	-2.0793081223E+02	8.7438122273E+02	8.3980233816E+02	0.000E+00	0.0
	14	1	6	6	0	0	-8.9910912871E+01	-1.8838497290E+02	-9.3264823507E+01	3.9736154516E+02	3.2500000000E+02	0.000E+00	0.0
	-14	1	6	6	0	0	9.8571686775E+01	3.1473497801E+02	-1.1466598872E+02	4.7701967757E+02	3.2500000000E+02	0.000E+00	0.0
	25	2	5	5	0	0	-8.6607739046E+00	-1.2635000512E+02	-1.8185041487E+02	2.5452618083E+02	1.2519852451E+02	0.000E+00	0.0
	-5	1	9	9	0	501	-1.2548724494E+01	-1.4999369957E+02	-1.3733349369E+02	2.0379779509E+02	4.1800000000E+00	0.000E+00	0.0
	5	1	9	9	501	0	3.8879505892E+00	2.3643694454E+01	-4.4516921188E+01	5.0728385735E+01	4.1800000000E+00	0.000E+00	0.0
</event>
<event>
    11  -1  1.0000000E+00  1.0000000E+00  -1.0000000E+00  -1.0000000E+00
	2212	-1	0	0	0	0	0.0000000000E+00	0.0000000000E+00	6.5000000000E+03	6.5000000000E+03	9.3827000000E-01	0.000E+00	0.0
	2212	-1	0	0	0	0	0.0000000000E+00	0.0000000000E+00	-6.5000000000E+03	6.5000000000E+03	9.3827000000E-01	0.000E+00	0.0
	2212	1	0	0	0	0	0.0000000000E+00	0.0000000000E+00	6.3107021988E+03	6.3107021988E+03	9.3827000000E-01	0.000E+00	0.0
	2212	1	0	0	0	0	0.0000000000E+00	0.0000000000E+00	-5.1040367239E+03	5.1040367239E+03	9.3827000000E-01	0.000E+00	0.0
	51	2	1	2	0	0	1.0452081976E+02	-8.3980044300E+01	-1.1527184189E+03	1.5504025664E+03	1.0281104586E+03	0.000E+00	0.0
	1000022	2	5	5	0	0	-1.0452081976E+02	8.3980044300E+01	-1.0509035582E+03	1.3446136764E+03	8.2801594217E+02	0.000E+00	0.0
	14	1	6	6	0	0	-1.4277793020E+01	2.9104499035E+02	-4.6724112686E+02	6.3941403833E+02	3.2500000000E+02	0.000E+00	0.0
	-14	1	6	6	0	0	-9.0243026738E+01	-2.0706494605E+02	-5.8366243133E+02	7.0519963805E+02	3.2500000000E+02	0.000E+00	0.0
	25	2	5	5	0	0	1.0452081976E+02	-8.3980044300E+01	-1.5576191673E+02	2.4064740099E+02	1.2518844713E+02	0.000E+00	0.0
	-5	1	9	9	0	501	9.8666342539E+01	-9.9781379731E+01	-1.6834850733E+02	2.1920324635E+02	4.1800000000E+00	0.000E+00	0.0
	5	1	9	9	501	0	5.8544772195E+00	1.5801335431E+01	1.2586590602E+01	2.1444154632E+01	4.1800000000E+00	0.000E+00	0.0
</event>
<event>
    11  -1  1.0000000E+00  1.0000000E+00  -1.0000000E+00  -1.0000000E+00
	2212	-1	0	0	0	0	0.0000000000E+00	0.0000000000E+00	6.5000000000E+03	6.5000000000E+03	9.3827000000E-01	0.000E+00	0.0
	2212	-1	0	0	0	0	0.0000000000E+00	0.0000000000E+00	-6.5000000000E+03	6.5000000000E+03	9.3827000000E-01	0.000E+00	0.0
	2212	1	0	0	0	0	0.0000000000E+00	0.0000000000E+00	5.0652003009E+03	5.0652003009E+03	9.3827000000E-01	0.000E+00	0.0
	2212	1	0	0	0	0	0.0000000000E+00	0.0000000000E+00	-6.2996622245E+03	6.2996622245E+03	9.3827000000E-01	0.000E+00	0.0
	51	2	1	2	0	0	1.5302816047E+01	-2.8145152626E+01	1.4607485310E+03	1.8123440393E+03	1.0722771657E+03	0.000E+00	0.0
	1000022	2	5	5	0	0	-1.5302816047E+01	2.8145152626E+01	7.9912768741E+02	1.1810316348E+03	8.6902493398E+02	0.000E+00	0.0
	14	1	6	6	0	0	-1.4500368829E+02	-1.6533094617E+02	6.3991182293E+02	7.5064807500E+02	3.2500000000E+02	0.000E+00	0.0
	-14	1	6	6	0	0	1.2970087224E+02	1.9347609880E+02	1.5921586448E+02	4.3038355982E+02	3.2500000000E+02	0.000E+00	0.0
	25	2	5	5	0	0	1.5302816047E+01	-2.8145152626E+01	4.3533423619E+02	4.5410583977E+02	1.2517943411E+02	0.000E+00	0.0
	-5	1	9	9	0	501	-3.7198231215E+01	-5.7398155177E+01	2.1282974490E+02	2.2358942135E+02	4.1800000000E+00	0.000E+00	0.0
	5	1	9	9	501	0	5.2501047263E+01	2.9253002551E+01	2.2250449129E+02	2.3051641843E+02	4.1800000000E+00	0.000E+00	0.0
</event>
<event>
    11  -1  1.0000000E+00  1.0000000E+00  -1.0000000E+00  -1.0000000E+00
	2212	-1	0	0	0	0	0.0000000000E+00	0.0000000000E+00	6.5000000000E+03	6.5000000000E+03	9.3827000000E-01	0.000E+00	0.0
	2212	-1	0	0	0	0	0.0000000000E+00	0.0000000000E+00	-6.5000000000E+03	6.5000000000E+03	9.3827000000E-01	0.000E+00	0.0
	2212	1	0	0	0	0	0.0000000000E+00	0.0000000000E+00	5.9507736753E+03	5.9507736753E+03	9.3827000000E-01	0.000E+00	0.0
	2212	1	0	0	0	0	0.0000000000E+00	0.0000000000E+00	-6.0042602521E+03	6.0042602521E+03	9.3827000000E-01	0.000E+00	0.0
	51	2	1	2	0	0	2.4368121141E+01	1.1117444368E+02	-2.7538930240E+01	1.0501453395E+03	1.0435963200E+03	0.000E+00	0.0
	1000022	2	5	5	0	0	-2.4368121141E+01	-1.1117444368E+02	1.2536464466E+02	8.6107348906E+02	8.4426162840E+02	0.000E+00	0.0
	14	1	6	6	0	0	-2.6566376060E+02	3.4101512292E+01	7.9335396493E+01	4.2855484127E+02	3.2500000000E+02	0.000E+00	0.0
	-14	1	6	6	0	0	2.4129563946E+02	-1.4527595597E+02	4.6029248162E+01	4.3251864780E+02	3.2500000000E+02	0.000E+00	0.0
	25	2	5	5	0	0	2.4368121141E+01	1.1117444368E+02	-7.1878067885E+01	1.8389258358E+02	1.2528552749E+02	0.000E+00	0.0
	-5	1	9	9	0	501	-1.3738940873E+01	9.1737382752E+01	-9.6859877668E+01	1.3417829255E+02	4.1800000000E+00	0.000E+00	0.0
	5	1	9	9	501	0	3.8107062014E+01	1.9437060926E+01	2.4981809782E+01	4.9714291031E+01	4.1800000000E+00	0.000E+00	0.0
</event>
<event>
    11  -1  1.0000000E+00  1.0000000E+00  -1.0000000E+00  -1.0000000E+00
	2212	-1	0	0	0	0	0.0000000000E+00	0.0000000000E+00	6.5000000000E+03	6.5000000000E+03	9.3827000000E-01	0.000E+00	0.0
	2212	-1	0	0	0	0	0.0000000000E+00	0.0000000000E+00	-6.5000000000E+03	6.5000000000E+03	9.3827000000E-01	0.000E+00	0.0
	2212	1	0	0	0	0	0.0000000000E+00	0.0000000000E+00	6.3269816446E+03	6.3269816446E+03	9.3827000000E-01	0.000E+00	0.0
	2212	1	0	0	0	0	0.0000000000E+00	0.0000000000E+00	-4.8926224636E+03	4.8926224636E+03	9.3827000000E-01	0.000E+00	0.0
	51	2	1	2	0	0	8.3857013250E+01	1.4391613584E+02	-1.4902435606E+03	1.8333011193E+03	1.0547147820E+03	0.000E+00	0.0
	1000022	2	5	5	0	0	-8.3857013250E+01	-1.4391613584E+02	-1.1116479495E+03	1.3962922885E+03	8.2832791725E+02	0.000E+00	0.0
	14	1	6	6	0	0	-2.7789695062E+02	-1.8129448750E+02	-6.0083642602E+02	7.5942334517E+02	3.2500000000E+02	0.000E+00	0.0
	-14	1	6	6	0	0	1.9403993737E+02	3.7378351656E+01	-5.1081152346E+02	6.3686894332E+02	3.2500000000E+02	0.000E+00	0.0
	25	2	5	5	0	0	8.3857013250E+01	1.4391613584E+02	-3.2271123149E+02	3.8410360324E+02	1.2509670766E+02	0.000E+00	0.0
	-5	1	9	9	0	501	6.7564681101E+01	5.9509138348E+01	-6.1593940744E+01	1.0916780485E+02	4.1800000000E+00	0.000E+00	0.0
	5	1	9	9	501	0	1.6292332150E+01	8.4406997493E+01	-2.6111729074E+02	2.7493579839E+02	4.1800000000E+00	0.000E+00	0.0
</event>
<event>
    11  -1  1.0000000E+00  1.0000000E+00  -1.0000000E+00  -1.0000000E+00
	2212	-1	0	0	0	0	0.0000000000E+00	0.0000000000E+00	6.5000000000E+03	6.5000000000E+03	9.3827000000E-01	0.000E+00	0.0
	2212	-1	0	0	0	0	0.0000000000E+00	0.0000000000E+00	-6.5000000000E+03	6.5000000000E+03	9.3827000000E-01	0.000E+00	0.0
	2212	1	0	0	0	0	0.0000000000E+00	0.0000000000E+00	6.2563592344E+03	6.2563592344E+03	9.3827000000E-01	0.000E+00	0.0
	2212	1	0	0	0	0	0.0000000000E+00	0.0000000000E+00	-5.3769162695E+03	5.3769162695E+03	9.3827000000E-01	0.000E+00	0.0
	51	2	1	2	0	0	9.9286285028E+01	4.0039366927E+01	-9.9976008717E+02	1.4510331039E+03	1.0461911486E+03	0.000E+00	0.0
	1000022	2	5	5	0	0	-9.9286285028E+01	-4.0039366927E+01	-6.1037614383E+02	1.0512469945E+03	8.4917624159E+02	0.000E+00	0.0
	14	1	6	6	0	0	1.9777046914E+02	-8.3043313151E+01	-1.6321691701E+02	4.2222519148E+02	3.2500000000E+02	0.000E+00	0.0
	-14	1	6	6	0	0	-2.9705675417E+02	4.3003946224E+01	-4.4715922682E+02	6.2902180306E+02	3.2500000000E+02	0.000E+00	0.0
	25	2	5	5	0	0	9.9286285028E+01	4.0039366927E+01	-2.6906682108E+02	3.1547750148E+02	1.2517261056E+02	0.000E+00	0.0
	-5	1	9	9	0	501	7.0663821335E+01	8.5069379446E+01	-1.9280858088E+02	2.2231238433E+02	4.1800000000E+00	0.000E+00	0.0
	5	1	9	9	501	0	2.8622463693E+01	-4.5030012519E+01	-7.6258240203E+01	9.3165117153E+01	4.1800000000E+00	0.000E+00	0.0
</event>
<event>
    11  -1  1.0000000E+00  1.0000000E+00  -1.0000000E+00  -1.0000000E+00
	2212	-1	0	0	0	0	0.0000000000E+00	0.0000000000E+00	6.5000000000E+03	6.5000000000E+03	9.3827000000E-01	0.000E+00	0.0
	2212	-1	0	0	0	0	0.0000000000E+00	0.0000000000E+00	-6.5000000000E+03	6.5000000000E+03	9.3827000000E-01	0.000E+00	0.0
	2212	1	0	0	0	0	0.0000000000E+00	0.0000000000E+00	6.3044260579E+03	6.3044260579E+03	9.3827000000E-01	0.000E+00	0.0
	2212	1	0	0	0	0	0.0000000000E+00	0.0000000000E+00	-5.1279158620E+03	5.1279158620E+03	9.3827000000E-01	0.000E+00	0.0
	51	2	1	2	0	0	9.7384790535E+00	-1.2414847099E+02	-1.1653084432E+03	1.5642336985E+03	1.0360384235E+03	0.000E+00	0.0
	1000022	2	5	5	0	0	-9.7384790535E+00	1.2414847099E+02	-9.9521360443E+02	1.3145852500E+03	8.4980973177E+02	0.000E+00	0.0
	14	1	6	6	0	0	1.3285092299E+02	-1.3879507315E+02	-6.5899728876E+02	7.5948394761E+02	3.2500000000E+02	0.000E+00	0.0
	-14	1	6	6	0	0	-1.4258940205E+02	2.6294354414E+02	-3.3621631566E+02	5.5510130238E+02	3.2500000000E+02	0.000E+00	0.0
	25	2	5	5	0	0	9.7384790535E+00	-1.2414847099E+02	-1.8129659152E+02	2.5307283010E+02	1.2517876183E+02	0.000E+00	0.0
	-5	1	9	9	0	501	3.9107109229E+01	-2.9340719173E+00	-9.0576538143E+01	9.8790467314E+01	4.1800000000E+00	0.000E+00	0.0
	5	1	9	9	501	0	-2.9368630175E+01	-1.2121439907E+02	-9.0720053377E+01	1.5428236278E+02	4.1800000000E+00	0.000E+00	0.0
</event>
<event>
    11  -1  1.0000000E+00  1.0000000E+00  -1.0000000E+00  -1.0000000E+00
	2212	-1	0	0	0	0	0.0000000000E+00	0.0000000000E+00	6.5000000000E+03	6.5000000000E+03	9.3827000000E-01	0.000E+00	0.0
	2212	-1	0	0	0	0	0.0000000000E+00	0.0000000000E+00	-6.5000000000E+03	6.5000000000E+03	9.3827000000E-01	0.000E+00	0.0
	2212	1	0	0	0	0	0.0000000000E+00	0.0000000000E+00	5.8409607893E+03	5.8409607893E+03	9.3827000000E-01	0.000E+00	0.0
	2212	1	0	0	0	0	0.0000000000E+00	0.0000000000E+00	-6.0801899660E+03	6.0801899660E+03	9.3827000000E-01	0.000E+00	0.0
	51	2	1	2	0	0	-1.4409086349E+02	2.0191332713E+01	2.3185765514E+02	1.0870202082E+03	1.0519910141E+03	0.000E+00	0.0
	1000022	2	5	5	0	0	1.4409086349E+02	-2.0191332713E+01	2.0518760247E+02	8.8391808900E+02	8.4737203694E+02	0.000E+00	0.0
	14	1	6	6	0	0	-9.3179895039E+01	1.2603995130E+02	-7.9873698915E+01	3.6955834444E+02	3.2500000000E+02	0.000E+00	0.0
	-14	1	6	6	0	0	2.3727075852E+02	-1.4623128401E+02	2.8506130139E+02	5.1435974456E+02	3.2500000000E+02	0.000E+00	0.0
	25	2	5	5	0	0	-1.4409086349E+02	2.0191332713E+01	3.4041574188E+01	1.9493115570E+02	1.2517771301E+02	0.000E+00	0.0
	-5	1	9	9	0	501	-1.6321330168E+02	3.1035080661E+01	4.1589974967E+01	1.7131537144E+02	4.1800000000E+00	0.000E+00	0.0
	5	1	9	9	501	0	1.9122438189E+01	-1.0843747948E+01	-7.5484007794E+00	2.3615784259E+01	4.1800000000E+00	0.000E+00	0.0
</event>
<event>
    11  -1  1.0000000E+00  1.0000000E+00  -1.0000000E+00  -1.0000000E+00
	2212	-1	0	0	0	0	0.0000000000E+00	0.0000000000E+00	6.5000000000E+03	6.5000000000E+03	9.3827000000E-01	0.000E+00	0.0
	2212	-1	0	0	0	0	0.0000000000E+00	0.0000000000E+00	-6.5000000000E+03	6.5000000000E+03	9.3827000000E-01	0.000E+00	0.0
	2212	1	0	0	0	0	0.0000000000E+00	0.0000000000E+00	5.2900226586E+03	5.2900226586E+03	9.3827000000E-01	0.000E+00	0.0
	2212	1	0	0	0	0	0.0000000000E+00	0.0000000000E+00	-6.2709538559E+03	6.2709538559E+03	9.3827000000E-01	0.000E+00	0.0
	51	2	1	2	0	0	-4.5240105613E+01	-7.2593081226E+01	1.1514699151E+03	1.5626138250E+03	1.0528829840E+03	0.000E+00	0.0
	1000022	2	5	5	0	0	4.5240105613E+01	7.2593081226E+01	6.4079726346E+02	1.0666374104E+03	8.4839720045E+02	0.000E+00	0.0
	14	1	6	6	0	0	-2.0189080950E+02	4.7803710352E+01	1.1879376036E+02	4.0346257718E+02	3.2500000000E+02	0.000E+00	0.0
	-14	1	6	6	0	0	2.4713091512E+02	2.4789370873E+01	5.2200350310E+02	6.6317483318E+02	3.2500000000E+02	0.000E+00	0.0
	25	2	5	5	0	0	-4.5240105613E+01	-7.2593081226E+01	3.4013393383E+02	3.7238607511E+02	1.2515539700E+02	0.000E+00	0.0
	-5	1	9	9	0	501	2.7794357378E+01	-4.8054862948E+01	2.3776019453E+02	2.4419086522E+02	4.1800000000E+00	0.000E+00	0.0
	5	1	9	9	501	0	-7.3034462991E+01	-2.4538218277E+01	1.0237373930E+02	1.2819520989E+02	4.1800000000E+00	0.000E+00	0.0
</event>
<event>
    11  -1  1.0000000E+00  1.0000000E+00  -1.0000000E+00  -1.0000000E+00
	2212	-1	0	0	0	0	0.0000000000E+00	0.0000000000E+00	6.5000000000E+03	6.5000000000E+03	9.3827000000E-01	0.000E+00	0.0
	2212	-1	0	0	0	0	0.0000000000E+00	0.0000000000E+00	-6.5000000000E+03	6.5000000000E+03	9.3827000000E-01	0.000E+00	0.0
	2212	1	0	0	0	0	0.0000000000E+00	0.0000000000E+00	6.2558604434E+03	6.2558604434E+03	9.3827000000E-01	0.000E+00	0.0
	2212	1	0	0	0	0	0.0000000000E+00	0.0000000000E+00	-5.3699411318E+03	5.3699411318E+03	9.3827000000E-01	0.000E+00	0.0
	51	2	1	2	0	0	-2.5617636150E+01	1.0167819609E+01	-1.0325065245E+03	1.4732269531E+03	1.0505085836E+03	0.000E+00	0.0
	1000022	2	5	5	0	0	2.5617636150E+01	-1.0167819609E+01	-6.0284124372E+02	1.0634513853E+03	8.7564355532E+02	0.000E+00	0.0
	14	1	6	6	0	0	9.4204891912E+01	-2.8469266869E+02	-2.6172397509E+02	5.1385690265E+02	3.2500000000E+02	0.000E+00	0.0
	-14	1	6	6	0	0	-6.8587255762E+01	2.7452484909E+02	-3.4111726863E+02	5.4959448267E+02	3.2500000000E+02	0.000E+00	0.0
	25	2	5	5	0	0	-2.5617636150E+01	1.0167819609E+01	-2.8307806783E+02	3.1074703952E+02	1.2518339444E+02	0.000E+00	0.0
	-5	1	9	9	0	501	-3.4877551619E+01	3.9313637918E+01	-4.1205918795E+01	6.6913420754E+01	4.1800000000E+00	0.000E+00	0.0
	5	1	9	9	501	0	9.2599154690E+00	-2.9145818309E+01	-2.4187214904E+02	2.4383361876E+02	4.1800000000E+00	0.000E+00	0.0
</event>
<event>
    11  -1  1.0000000E+00  1.0000000E+00  -1.0000000E+00  -1.0000000E+00
	2212	-1	0	0	0	0	0.0000000000E+00	0.0000000000E+00	6.5000000000E+03	6.5000000000E+03	9.3827000000E-01	0.000E+00	0.0
	2212	-1	0	0	0	0	0.0000000000E+00	0.0000000000E+00	-6.5000000000E+03	6.5000000000E+03	9.3827000000E-01	0.000E+00	0.0
	2212	1	0	0	0	0	0.0000000000E+00	0.0000000000E+00	6.2070834353E+03	6.2070834353E+03	9.3827000000E-01	0.000E+00	0.0
	2212	1	0	0	0	0	0.0000000000E+00	0.0000000000E+00	-5.5790094836E+03	5.5790094836E+03	9.3827000000E-01	0.000E+00	0.0
	51	2	1	2	0	0	1.1586389551E+02	2.5832992847E+01	-5.7318268857E+02	1.1923605549E+03	1.0387942590E+03	0.000E+00	0.0
	1000022	2	5	5	0	0	-1.1586389551E+02	-2.5832992847E+01	-5.7901659834E+02	1.0345473902E+03	8.4907967566E+02	0.000E+00	0.0
	14	1	6	6	0	0	-1.0210219452E+02	-5.3417133916E+01	-6.1605570770E+02	7.0599425162E+02	3.2500000000E+02	0.000E+00	0.0
	-14	1	6	6	0	0	-1.3761700993E+01	2.7584141069E+01	3.7039109364E+01	3.2855313859E+02	3.2500000000E+02	0.000E+00	0.0
	25	2	5	5	0	0	1.1586389551E+02	2.5832992847E+01	-4.9057353354E+01	1.7935969081E+02	1.2518581776E+02	0.000E+00	0.0
	-5	1	9	9	0	501	1.2363472657E+02	-1.1377120682E+01	-6.2191231376E+01	1.3892518184E+02	4.1800000000E+00	0.000E+00	0.0
	5	1	9	9	501	0	-7.7708310572E+00	3.7210113529E+01	1.3133878021E+01	4.0434508975E+01	4.1800000000E+00	0.000E+00	0.0
</event>
<event>
    11  -1  1.0000000E+00  1.0000000E+00  -1.0000000E+00  -1.0000000E+00
	2212	-1	0	0	0	0	0.0000000000E+00	0.0000000000E+00	6.5000000000E+03	6.5000000000E+03	9.3827000000E-01	0.000E+00	0.0
	2212	-1	0	0	0	0	0.0000000000E+00	0.0000000000E+00	-6.5000000000E+03	6.5000000000E+03	9.3827000000E-01	0.000E+00	0.0
	2212	1	0	0	0	0	0.0000000000E+00	0.0000000000E+00	5.8942507425E+03	5.8942507425E+03	9.3827000000E-01	0.000E+00	0.0
	2212	1	0	0	0	0	0.0000000000E+00	0.0000000000E+00	-6.0640557710E+03	6.0640557710E+03	9.3827000000E-01	0.000E+00	0.0
	51	2	1	2	0	0	1.0819636898E+02	-1.2810553957E+01	1.3733301382E+02	1.0426037087E+03	1.0277604644E+03	0.000E+00	0.0
	1000022	2	5	5	0	0	-1.0819636898E+02	1.2810553957E+01	1.7535702823E+02	8.7563854256E+02	8.5095370339E+02	0.000E+00	0.0
	14	1	6	6	0	0	-6.5246335197E+01	-2.2776956075E+02	2.3320354751E+02	4.6491391852E+02	3.2500000000E+02	0.000E+00	0.0
	-14	1	6	6	0	0	-4.2950033787E+01	2.4058011471E+02	-5.7846519281E+01	4.1072462404E+02	3.2500000000E+02	0.000E+00	0.0
	25	2	5	5	0	0	1.0819636898E+02	-1.2810553957E+01	-5.5519997561E+00	1.6605494395E+02	1.2519127427E+02	0.000E+00	0.0
	-5	1	9	9	0	501	3.3544765760E+01	-1.0693443927E+01	-6.2627770905E+01	7.1967431116E+01	4.1800000000E+00	0.000E+00	0.0
	5	1	9	9	501	0	7.4651603224E+01	-2.1171100309E+00	5.7075771149E+01	9.4087512832E+01	4.1800000000E+00	0.000E+00	0.0
</event>
<event>
    11  -1  1.0000000E+00  1.0000000E+00  -1.0000000E+00  -1.0000000E+00
	2212	-1	0	0	0	0	0.0000000000E+00	0.0000000000E+00	6.5000000000E+03	6.5000000000E+03	9.3827000000E-01	0.000E+00	0.0
	2212	-1	0	0	0	0	0.0000000000E+00	0.0000000000E+00	-6.5000000000E+03	6.5000000000E+03	9.3827000000E-01	0.000E+00	0.0
	2212	1	0	0	0	0	0.0000000000E+00	0.0000000000E+00	6.0388754557E+03	6.0388754557E+03	9.3827000000E-01	0.000E+00	0.0
	2212	1	0	0	0	0	0.0000000000E+00	0.0000000000E+00	-5.9164964983E+03	5.9164964983E+03	9.3827000000E-01	0.000E+00	0.0
	51	2	1	2	0	0	-9.2850201225E+01	-6.8244469972E+01	-1.0788959712E+02	1.0493758993E+03	1.0374348873E+03	0.000E+00	0.0
	1000022	2	5	5	0	0	9.2850201225E+01	6.8244469972E+01	-1.1748442488E+02	8.7441908246E+02	8.5879431422E+02	0.000E+00	0.0
	14	1	6	6	0	0	-2.1379716954E+02	1.3768146308E+02	-2.9253949580E+01	4.1369820950E+02	3.2500000000E+02	0.000E+00	0.0
	-14	1	6	6	0	0	3.0664737076E+02	-6.9436993113E+01	-8.8230475302E+01	4.6072087296E+02	3.2500000000E+02	0.000E+00	0.0
	25	2	5	5	0	0	-9.2850201225E+01	-6.8244469972E+01	-4.8945325764E+00	1.7020896355E+02	1.2517454723E+02	0.000E+00	0.0
	-5	1	9	9	0	501	-9.2655229247E+01	-7.8699709062E+01	3.6749255771E+01	1.2706933506E+02	4.1800000000E+00	0.000E+00	0.0
	5	1	9	9	501	0	-1.9497197850E-01	1.0455239090E+01	-4.1643788347E+01	4.3139628491E+01	4.1800000000E+00	0.000E+00	0.0
</event>
<event>
    11  -1  1.0000000E+00  1.0000000E+00  -1.0000000E+00  -1.0000000E+00
	2212	-1	0	0	0	0	0.0000000000E+00	0.0000000000E+00	6.5000000000E+03	6.5000000000E+03	9.3827000000E-01	0.000E+00	0.0
	2212	-1	0	0	0	0	0.0000000000E+00	0.0000000000E+00	-6.5000000000E+03	6.5000000000E+03	9.3827000000E-01	0.000E+00	0.0
	2212	1	0	0	0	0	0.0000000000E+00	0.0000000000E+00	5.2060978819E+03	5.2060978819E+03	9.3827000000E-01	0.000E+00	0.0
	2212	1	0	0	0	0	0.0000000000E+00	0.0000000000E+00	-6.2868957227E+03	6.2868957227E+03	9.3827000000E-01	0.000E+00	0.0
	51	2	1	2	0	0	-6.0076885780E+01	-2.1110077976E+01	9.0205152284E+02	1.3858918142E+03	1.0502115516E+03	0.000E+00	0.0
	1000022	2	5	5	0	0	6.0076885780E+01	2.1110077976E+01	1.0717507806E+03	1.3662719876E+03	8.4498197659E+02	0.000E+00	0.0
	14	1	6	6	0	0	1.7129882334E+02	-1.4059526203E+02	8.2356711686E+02	9.1268730163E+02	3.2500000000E+02	0.000E+00	0.0
	-14	1	6	6	0	0	-1.1122193756E+02	1.6170534000E+02	2.4818366369E+02	4.5358468592E+02	3.2500000000E+02	0.000E+00	0.0
	25	2	5	5	0	0	-6.0076885780E+01	-2.1110077976E+01	9.0470602864E+00	1.4073440788E+02	1.2517770035E+02	0.000E+00	0.0
	-5	1	9	9	0	501	-9.8064291570E+01	-3.5590103362E+00	9.5145776045E+00	9.8677613584E+01	4.1800000000E+00	0.000E+00	0.0
	5	1	9	9	501	0	3.7987405790E+01	-1.7551067639E+01	-4.6751731806E-01	4.2056794295E+01	4.1800000000E+00	0.000E+00	0.0
</event>
<event>
    11  -1  1.0000000E+00  1.0000000E+00  -1.0000000E+00  -1.0000000E+00
	2212	-1	0	0	0	0	0.0000000000E+00	0.0000000000E+00	6.5000000000E+03	6.5000000000E+03	9.3827000000E-01	0.000E+00	0.0
	2212	-1	0	0	0	0	0.0000000000E+00	0.0000000000E+00	-6.5000000000E+03	6.5000000000E+03	9.3827000000E-01	0.000E+00	0.0
	2212	1	0	0	0	0	0.0000000000E+00	0.0000000000E+00	5.5730009659E+03	5.5730009659E+03	9.3827000000E-01	0.000E+00	0.0
	2212	1	0	0	0	0	0.0000000000E+00	0.0000000000E+00	-6.2013882932E+03	6.2013882932E+03	9.3827000000E-01	0.000E+00	0.0
	51	2	1	2	0	0	2.8701629872E+01	-1.1216910021E+02	7.3359884250E+02	1.2879534182E+03	1.0522599751E+03	0.000E+00	0.0
	1000022	2	5	5	0	0	-2.8701629872E+01	1.1216910021E+02	4.1515527683E+02	9.5258410723E+02	8.4950390633E+02	0.000E+00	0.0
	14	1	6	6	0	0	2.5480826081E+02	8.8697487904E+01	1.6519707123E+02	4.5355216512E+02	3.2500000000E+02	0.000E+00	0.0
	-14	1	6	6	0	0	-2.8350989068E+02	2.3471612308E+01	2.4995820560E+02	4.9903194211E+02	3.2500000000E+02	0.000E+00	0.0
	25	2	5	5	0	0	2.8701629872E+01	-1.1216910021E+02	2.1323205047E+02	2.7302663370E+02	1.2517964995E+02	0.000E+00	0.0
	-5	1	9	9	0	501	3.2791901927E+01	-8.1953946934E+01	3.9858864851E+01	9.6943074829E+01	4.1800000000E+00	0.000E+00	0.0
	5	1	9	9	501	0	-4.0902720557E+00	-3.0215153278E+01	1.7337318562E+02	1.7608355888E+02	4.1800000000E+00	0.000E+00	0.0
</event>
<event>
    11  -1  1.0000000E+00  1.0000000E+00  -1.0000000E+00  -1.0000000E+00
	2212	-1	0	0	0	0	0.0000000000E+00	0.0000000000E+00	6.5000000000E+03	6.5000000000E+03	9.3827000000E-01	0.000E+00	0.0
	2212	-1	0	0	0	0	0.0000000000E+00	0.0000000000E+00	-6.5000000000E+03	6.5000000000E+03	9.3827000000E-01	0.000E+00	0.0
	2212	1	0	0	0	0	0.0000000000E+00	0.0000000000E+00	6.2529682752E+03	6.2529682752E+03	9.3827000000E-01	0.000E+00	0.0
	2212	1	0	0	0	0	0.0000000000E+00	0.0000000000E+00	-5.4170914925E+03	5.4170914925E+03	9.3827000000E-01	0.000E+00	0.0
	51	2	1	2	0	0	-1.1076789109E+01	1.0320452433E+02	-7.6264988137E+02	1.2893640822E+03	1.0344327072E+03	0.000E+00	0.0
	1000022	2	5	5	0	0	1.1076789109E+01	-1.0320452433E+02	-7.7431894765E+02	1.1560641483E+03	8.5213884622E+02	0.000E+00	0.0
	14	1	6	6	0	0	-4.9609291224E+00	-1.6907464074E+02	-6.3919685934E+01	3.7191608087E+02	3.2500000000E+02	0.000E+00	0.0
	-14	1	6	6	0	0	1.6037718231E+01	6.5870116411E+01	-7.1039926171E+02	7.8414806745E+02	3.2500000000E+02	0.000E+00	0.0
	25	2	5	5	0	0	-1.1076789109E+01	1.0320452433E+02	-6.1557835010E+01	1.7387608399E+02	1.2517849828E+02	0.000E+00	0.0
	-5	1	9	9	0	501	-1.8995150015E+01	1.3120312665E+02	-4.4570952652E+01	1.3992540294E+02	4.1800000000E+00	0.000E+00	0.0
	5	1	9	9	501	0	7.9183609068E+00	-2.7998602322E+01	-1.6986882357E+01	3.3950681049E+01	4.1800000000E+00	0.000E+00	0.0
</event>
<event>
    11  -1  1.0000000E+00  1.0000000E+00  -1.0000000E+00  -1.0000000E+00
	2212	-1	0	0	0	0	0.0000000000E+00	0.0000000000E+00	6.5000000000E+03	6.5000000000E+03	9.3827000000E-01	0.000E+00	0.0
	2212	-1	0	0	0	0	0.0000000000E+00	0.0000000000E+00	-6.5000000000E+03	6.5000000000E+03	9.3827000000E-01	0.000E+00	0.0
	2212	1	0	0	0	0	0.0000000000E+00	0.0000000000E+00	6.3234313256E+03	6.3234313256E+03	9.3827000000E-01	0.000E+00	0.0
	2212	1	0	0	0	0	0.0000000000E+00	0.0000000000E+00	-4.9493815997E+03	4.9493815997E+03	9.3827000000E-01	0.000E+00	0.0
	51	2	1	2	0	0	-1.1171379467E+02	-6.2356009965E+01	-1.2532140215E+03	1.6377045427E+03	1.0465001394E+03	0.000E+00	0.0
	1000022	2	5	5	0	0	1.1171379467E+02	6.2356009965E+01	-1.2508405426E+03	1.5099040160E+03	8.3596640517E+02	0.000E+00	0.0
	14	1	6	6	0	0	1.6561700305E+02	-2.0313065563E+02	-7.0399812805E+02	8.1849216200E+02	3.2500000000E+02	0.000E+00	0.0
	-14	1	6	6	0	0	-5.3903208371E+01	2.6548666560E+02	-5.4684241454E+02	6.9141185398E+02	3.2500000000E+02	0.000E+00	0.0
	25	2	5	5	0	0	-1.1171379467E+02	-6.2356009965E+01	-1.2320918336E+02	2.1728305873E+02	1.2515263021E+02	0.000E+00	0.0
	-5	1	9	9	0	501	-5.3788774881E+01	-5.8812082471E+01	1.3322411330E+00	7.9820677862E+01	4.1800000000E+00	0.000E+00	0.0
	5	1	9	9	501	0	-5.7925019793E+01	-3.5439274942E+00	-1.2454142449E+02	1.3746238087E+02	4.1800000000E+00	0.000E+00	0.0
</event>
<event>
    11  -1  1.0000000E+00  1.0000000E+00  -1.0000000E+00  -1.0000000E+00
	2212	-1	0	0	0	0	0.0000000000E+00	0.0000000000E+00	6.5000000000E+03	6.5000000000E+03	9.3827000000E-01	0.000E+00	0.0
	2212	-1	0	0	0	0	0.0000000000E+00	0.0000000000E+00	-6.5000000000E+03	6.5000000000E+03	9.3827000000E-01	0.000E+00	0.0
	2212	1	0	0	0	0	0.0000000000E+00	0.0000000000E+00	5.8205458190E+03	5.8205458190E+03	9.3827000000E-01	0.000E+00	0.0
	2212	1	0	0	0	0	0.0000000000E+00	0.0000000000E+00	-6.0998860045E+03	6.0998860045E+03	9.3827000000E-01	0.000E+00	0.0
	51	2	1	2	0	0	7.6264559101E+01	-7.5984089822E+00	3.8734372529E+02	1.1150541192E+03	1.0428022384E+03	0.000E+00	0.0
	1000022	2	5	5	0	0	-7.6264559101E+01	7.5984089822E+00	1.2549866306E+02	8.6693182781E+02	8.5436927663E+02	0.000E+00	0.0
	14	1	6	6	0	0	1.6250318990E+02	4.0167537442E+01	-1.3047812946E+02	3.8816267216E+02	3.2500000000E+02	0.000E+00	0.0
	-14	1	6	6	0	0	-2.3876774900E+02	-3.2569128460E+01	2.5597679253E+02	4.7876915565E+02	3.2500000000E+02	0.000E+00	0.0
	25	2	5	5	0	0	7.6264559101E+01	-7.5984089822E+00	1.5384152239E+02	2.1263634865E+02	1.2519178872E+02	0.000E+00	0.0
	-5	1	9	9	0	501	1.1091141270E+02	-2.5214421510E+00	1.2402612456E+02	1.6645615372E+02	4.1800000000E+00	0.000E+00	0.0
	5	1	9	9	501	0	-3.4646853596E+01	-5.0769668312E+00	2.9815397835E+01	4.6180194936E+01	4.1800000000E+00	0.000E+00	0.0
</event>
<event>
    11  -1  1.0000000E+00  1.0000000E+00  -1.0000000E+00  -1.0000000E+00
	2212	-1	0	0	0	0	0.0000000000E+00	0.0000000000E+00	6.5000000000E+03	6.5000000000E+03	9.3827000000E-01	0.000E+00	0.0
	2212	-1	0	0	0	0	0.0000000000E+00	0.0000000000E+00	-6.5000000000E+03	6.5000000000E+03	9.3827000000E-01	0.000E+00	0.0
	2212	1	0	0	0	0	0.0000000000E+00	0.0000000000E+00	5.5732331601E+03	5.5732331601E+03	9.3827000000E-01	0.000E+00	0.0
	2212	1	0	0	0	0	0.0000000000E+00	0.0000000000E+00	-6.2025919235E+03	6.2025919235E+03	9.3827000000E-01	0.000E+00	0.0
	51	2	1	2	0	0	-1.2776589503E+01	1.0419096876E+02	7.3755387128E+02	1.2874457213E+03	1.0500056061E+03	0.000E+00	0.0
	1000022	2	5	5	0	0	1.2776589503E+01	-1.0419096876E+02	4.1522202033E+02	9.5483549087E+02	8.5339468550E+02	0.000E+00	0.0
	14	1	6	6	0	0	-2.8183243028E+01	-1.7986715057E+02	-5.5239337740E+01	3.7659377514E+02	3.2500000000E+02	0.000E+00	0.0
	-14	1	6	6	0	0	4.0959832531E+01	7.5676181810E+01	4.7046135807E+02	5.7824171573E+02	3.2500000000E+02	0.000E+00	0.0
	25	2	5	5	0	0	-1.2776589503E+01	1.0419096876E+02	2.1413674301E+02	2.6933942552E+02	1.2518059842E+02	0.000E+00	0.0
	-5	1	9	9	0	501	-1.1781011521E+01	6.2492829641E+01	1.4513703541E+01	6.5362573232E+01	4.1800000000E+00	0.000E+00	0.0
	5	1	9	9	501	0	-9.9557798190E-01	4.1698139114E+01	1.9962303947E+02	2.0397685229E+02	4.1800000000E+00	0.000E+00	0.0
</event>
<event>
    11  -1  1.0000000E+00  1.0000000E+00  -1.0000000E+00  -1.0000000E+00
	2212	-1	0	0	0	0	0.0000000000E+00	0.0000000000E+00	6.5000000000E+03	6.5000000000E+03	9.3827000000E-01	0.000E+00	0.0
	2212	-1	0	0	0	0	0.0000000000E+00	0.0000000000E+00	-6.5000000000E+03	6.5000000000E+03	9.3827000000E-01	0.000E+00	0.0
	2212	1	0	0	0	0	0.0000000000E+00	0.0000000000E+00	6.2859633819E+03	6.2859633819E+03	9.3827000000E-01	0.000E+00	0.0
	2212	1	0	0	0	0	0.0000000000E+00	0.0000000000E+00	-5.0292772709E+03	5.0292772709E+03	9.3827000000E-01	0.000E+00	0.0
	51	2	1	2	0	0	1.2634065265E+02	1.0346478149E+02	-1.0754372177E+03	1.5628135548E+03	1.1221203485E+03	0.000E+00	0.0
	1000022	2	5	5	0	0	-1.2634065265E+02	-1.0346478149E+02	-1.1842583281E+03	1.4666169126E+03	8.4960606110E+02	0.000E+00	0.0
	14	1	6	6	0	0	-3.0068042652E+02	-7.2362447942E+01	-4.0701371789E+02	6.0574764491E+02	3.2500000000E+02	0.000E+00	0.0
	-14	1	6	6	0	0	1.7433977387E+02	-3.1102333547E+01	-7.7724461023E+02	8.6086926768E+02	3.2500000000E+02	0.000E+00	0.0
	25	2	5	5	0	0	1.2634065265E+02	1.0346478149E+02	-7.2427782864E+01	2.1814243460E+02	1.2519351629E+02	0.000E+00	0.0
	-5	1	9	9	0	501	9.1354590639E+01	3.4535038655E+01	-9.6211037228E+01	1.3715817952E+02	4.1800000000E+00	0.000E+00	0.0
	5	1	9	9	501	0	3.4986062013E+01	6.8929742834E+01	2.3783254364E+01	8.0984255077E+01	4.1800000000E+00	0.000E+00	0.0
</event>
<event>
    11  -1  1.0000000E+00  1.0000000E+00  -1.0000000E+00  -1.0000000E+00
	2212	-1	0	0	0	0	0.0000000000E+00	0.0000000000E+00	6.5000000000E+03	6.5000000000E+03	9.3827000000E-01	0.000E+00	0.0
	2212	-1	0	0	0	0	0.0000000000E+00	0.0000000000E+00	-6.5000000000E+03	6.5000000000E+03	9.3827000000E-01	0.000E+00	0.0
	2212	1	0	0	0	0	0.0000000000E+00	0.0000000000E+00	6.1199666383E+03	6.1199666383E+03	9.3827000000E-01	0.000E+00	0.0
	2212	1	0	0	0	0	0.0000000000E+00	0.0000000000E+00	-5.7827935295E+03	5.7827935295E+03	9.3827000000E-01	0.000E+00	0.0
	51	2	1	2	0	0	-1.5773503826E+00	1.2065379787E+02	-2.8666455446E+02	1.0894888425E+03	1.0441501540E+03	0.000E+00	0.0
	1000022	2	5	5	0	0	1.5773503826E+00	-1.2065379787E+02	-3.3184549594E+02	9.2328692875E+02	8.5309875903E+02	0.000E+00	0.0
	14	1	6	6	0	0	-2.6774542019E+02	-1.0761863802E+02	-2.1632626178E+02	4.8548062043E+02	3.2500000000E+02	0.000E+00	0.0
	-14	1	6	6	0	0	2.6932277057E+02	-1.3035159853E+01	-1.1551923417E+02	4.3780630832E+02	3.2500000000E+02	0.000E+00	0.0
	25	2	5	5	0	0	-1.5773503826E+00	1.2065379787E+02	-5.3276127653E+00	1.7395290344E+02	1.2518547113E+02	0.000E+00	0.0
	-5	1	9	9	0	501	3.4842899569E+01	1.2480902216E+02	1.7108143493E+01	1.3077262954E+02	4.1800000000E+00	0.000E+00	0.0
	5	1	9	9	501	0	-3.6420249951E+01	-4.1552242851E+00	-2.2435756259E+01	4.3180273902E+01	4.1800000000E+00	0.000E+00	0.0
</event>
<event>
    11  -1  1.0000000E+00  1.0000000E+00  -1.0000000E+00  -1.0000000E+00
	2212	-1	0	0	0	0	0.0000000000E+00	0.0000000000E+00	6.5000000000E+03	6.5000000000E+03	9.3827000000E-01	0.000E+00	0.0
	2212	-1	0	0	0	0	0.0000000000E+00	0.0000000000E+00	-6.5000000000E+03	6.5000000000E+03	9.3827000000E-01	0.000E+00	0.0
	2212	1	0	0	0	0	0.0000000000E+00	0.0000000000E+00	4.9845219739E+03	4.9845219739E+03	9.3827000000E-01	0.000E+00	0.0
	2212	1	0	0	0	0	0.0000000000E+00	0.0000000000E+00	-6.3188371426E+03	6.3188371426E+03	9.3827000000E-01	0.000E+00	0.0
	51	2	1	2	0	0	-8.1976161726E+01	5.4863161482E+01	1.5420472289E+03	1.8670385727E+03	1.0479471925E+03	0.000E+00	0.0
	1000022	2	5	5	0	0	8.1976161726E+01	-5.4863161482E+01	8.8754838166E+02	1.2222999434E+03	8.3459269369E+02	0.000E+00	0.0
	14	1	6	6	0	0	2.5522663836E+02	-7.2328017509E+01	2.5734625894E+02	4.9216265201E+02	3.2500000000E+02	0.000E+00	0.0
	-14	1	6	6	0	0	-1.7325047663E+02	1.7464856027E+01	6.3020212272E+02	7.3013729142E+02	3.2500000000E+02	0.000E+00	0.0
	25	2	5	5	0	0	-8.1976161726E+01	5.4863161482E+01	4.4676678701E+02	4.7434094007E+02	1.2517470938E+02	0.000E+00	0.0
	-5	1	9	9	0	501	-7.5417720503E+00	3.4268158294E+01	1.9962420332E+01	4.0585165074E+01	4.1800000000E+00	0.000E+00	0.0
	5	1	9	9	501	0	-7.4434389676E+01	2.0595003187E+01	4.2680436668E+02	4.3375577499E+02	4.1800000000E+00	0.000E+00	0.0
</event>
<event>
    11  -1  1.0000000E+00  1.0000000E+00  -1.0000000E+00  -1.0000000E+00
	2212	-1	0	0	0	0	0.0000000000E+00	0.0000000000E+00	6.5000000000E+03	6.5000000000E+03	9.3827000000E-01	0.000E+00	0.0
	2212	-1	0	0	0	0	0.0000000000E+00	0.0000000000E+00	-6.5000000000E+03	6.5000000000E+03	9.3827000000E-01	0.000E+00	0.0
	2212	1	0	0	0	0	0.0000000000E+00	0.0000000000E+00	5.2643433109E+03	5.2643433109E+03	9.3827000000E-01	0.000E+00	0.0
	2212	1	0	0	0	0	0.0000000000E+00	0.0000000000E+00	-6.2827434251E+03	6.2827434251E+03	9.3827000000E-01	0.000E+00	0.0
	51	2	1	2	0	0	-1.2939146344E+02	1.0921917416E+00	1.0104753101E+03	1.4531420633E+03	1.0362519771E+03	0.000E+00	0.0
	1000022	2	5	5	0	0	1.2939146344E+02	-1.0921917416E+00	8.5701447316E+02	1.2111355998E+03	8.4595052472E+02	0.000E+00	0.0
	14	1	6	6	0	0	1.0528203718E+02	-1.9084586075E+02	7.0140392816E+02	8.0318050297E+02	3.2500000000E+02	0.000E+00	0.0
	-14	1	6	6	0	0	2.4109426261E+01	1.8975366901E+02	1.5561054500E+02	4.0795509686E+02	3.2500000000E+02	0.000E+00	0.0
	25	2	5	5	0	0	-1.2939146344E+02	1.0921917416E+00	1.6138564111E+02	2.4177766417E+02	1.2517096325E+02	0.000E+00	0.0
	-5	1	9	9	0	501	-1.0571262556E+02	-5.4067266826E+00	3.2935921853E+01	1.1093529305E+02	4.1800000000E+00	0.000E+00	0.0
	5	1	9	9	501	0	-2.3678837886E+01	6.4989184242E+00	1.2844971925E+02	1.3084237112E+02	4.1800000000E+00	0.000E+00	0.0
</event>
<event>
    11  -1  1.0000000E+00  1.0000000E+00  -1.0000000E+00  -1.0000000E+00
	2212	-1	0	0	0	0	0.0000000000E+00	0.0000000000E+00	6.5000000000E+03	6.5000000000E+03	9.3827000000E-01	0.000E+00	0.0
	2212	-1	0	0	0	0	0.0000000000E+00	0.0000000000E+00	-6.5000000000E+03	6.5000000000E+03	9.3827000000E-01	0.000E+00	0.0
	2212	1	0	0	0	0	0.0000000000E+00	0.0000000000E+00	6.2838921731E+03	6.2838921731E+03	9.3827000000E-01	0.000E+00	0.0
	2212	1	0	0	0	0	0.0000000000E+00	0.0000000000E+00	-5.0515793129E+03	5.0515793129E+03	9.3827000000E-01	0.000E+00	0.0
	51	2	1	2	0	0	-2.7394087150E+01	-1.8402408817E+02	-1.1029998032E+03	1.5821769989E+03	1.1189549538E+03	0.000E+00	0.0
	1000022	2	5	5	0	0	2.7394087150E+01	1.8402408817E+02	-1.1123947282E+03	1.4102346578E+03	8.4659580538E+02	0.000E+00	0.0
	14	1	6	6	0	0	1.9101668727E+02	-1.1444169782E+02	-5.5733809203E+02	6.8252108088E+02	3.2500000000E+02	0.000E+00	0.0
	-14	1	6	6	0	0	-1.6362260012E+02	2.9846578598E+02	-5.5505663618E+02	7.2771357692E+02	3.2500000000E+02	0.000E+00	0.0
	25	2	5	5	0	0	-2.7394087150E+01	-1.8402408817E+02	-1.1991813199E+02	2.5429385627E+02	1.2517869595E+02	0.000E+00	0.0
	-5	1	9	9	0	501	2.3511077147E+01	-1.3000687395E+02	-1.2206413858E+02	1.7992132823E+02	4.1800000000E+00	0.000E+00	0.0
	5	1	9	9	501	0	-5.0905164297E+01	-5.4017214214E+01	2.1460065848E+00	7.4372528045E+01	4.1800000000E+00	0.000E+00	0.0
</event>
<event>
    11  -1  1.0000000E+00  1.0000000E+00  -1.0000000E+00  -1.0000000E+00
	2212	-1	0	0	0	0	0.0000000000E+00	0.0000000000E+00	6.5000000000E+03	6.5000000000E+03	9.3827000000E-01	0.000E+00	0.0
	2212	-1	0	0	0	0	0.0000000000E+00	0.0000000000E+00	-6.5000000000E+03	6.5000000000E+03	9.3827000000E-01	0.000E+00	0.0
	2212	1	0	0	0	0	0.0000000000E+00	0.0000000000E+00	5.3993168616E+03	5.3993168616E+03	9.3827000000E-01	0.000E+00	0.0
	2212	1	0	0	0	0	0.0000000000E+00	0.0000000000E+00	-6.2544595472E+03	6.2544595472E+03	9.3827000000E-01	0.000E+00	0.0
	51	2	1	2	0	0	-1.3431245189E+01	1.9248405596E+01	8.5350784104E+02	1.3453904560E+03	1.0397350359E+03	0.000E+00	0.0
	1000022	2	5	5	0	0	1.3431245189E+01	-1.9248405596E+01	7.5222162343E+02	1.1824577296E+03	9.1204057594E+02	0.000E+00	0.0
	14	1	6	6	0	0	-1.3336577266E+02	-2.9640341279E+02	4.0780320857E+02	6.1446714261E+02	3.2500000000E+02	0.000E+00	0.0
	-14	1	6	6	0	0	1.4679701785E+02	2.7715500719E+02	3.4441841486E+02	5.6799058703E+02	3.2500000000E+02	0.000E+00	0.0
	25	2	5	5	0	0	-1.3431245189E+01	1.9248405596E+01	1.0292106216E+02	1.6376586161E+02	1.2520228802E+02	0.000E+00	0.0
	-5	1	9	9	0	501	5.1708674424E+01	2.8528614354E+01	3.3494655720E+01	6.8022299354E+01	4.1800000000E+00	0.000E+00	0.0
	5	1	9	9	501	0	-6.5139919613E+01	-9.2802087571E+00	6.9426406439E+01	9.5743562253E+01	4.1800000000E+00	0.000E+00	0.0
</event>
<event>
    11  -1  1.0000000E+00  1.0000000E+00  -1.0000000E+00  -1.0000000E+00
	2212	-1	0	0	0	0	0.0000000000E+00	0.0000000000E+00	6.5000000000E+03	6.5000000000E+03	9.3827000000E-01	0.000E+00	0.0
	2212	-1	0	0	0	0	0.0000000000E+00	0.0000000000E+00	-6.5000000000E+03	6.5000000000E+03	9.3827000000E-01	0.000E+00	0.0
	2212	1	0	0	0	0	0.0000000000E+00	0.0000000000E+00	5.7087410573E+03	5.7087410573E+03	9.3827000000E-01	0.000E+00	0.0
	2212	1	0	0	0	0	0.0000000000E+00	0.0000000000E+00	-6.1681484400E+03	6.1681484400E+03	9.3827000000E-01	0.000E+00	0.0
	51	2	1	2	0	0	-1.0657546798E+01	2.4435489275E+01	4.3192863004E+02	1.1124725057E+03	1.0248522128E+03	0.000E+00	0.0
	1000022	2	5	5	0	0	1.0657546798E+01	-2.4435489275E+01	4.2869724346E+02	9.9149446120E+02	8.9362702712E+02	0.000E+00	0.0
	14	1	6	6	0	0	-4.0344935360E+01	-1.0501616104E+02	-1.0482520649E+02	3.5954058436E+02	3.2500000000E+02	0.000E+00	0.0
	-14	1	6	6	0	0	5.1002482158E+01	8.0580671764E+01	5.3352244995E+02	6.3195387683E+02	3.2500000000E+02	0.000E+00	0.0
	25	2	5	5	0	0	-1.0657546798E+01	2.4435489275E+01	3.0710139186E+01	1.3161604154E+02	1.2517584951E+02	0.000E+00	0.0
	-5	1	9	9	0	501	1.6863144151E+01	6.2733110442E+01	-1.3903467923E+01	6.6562659177E+01	4.1800000000E+00	0.000E+00	0.0
	5	1	9	9	501	0	-2.7520690950E+01	-3.8297621167E+01	4.4613607109E+01	6.5053382361E+01	4.1800000000E+00	0.000E+00	0.0
</event>
<event>
    11  -1  1.0000000E+00  1.0000000E+00  -1.0000000E+00  -1.0000000E+00
	2212	-1	0	0	0	0	0.0000000000E+00	0.0000000000E+00	6.5000000000E+03	6.5000000000E+03	9.3827000000E-01	0.000E+00	0.0
	2212	-1	0	0	0	0	0.0000000000E+00	0.0000000000E+00	-6.5000000000E+03	6.5000000000E+03	9.3827000000E-01	0.000E+00	0.0
	2212	1	0	0	0	0	0.0000000000E+00	0.0000000000E+00	5.9007847878E+03	5.9007847878E+03	9.3827000000E-01	0.000E+00	0.0
	2212	1	0	0	0	0	0.0000000000E+00	0.0000000000E+00	-6.0378852743E+03	6.0378852743E+03	9.3827000000E-01	0.000E+00	0.0
	51	2	1	2	0	0	7.4600262421E+01	-5.3817729115E+01	2.5558781690E+02	1.0869274920E+03	1.0524375010E+03	0.000E+00	0.0
	1000022	2	5	5	0	0	-7.4600262421E+01	5.3817729115E+01	-5.3010964336E+00	8.5060603659E+02	8.4560095834E+02	0.000E+00	0.0
	14	1	6	6	0	0	-2.5912395454E+02	1.5965951051E+02	8.1335418510E+01	4.5263322173E+02	3.2500000000E+02	0.000E+00	0.0
	-14	1	6	6	0	0	1.8452369212E+02	-1.0584178140E+02	-8.6636514944E+01	3.9797281486E+02	3.2500000000E+02	0.000E+00	0.0
	25	2	5	5	0	0	7.4600262421E+01	-5.3817729115E+01	1.4240158298E+02	2.1072390126E+02	1.2515911715E+02	0.000E+00	0.0
	-5	1	9	9	0	501	6.1945950851E+01	-8.3504524415E+01	5.5505954482E+01	1.1793510846E+02	4.1800000000E+00	0.000E+00	0.0
	5	1	9	9	501	0	1.2654311570E+01	2.9686795300E+01	8.6895628502E+01	9.2788792800E+01	4.1800000000E+00	0.000E+00	0.0
</event>
<event>
    11  -1  1.0000000E+00  1.0000000E+00  -1.0000000E+00  -1.0000000E+00
	2212	-1	0	0	0	0	0.0000000000E+00	0.0000000000E+00	6.5000000000E+03	6.5000000000E+03	9.3827000000E-01	0.000E+00	0.0
	2212	-1	0	0	0	0	0.0000000000E+00	0.0000000000E+00	-6.5000000000E+03	6.5000000000E+03	9.3827000000E-01	0.000E+00	0.0
	2212	1	0	0	0	0	0.0000000000E+00	0.0000000000E+00	6.2089746668E+03	6.2089746668E+03	9.3827000000E-01	0.000E+00	0.0
	2212	1	0	0	0	0	0.0000000000E+00	0.0000000000E+00	-5.5532807446E+03	5.5532807446E+03	9.3827000000E-01	0.000E+00	0.0
	51	2	1	2	0	0	2.0009374142E+01	1.2518184038E+02	-7.4314257179E+02	1.2924429957E+03	1.0497986221E+03	0.000E+00	0.0
	1000022	2	5	5	0	0	-2.0009374142E+01	-1.2518184038E+02	-4.5509590772E+02	9.6945564880E+02	8.4655838638E+02	0.000E+00	0.0
	14	1	6	6	0	0	-2.2564381503E+02	9.3261584942E+01	-2.8081232009E+02	4.9405810751E+02	3.2500000000E+02	0.000E+00	0.0
	-14	1	6	6	0	0	2.0563444089E+02	-2.1844342532E+02	-1.7428358763E+02	4.7539754129E+02	3.2500000000E+02	0.000E+00	0.0
	25	2	5	5	0	0	2.0009374142E+01	1.2518184038E+02	-2.0059801447E+02	2.6828893974E+02	1.2517397319E+02	0.000E+00	0.0
	-5	1	9	9	0	501	9.3261927113E+00	3.0089613780E+01	-1.6189329746E+02	1.6498265028E+02	4.1800000000E+00	0.000E+00	0.0
	5	1	9	9	501	0	1.0683181431E+01	9.5092226597E+01	-3.8704717005E+01	1.0330628947E+02	4.1800000000E+00	0.000E+00	0.0
</event>
<event>
    11  -1  1.0000000E+00  1.0000000E+00  -1.0000000E+00  -1.0000000E+00
	2212	-1	0	0	0	0	0.0000000000E+00	0.0000000000E+00	6.5000000000E+03	6.5000000000E+03	9.3827000000E-01	0.000E+00	0.0
	2212	-1	0	0	0	0	0.0000000000E+00	0.0000000000E+00	-6.5000000000E+03	6.5000000000E+03	9.3827000000E-01	0.000E+00	0.0
	2212	1	0	0	0	0	0.0000000000E+00	0.0000000000E+00	5.9039008498E+03	5.9039008498E+03	9.3827000000E-01	0.000E+00	0.0
	2212	1	0	0	0	0	0.0000000000E+00	0.0000000000E+00	-6.0289023134E+03	6.0289023134E+03	9.3827000000E-01	0.000E+00	0.0
	51	2	1	2	0	0	-1.1443780413E+02	1.9229139957E+01	4.5874824910E+01	1.0671710234E+03	1.0598508021E+03	0.000E+00	0.0
	1000022	2	5	5	0	0	1.1443780413E+02	-1.9229139957E+01	1.8301345127E+02	8.8695685123E+02	8.6007718361E+02	0.000E+00	0.0
	14	1	6	6	0	0	-5.7598103436E+01	-2.1191165889E+01	-1.7460929140E+02	3.7400536316E+02	3.2500000000E+02	0.000E+00	0.0
	-14	1	6	6	0	0	1.7203590757E+02	1.9620259321E+00	3.5762274267E+02	5.1295148807E+02	3.2500000000E+02	0.000E+00	0.0
	25	2	5	5	0	0	-1.1443780413E+02	1.9229139957E+01	-5.8011987696E+01	1.8023998563E+02	1.2512110480E+02	0.000E+00	0.0
	-5	1	9	9	0	501	1.5356583198E+01	1.0491974894E+01	2.0695767436E+01	2.8137046299E+01	4.1800000000E+00	0.000E+00	0.0
	5	1	9	9	501	0	-1.2979438733E+02	8.7371650623E+00	-7.8707755132E+01	1.5210293933E+02	4.1800000000E+00	0.000E+00	0.0
</event>
<event>
    11  -1  1.0000000E+00  1.0000000E+00  -1.0000000E+00  -1.0000000E+00
	2212	-1	0	0	0	0	0.0000000000E+00	0.0000000000E+00	6.5000000000E+03	6.5000000000E+03	9.3827000000E-01	0.000E+00	0.0
	2212	-1	0	0	0	0	0.0000000000E+00	0.0000000000E+00	-6.5000000000E+03	6.5000000000E+03	9.3827000000E-01	0.000E+00	0.0
	2212	1	0	0	0	0	0.0000000000E+00	0.0000000000E+00	6.0420468668E+03	6.0420468668E+03	9.3827000000E-01	0.000E+00	0.0
	2212	1	0	0	0	0	0.0000000000E+00	0.0000000000E+00	-5.8978068260E+03	5.8978068260E+03	9.3827000000E-01	0.000E+00	0.0
	51	2	1	2	0	0	7.0865579986E+01	1.2003588124E+02	-1.1726552303E+02	1.0659675180E+03	1.0502880573E+03	0.000E+00	0.0
	1000022	2	5	5	0	0	-7.0865579986E+01	-1.2003588124E+02	-1.4651496740E+02	8.7278618236E+02	8.4903388698E+02	0.000E+00	0.0
	14	1	6	6	0	0	-2.8973053828E+02	-1.4491765828E+02	-1.4128589841E+02	4.8013708207E+02	3.2500000000E+02	0.000E+00	0.0
	-14	1	6	6	0	0	2.1886495829E+02	2.4881777036E+01	-5.2290689890E+00	3.9264910029E+02	3.2500000000E+02	0.000E+00	0.0
	25	2	5	5	0	0	7.0865579986E+01	1.2003588124E+02	2.2749266007E+00	1.8736012482E+02	1.2517227276E+02	0.000E+00	0.0
	-5	1	9	9	0	501	-1.9812433149E+00	-2.2621267943E+01	1.3476009078E+01	2.6734290884E+01	4.1800000000E+00	0.000E+00	0.0
	5	1	9	9	501	0	7.2846823301E+01	1.4265714918E+02	-1.1201082478E+01	1.6062583393E+02	4.1800000000E+00	0.000E+00	0.0
</event>
<event>
    11  -1  1.0000000E+00  1.0000000E+00  -1.0000000E+00  -1.0000000E+00
	2212	-1	0	0	0	0	0.0000000000E+00	0.0000000000E+00	6.5000000000E+03	6.5000000000E+03	9.3827000000E-01	0.000E+00	0.0
	2212	-1	0	0	0	0	0.0000000000E+00	0.0000000000E+00	-6.5000000000E+03	6.5000000000E+03	9.3827000000E-01	0.000E+00	0.0
	2212	1	0	0	0	0	0.0000000000E+00	0.0000000000E+00	6.3170421876E+03	6.3170421876E+03	9.3827000000E-01	0.000E+00	0.0
	2212	1	0	0	0	0	0.0000000000E+00	0.0000000000E+00	-5.0040472159E+03	5.0040472159E+03	9.3827000000E-01	0.000E+00	0.0
	51	2	1	2	0	0	4.9685861941E+01	-1.1730296471E+02	-1.4373593472E+03	1.7824184579E+03	1.0463197387E+03	0.000E+00	0.0
	1000022	2	5	5	0	0	-4.9685861941E+01	1.1730296471E+02	-9.6063719145E+02	1.2838703598E+03	8.4218205679E+02	0.000E+00	0.0
	14	1	6	6	0	0	2.6628884982E+01	9.0370844937E+01	-8.8687696390E+01	3.4980922604E+02	3.2500000000E+02	0.000E+00	0.0
	-14	1	6	6	0	0	-7.6314746923E+01	2.6932119770E+01	-8.7194949506E+02	9.3406113376E+02	3.2500000000E+02	0.000E+00	0.0
	25	2	5	5	0	0	4.9685861941E+01	-1.1730296471E+02	-3.5235778019E+02	3.9504023673E+02	1.2518831003E+02	0.000E+00	0.0
	-5	1	9	9	0	501	7.1285668912E+01	-2.5595631769E+01	-9.9152171348E+01	1.2484153332E+02	4.1800000000E+00	0.000E+00	0.0
	5	1	9	9	501	0	-2.1599806972E+01	-9.1707332938E+01	-2.5320560884E+02	2.7019870341E+02	4.1800000000E+00	0.000E+00	0.0
</event>
<event>
    11  -1  1.0000000E+00  1.0000000E+00  -1.0000000E+00  -1.0000000E+00
	2212	-1	0	0	0	0	0.0000000000E+00	0.0000000000E+00	6.5000000000E+03	6.5000000000E+03	9.3827000000E-01	0.000E+00	0.0
	2212	-1	0	0	0	0	0.0000000000E+00	0.0000000000E+00	-6.5000000000E+03	6.5000000000E+03	9.3827000000E-01	0.000E+00	0.0
	2212	1	0	0	0	0	0.0000000000E+00	0.0000000000E+00	5.8674011953E+03	5.8674011953E+03	9.3827000000E-01	0.000E+00	0.0
	2212	1	0	0	0	0	0.0000000000E+00	0.0000000000E+00	-6.0557280142E+03	6.0557280142E+03	9.3827000000E-01	0.000E+00	0.0
	51	2	1	2	0	0	-2.8929882470E+01	-1.4951013584E+02	1.9686380428E+02	1.0890956271E+03	1.0602752985E+03	0.000E+00	0.0
	1000022	2	5	5	0	0	2.8929882470E+01	1.4951013584E+02	1.4669704962E+02	8.7541824585E+02	8.4949800587E+02	0.000E+00	0.0
	14	1	6	6	0	0	4.6637277621E+01	-1.8023128770E+02	-3.8364050536E+01	3.7650385536E+02	3.2500000000E+02	0.000E+00	0.0
	-14	1	6	6	0	0	-1.7707395151E+01	3.2974142354E+02	1.8506110015E+02	4.9891439048E+02	3.2500000000E+02	0.000E+00	0.0
	25	2	5	5	0	0	-2.8929882470E+01	-1.4951013584E+02	4.1629769251E+01	2.0145254463E+02	1.2513940720E+02	0.000E+00	0.0
	-5	1	9	9	0	501	3.9786407508E+01	-2.2663344573E+01	-1.1945162556E+01	4.7505207274E+01	4.1800000000E+00	0.000E+00	0.0
	5	1	9	9	501	0	-6.8716289978E+01	-1.2684679126E+02	5.3574931807E+01	1.5394733736E+02	4.1800000000E+00	0.000E+00	0.0
</event>
<event>
    11  -1  1.0000000E+00  1.0000000E+00  -1.0000000E+00  -1.0000000E+00
	2212	-1	0	0	0	0	0.0000000000E+00	0.0000000000E+00	6.5000000000E+03	6.5000000000E+03	9.3827000000E-01	0.000E+00	0.0
	2212	-1	0	0	0	0	0.0000000000E+00	0.0000000000E+00	-6.5000000000E+03	6.5000000000E+03	9.3827000000E-01	0.000E+00	0.0
	2212	1	0	0	0	0	0.0000000000E+00	0.0000000000E+00	5.8013517480E+03	5.8013517480E+03	9.3827000000E-01	0.000E+00	0.0
	2212	1	0	0	0	0	0.0000000000E+00	0.0000000000E+00	-6.0929183495E+03	6.0929183495E+03	9.3827000000E-01	0.000E+00	0.0
	51	2	1	2	0	0	3.7811793890E+01	1.4820633517E+02	2.7114672361E+02	1.1110998737E+03	1.0665962376E+03	0.000E+00	0.0
	1000022	2	5	5	0	0	-3.7811793890E+01	-1.4820633517E+02	2.6062210898E+02	9.0556697495E+02	8.5365848727E+02	0.000E+00	0.0
	14	1	6	6	0	0	-2.3924312278E+02	-1.0670747853E+02	-3.7265307512E+01	4.1909123221E+02	3.2500000000E+02	0.000E+00	0.0
	-14	1	6	6	0	0	2.0143132889E+02	-4.1498856638E+01	2.9788741650E+02	4.8647574273E+02	3.2500000000E+02	0.000E+00	0.0
	25	2	5	5	0	0	3.7811793890E+01	1.4820633517E+02	3.0944492505E+01	2.0016292751E+02	1.2535065373E+02	0.000E+00	0.0
	-5	1	9	9	0	501	2.3342171586E+00	1.5201526721E+02	-9.9286107724E-01	1.5209387959E+02	4.1800000000E+00	0.000E+00	0.0
	5	1	9	9	501	0	3.5477576731E+01	-3.8089320418E+00	3.1937353583E+01	4.8069047920E+01	4.1800000000E+00	0.000E+00	0.0
</event>
<event>
    11  -1  1.0000000E+00  1.0000000E+00  -1.0000000E+00  -1.0000000E+00
	2212	-1	0	0	0	0	0.0000000000E+00	0.0000000000E+00	6.5000000000E+03	6.5000000000E+03	9.3827000000E-01	0.000E+00	0.0
	2212	-1	0	0	0	0	0.0000000000E+00	0.0000000000E+00	-6.5000000000E+03	6.5000000000E+03	9.3827000000E-01	0.000E+00	0.0
	2212	1	0	0	0	0	0.0000000000E+00	0.0000000000E+00	6.1236449715E+03	6.1236449715E+03	9.3827000000E-01	0.000E+00	0.0
	2212	1	0	0	0	0	0.0000000000E+00	0.0000000000E+00	-5.7671998935E+03	5.7671998935E+03	9.3827000000E-01	0.000E+00	0.0
	51	2	1	2	0	0	1.5689789253E+02	-7.7892125008E+00	-3.1802602760E+02	1.1085983017E+03	1.0503199606E+03	0.000E+00	0.0
	1000022	2	5	5	0	0	-1.5689789253E+02	7.7892125008E+00	-3.2955692937E+02	9.0649464329E+02	8.2972715280E+02	0.000E+00	0.0
	14	1	6	6	0	0	-1.6485381954E+02	-2.3928286651E+02	-1.6078330051E+02	4.6466045855E+02	3.2500000000E+02	0.000E+00	0.0
	-14	1	6	6	0	0	7.9559270153E+00	2.4707207901E+02	-1.6877362886E+02	4.4183418473E+02	3.2500000000E+02	0.000E+00	0.0
	25	2	5	5	0	0	1.5689789253E+02	-7.7892125008E+00	-2.6888148671E+01	2.0266049166E+02	1.2518259395E+02	0.000E+00	0.0
	-5	1	9	9	0	501	-2.1135823858E+01	2.0066139944E+00	-8.9228356076E+00	2.3405959608E+01	4.1800000000E+00	0.000E+00	0.0
	5	1	9	9	501	0	1.7803371639E+02	-9.7958264953E+00	-1.7965313064E+01	1.7925453205E+02	4.1800000000E+00	0.000E+00	0.0
</event>
<event>
    11  -1  1.0000000E+00  1.0000000E+00  -1.0000000E+00  -1.0000000E+00
	2212	-1	0	0	0	0	0.0000000000E+00	0.0000000000E+00	6.5000000000E+03	6.5000000000E+03	9.3827000000E-01	0.000E+00	0.0
	2212	-1	0	0	0	0	0.0000000000E+00	0.0000000000E+00	-6.5000000000E+03	6.5000000000E+03	9.3827000000E-01	0.000E+00	0.0
	2212	1	0	0	0	0	0.0000000000E+00	0.0000000000E+00	6.3208009044E+03	6.3208009044E+03	9.3827000000E-01	0.000E+00	0.0
	2212	1	0	0	0	0	0.0000000000E+00	0.0000000000E+00	-4.9480481984E+03	4.9480481984E+03	9.3827000000E-01	0.000E+00	0.0
	51	2	1	2	0	0	9.2091089163E+01	3.7918722249E+01	-1.2439744679E+03	1.6339597644E+03	1.0547196011E+03	0.000E+00	0.0
	1000022	2	5	5	0	0	-9.2091089163E+01	-3.7918722249E+01	-1.2763568335E+03	1.5443794764E+03	8.6377230938E+02	0.000E+00	0.0
	14	1	6	6	0	0	-1.7647508324E+02	-2.0547791155E+02	-3.6490769464E+02	5.5870139856E+02	3.2500000000E+02	0.000E+00	0.0
	-14	1	6	6	0	0	8.4383994076E+01	1.6755918931E+02	-9.1144913887E+02	9.8567807783E+02	3.2500000000E+02	0.000E+00	0.0
	25	2	5	5	0	0	9.2091089163E+01	3.7918722249E+01	-9.6395872549E+01	1.8677142080E+02	1.2519105871E+02	0.000E+00	0.0
	-5	1	9	9	0	501	4.8925061162E+01	6.1505937329E+01	-1.1028486633E+02	1.3548751263E+02	4.1800000000E+00	0.000E+00	0.0
	5	1	9	9	501	0	4.3166028001E+01	-2.3587215080E+01	1.3888993785E+01	5.1283908168E+01	4.1800000000E+00	0.000E+00	0.0
</event>
<event>
    11  -1  1.0000000E+00  1.0000000E+00  -1.0000000E+00  -1.0000000E+00
	2212	-1	0	0	0	0	0.0000000000E+00	0.0000000000E+00	6.5000000000E+03	6.5000000000E+03	9.3827000000E-01	0.000E+00	0.0
	2212	-1	0	0	0	0	0.0000000000E+00	0.0000000000E+00	-6.5000000000E+03	6.5000000000E+03	9.3827000000E-01	0.000E+00	0.0
	2212	1	0	0	0	0	0.0000000000E+00	0.0000000000E+00	6.2833854767E+03	6.2833854767E+03	9.3827000000E-01	0.000E+00	0.0
	2212	1	0	0	0	0	0.0000000000E+00	0.0000000000E+00	-5.2572528745E+03	5.2572528745E+03	9.3827000000E-01	0.000E+00	0.0
	51	2	1	2	0	0	-2.7818161873E+01	1.0617269741E+02	-1.1369198351E+03	1.5431855066E+03	1.0376841063E+03	0.000E+00	0.0
	1000022	2	5	5	0	0	2.7818161873E+01	-1.0617269741E+02	-7.4385621936E+02	1.1316466133E+03	8.4572778750E+02	0.000E+00	0.0
	14	1	6	6	0	0	-2.4577354080E+02	1.1178585564E+01	-4.1532741417E+02	5.8193767286E+02	3.2500000000E+02	0.000E+00	0.0
	-14	1	6	6	0	0	2.7359170267E+02	-1.1735128298E+02	-3.2852880519E+02	5.4970894046E+02	3.2500000000E+02	0.000E+00	0.0
	25	2	5	5	0	0	-2.7818161873E+01	1.0617269741E+02	-2.8227638289E+02	3.2771503546E+02	1.2518265185E+02	0.000E+00	0.0
	-5	1	9	9	0	501	-4.7116825373E+01	1.0211700981E+02	-1.2124114697E+02	1.6542299431E+02	4.1800000000E+00	0.000E+00	0.0
	5	1	9	9	501	0	1.9298663500E+01	4.0556875982E+00	-1.6103523591E+02	1.6229204115E+02	4.1800000000E+00	0.000E+00	0.0
</event>
<event>
    11  -1  1.0000000E+00  1.0000000E+00  -1.0000000E+00  -1.0000000E+00
	2212	-1	0	0	0	0	0.0000000000E+00	0.0000000000E+00	6.5000000000E+03	6.5000000000E+03	9.3827000000E-01	0.000E+00	0.0
	2212	-1	0	0	0	0	0.0000000000E+00	0.0000000000E+00	-6.5000000000E+03	6.5000000000E+03	9.3827000000E-01	0.000E+00	0.0
	2212	1	0	0	0	0	0.0000000000E+00	0.0000000000E+00	4.9229954081E+03	4.9229954081E+03	9.3827000000E-01	0.000E+00	0.0
	2212	1	0	0	0	0	0.0000000000E+00	0.0000000000E+00	-6.3281041303E+03	6.3281041303E+03	9.3827000000E-01	0.000E+00	0.0
	51	2	1	2	0	0	1.2040558201E+02	5.9742834476E+01	1.4010228490E+03	1.7507866909E+03	1.0413079772E+03	0.000E+00	0.0
	1000022	2	5	5	0	0	-1.2040558201E+02	-5.9742834476E+01	1.1728172530E+03	1.4528018082E+03	8.4679754043E+02	0.000E+00	0.0
	14	1	6	6	0	0	-3.1450928218E+02	2.2724015886E+01	4.8616469572E+02	6.6438963029E+02	3.2500000000E+02	0.000E+00	0.0
	-14	1	6	6	0	0	1.9410370016E+02	-8.2466850362E+01	6.8665255731E+02	7.8841217792E+02	3.2500000000E+02	0.000E+00	0.0
	25	2	5	5	0	0	1.2040558201E+02	5.9742834476E+01	2.3229146912E+02	2.9609865333E+02	1.2509346677E+02	0.000E+00	0.0
	-5	1	9	9	0	501	2.6006968089E+01	6.5410416231E+01	1.6650947435E+02	1.8082522608E+02	4.1800000000E+00	0.000E+00	0.0
	5	1	9	9	501	0	9.4398613922E+01	-5.6675817547E+00	6.5781994777E+01	1.1527342725E+02	4.1800000000E+00	0.000E+00	0.0
</event>
<event>
    11  -1  1.0000000E+00  1.0000000E+00  -1.0000000E+00  -1.0000000E+00
	2212	-1	0	0	0	0	0.0000000000E+00	0.0000000000E+00	6.5000000000E+03	6.5000000000E+03	9.3827000000E-01	0.000E+00	0.0
	2212	-1	0	0	0	0	0.0000000000E+00	0.0000000000E+00	-6.5000000000E+03	6.5000000000E+03	9.3827000000E-01	0.000E+00	0.0
	2212	1	0	0	0	0	0.0000000000E+00	0.0000000000E+00	5.6021350473E+03	5.6021350473E+03	9.3827000000E-01	0.000E+00	0.0
	2212	1	0	0	0	0	0.0000000000E+00	0.0000000000E+00	-6.1625561851E+03	6.1625561851E+03	9.3827000000E-01	0.000E+00	0.0
	51	2	1	2	0	0	1.7880149706E+02	-4.0071408920E+01	5.3006016519E+02	1.2354980257E+03	1.1008705190E+03	0.000E+00	0.0
	1000022	2	5	5	0	0	-1.7880149706E+02	4.0071408920E+01	4.8445940927E+02	1.0007576054E+03	8.5629385861E+02	0.000E+00	0.0
	14	1	6	6	0	0	9.8952166760E+01	2.2377746237E+02	1.8117302017E+02	4.4532746065E+02	3.2500000000E+02	0.000E+00	0.0
	-14	1	6	6	0	0	-2.7775366382E+02	-1.8370605345E+02	3.0328638910E+02	5.5543014471E+02	3.2500000000E+02	0.000E+00	0.0
	25	2	5	5	0	0	1.7880149706E+02	-4.0071408920E+01	7.5961728572E+01	2.3455116228E+02	1.2517336120E+02	0.000E+00	0.0
	-5	1	9	9	0	501	1.6154485964E+02	-6.5183917176E+01	9.4915772587E+01	1.9842419465E+02	4.1800000000E+00	0.000E+00	0.0
	5	1	9	9	501	0	1.7256637420E+01	2.5112508255E+01	-1.8954044015E+01	3.6126967634E+01	4.1800000000E+00	0.000E+00	0.0
</event>
<event>
    11  -1  1.0000000E+00  1.0000000E+00  -1.0000000E+00  -1.0000000E+00
	2212	-1	0	0	0	0	0.0000000000E+00	0.0000000000E+00	6.5000000000E+03	6.5000000000E+03	9.3827000000E-01	0.000E+00	0.0
	2212	-1	0	0	0	0	0.0000000000E+00	0.0000000000E+00	-6.5000000000E+03	6.5000000000E+03	9.3827000000E-01	0.000E+00	0.0
	2212	1	0	0	0	0	0.0000000000E+00	0.0000000000E+00	6.3176638994E+03	6.3176638994E+03	9.3827000000E-01	0.000E+00	0.0
	2212	1	0	0	0	0	0.0000000000E+00	0.0000000000E+00	-5.0570491310E+03	5.0570491310E+03	9.3827000000E-01	0.000E+00	0.0
	51	2	1	2	0	0	1.0644624464E+02	6.5593886454E+01	-1.3057256036E+03	1.6652209620E+03	1.0258694554E+03	0.000E+00	0.0
	1000022	2	5	5	0	0	-1.0644624464E+02	-6.5593886454E+01	-1.0059776513E+03	1.3152146732E+03	8.3795300625E+02	0.000E+00	0.0
	14	1	6	6	0	0	-2.5591594011E+02	1.1579939034E+02	-3.9018808775E+02	5.8032250605E+02	3.2500000000E+02	0.000E+00	0.0
	-14	1	6	6	0	0	1.4946969546E+02	-1.8139327679E+02	-6.1578956356E+02	7.3489216713E+02	3.2500000000E+02	0.000E+00	0.0
	25	2	5	5	0	0	1.0644624464E+02	6.5593886454E+01	-2.5463711706E+02	3.1007229645E+02	1.2518548919E+02	0.000E+00	0.0
	-5	1	9	9	0	501	7.4507281242E+01	4.5619767999E+01	-4.7566905753E+01	9.9561946110E+01	4.1800000000E+00	0.000E+00	0.0
	5	1	9	9	501	0	3.1938963403E+01	1.9974118455E+01	-2.0707021131E+02	2.1051035034E+02	4.1800000000E+00	0.000E+00	0.0
</event>
<event>
    11  -1  1.0000000E+00  1.0000000E+00  -1.0000000E+00  -1.0000000E+00
	2212	-1	0	0	0	0	0.0000000000E+00	0.0000000000E+00	6.5000000000E+03	6.5000000000E+03	9.3827000000E-01	0.000E+00	0.0
	2212	-1	0	0	0	0	0.0000000000E+00	0.0000000000E+00	-6.5000000000E+03	6.5000000000E+03	9.3827000000E-01	0.000E+00	0.0
	2212	1	0	0	0	0	0.0000000000E+00	0.0000000000E+00	6.2218578917E+03	6.2218578917E+03	9.3827000000E-01	0.000E+00	0.0
	2212	1	0	0	0	0	0.0000000000E+00	0.0000000000E+00	-5.5115380085E+03	5.5115380085E+03	9.3827000000E-01	0.000E+00	0.0
	51	2	1	2	0	0	-6.3177984680E+01	-7.6506283882E+01	-8.3731319708E+02	1.3456112620E+03	1.0486808901E+03	0.000E+00	0.0
	1000022	2	5	5	0	0	6.3177984680E+01	7.6506283882E+01	-4.6211344540E+02	9.7145623357E+02	8.4872475402E+02	0.000E+00	0.0
	14	1	6	6	0	0	-1.6334817826E+02	2.2915592451E+02	-2.2726710759E+02	4.8628222595E+02	3.2500000000E+02	0.000E+00	0.0
	-14	1	6	6	0	0	2.2652616295E+02	-1.5264964063E+02	-2.3484633781E+02	4.8517400762E+02	3.2500000000E+02	0.000E+00	0.0
	25	2	5	5	0	0	-6.3177984680E+01	-7.6506283882E+01	-2.4820643779E+02	2.9514786628E+02	1.2514454839E+02	0.000E+00	0.0
	-5	1	9	9	0	501	-9.6257931127E+01	-3.7885153678E+01	-1.2847076141E+02	1.6499419115E+02	4.1800000000E+00	0.000E+00	0.0
	5	1	9	9	501	0	3.3079946446E+01	-3.8621130204E+01	-1.1973567637E+02	1.3015367514E+02	4.1800000000E+00	0.000E+00	0.0
</event>
<event>
    11  -1  1.0000000E+00  1.0000000E+00  -1.0000000E+00  -1.0000000E+00
	2212	-1	0	0	0	0	0.0000000000E+00	0.0000000000E+00	6.5000000000E+03	6.5000000000E+03	9.3827000000E-01	0.000E+00	0.0
	2212	-1	0	0	0	0	0.0000000000E+00	0.0000000000E+00	-6.5000000000E+03	6.5000000000E+03	9.3827000000E-01	0.000E+00	0.0
	2212	1	0	0	0	0	0.0000000000E+00	0.0000000000E+00	5.7790262930E+03	5.7790262930E+03	9.3827000000E-01	0.000E+00	0.0
	2212	1	0	0	0	0	0.0000000000E+00	0.0000000000E+00	-6.1371506371E+03	6.1371506371E+03	9.3827000000E-01	0.000E+00	0.0
	51	2	1	2	0	0	-8.3343110682E+01	4.1918433518E+01	4.3878207636E+02	1.1169835902E+03	1.0229464311E+03	0.000E+00	0.0
	1000022	2	5	5	0	0	8.3343110682E+01	-4.1918433518E+01	2.1942102372E+02	8.7499410197E+02	8.4188233363E+02	0.000E+00	0.0
	14	1	6	6	0	0	-1.7831901009E+02	1.2917682926E+02	6.2502706583E+01	3.9751215190E+02	3.2500000000E+02	0.000E+00	0.0
	-14	1	6	6	0	0	2.6166212078E+02	-1.7109526278E+02	1.5691831713E+02	4.7748195007E+02	3.2500000000E+02	0.000E+00	0.0
	25	2	5	5	0	0	-8.3343110682E+01	4.1918433518E+01	1.3870332043E+02	2.0882896793E+02	1.2517067381E+02	0.000E+00	0.0
	-5	1	9	9	0	501	-2.5583246133E+01	1.2123765816E+01	-2.1565463817E+01	3.5833361689E+01	4.1800000000E+00	0.000E+00	0.0
	5	1	9	9	501	0	-5.7759864549E+01	2.9794667702E+01	1.6026878424E+02	1.7299560624E+02	4.1800000000E+00	0.000E+00	0.0
</event>
<event>
    11  -1  1.0000000E+00  1.0000000E+00  -1.0000000E+00  -1.0000000E+00
	2212	-1	0	0	0	0	0.0000000000E+00	0.0000000000E+00	6.5000000000E+03	6.5000000000E+03	9.3827000000E-01	0.000E+00	0.0
	2212	-1	0	0	0	0	0.0000000000E+00	0.0000000000E+00	-6.5000000000E+03	6.5000000000E+03	9.3827000000E-01	0.000E+00	0.0
	2212	1	0	0	0	0	0.0000000000E+00	0.0000000000E+00	4.9652159356E+03	4.9652159356E+03	9.3827000000E-01	0.000E+00	0.0
	2212	1	0	0	0	0	0.0000000000E+00	0.0000000000E+00	-6.3203241613E+03	6.3203241613E+03	9.3827000000E-01	0.000E+00	0.0
	51	2	1	2	0	0	1.1941273763E+02	3.6031714351E+00	1.1339627641E+03	1.5502252710E+03	1.0502639934E+03	0.000E+00	0.0
	1000022	2	5	5	0	0	-1.1941273763E+02	-3.6031714351E+00	1.3037905123E+03	1.5339787553E+03	7.9934269068E+02	0.000E+00	0.0
	14	1	6	6	0	0	-1.7197984345E+02	-3.1428889620E+01	1.0627487907E+03	1.1249999261E+03	3.2500000000E+02	0.000E+00	0.0
	-14	1	6	6	0	0	5.2567105818E+01	2.7825718184E+01	2.4104172162E+02	4.0897882924E+02	3.2500000000E+02	0.000E+00	0.0
	25	2	5	5	0	0	1.1941273763E+02	3.6031714351E+00	5.1317713438E+01	1.8048114773E+02	1.2517009316E+02	0.000E+00	0.0
	-5	1	9	9	0	501	3.8754469818E+01	-4.8262466722E+01	5.7108299167E+01	8.4320844746E+01	4.1800000000E+00	0.000E+00	0.0
	5	1	9	9	501	0	8.0658267809E+01	5.1865638157E+01	-5.7905857291E+00	9.6160302986E+01	4.1800000000E+00	0.000E+00	0.0
</event>
<event>
    11  -1  1.0000000E+00  1.0000000E+00  -1.0000000E+00  -1.0000000E+00
	2212	-1	0	0	0	0	0.0000000000E+00	0.0000000000E+00	6.5000000000E+03	6.5000000000E+03	9.3827000000E-01	0.000E+00	0.0
	2212	-1	0	0	0	0	0.0000000000E+00	0.0000000000E+00	-6.5000000000E+03	6.5000000000E+03	9.3827000000E-01	0.000E+00	0.0
	2212	1	0	0	0	0	0.0000000000E+00	0.0000000000E+00	4.9354059444E+03	4.9354059444E+03	9.3827000000E-01	0.000E+00	0.0
	2212	1	0	0	0	0	0.0000000000E+00	0.0000000000E+00	-6.3243921268E+03	6.3243921268E+03	9.3827000000E-01	0.000E+00	0.0
	51	2	1	2	0	0	-1.1284062499E+02	-6.2195057804E+01	1.3287295201E+03	1.6973931504E+03	1.0483416131E+03	0.000E+00	0.0
	1000022	2	5	5	0	0	1.1284062499E+02	6.2195057804E+01	1.2160393289E+03	1.4908399041E+03	8.5278997327E+02	0.000E+00	0.0
	14	1	6	6	0	0	5.3009297377E+01	4.2605077278E+01	1.3188854064E+02	3.5727407598E+02	3.2500000000E+02	0.000E+00	0.0
	-14	1	6	6	0	0	5.9831327611E+01	1.9589980527E+01	1.0841507882E+03	1.1335658281E+03	3.2500000000E+02	0.000E+00	0.0
	25	2	5	5	0	0	-1.1284062499E+02	-6.2195057804E+01	1.7294685352E+02	2.4936202459E+02	1.2517816624E+02	0.000E+00	0.0
	-5	1	9	9	0	501	-6.5018490931E+01	-9.4406704220E+01	7.9800223479E+01	1.3973395447E+02	4.1800000000E+00	0.000E+00	0.0
	5	1	9	9	501	0	-4.7822134057E+01	3.2211646415E+01	9.3146630036E+01	1.0962807012E+02	4.1800000000E+00	0.000E+00	0.0
</event>
<event>
    11  -1  1.0000000E+00  1.0000000E+00  -1.0000000E+00  -1.0000000E+00
	2212	-1	0	0	0	0	0.0000000000E+00	0.0000000000E+00	6.5000000000E+03	6.5000000000E+03	9.3827000000E-01	0.000E+00	0.0
	2212	-1	0	0	0	0	0.0000000000E+00	0.0000000000E+00	-6.5000000000E+03	6.5000000000E+03	9.3827000000E-01	0.000E+00	0.0
	2212	1	0	0	0	0	0.0000000000E+00	0.0000000000E+00	5.8101677992E+03	5.8101677992E+03	9.3827000000E-01	0.000E+00	0.0
	2212	1	0	0	0	0	0.0000000000E+00	0.0000000000E+00	-6.1124672161E+03	6.1124672161E+03	9.3827000000E-01	0.000E+00	0.0
	51	2	1	2	0	0	-8.3976499008E+01	-2.3637014996E+01	3.1102980908E+02	1.0833654397E+03	1.0340843161E+03	0.000E+00	0.0
	1000022	2	5	5	0	0	8.3976499008E+01	2.3637014996E+01	2.5020961020E+02	9.1683589935E+02	8.7770863983E+02	0.000E+00	0.0
	14	1	6	6	0	0	1.4850575274E+02	-1.7118459888E+02	3.4001964129E+02	5.2210773022E+02	3.2500000000E+02	0.000E+00	0.0
	-14	1	6	6	0	0	-6.4529253735E+01	1.9482161387E+02	-8.9810031091E+01	3.9472816913E+02	3.2500000000E+02	0.000E+00	0.0
	25	2	5	5	0	0	-8.3976499008E+01	-2.3637014996E+01	5.2089806653E+01	1.6052908536E+02	1.2427983917E+02	0.000E+00	0.0
	-5	1	9	9	0	501	-1.0754501459E+02	1.1964137523E+01	3.0496965185E+01	1.1250159125E+02	4.1800000000E+00	0.000E+00	0.0
	5	1	9	9	501	0	2.3568515579E+01	-3.5601152519E+01	2.1592841469E+01	4.8027494104E+01	4.1800000000E+00	0.000E+00	0.0
</event>
<event>
    11  -1  1.0000000E+00  1.0000000E+00  -1.0000000E+00  -1.0000000E+00
	2212	-1	0	0	0	0	0.0000000000E+00	0.0000000000E+00	6.5000000000E+03	6.5000000000E+03	9.3827000000E-01	0.000E+00	0.0
	2212	-1	0	0	0	0	0.0000000000E+00	0.0000000000E+00	-6.5000000000E+03	6.5000000000E+03	9.3827000000E-01	0.000E+00	0.0
	2212	1	0	0	0	0	0.0000000000E+00	0.0000000000E+00	5.2234084067E+03	5.2234084067E+03	9.3827000000E-01	0.000E+00	0.0
	2212	1	0	0	0	0	0.0000000000E+00	0.0000000000E+00	-6.2864980731E+03	6.2864980731E+03	9.3827000000E-01	0.000E+00	0.0
	51	2	1	2	0	0	-7.0419757359E+01	-1.5263983607E+02	1.0462031582E+03	1.4876215815E+03	1.0441355563E+03	0.000E+00	0.0
	1000022	2	5	5	0	0	7.0419757359E+01	1.5263983607E+02	8.7932553360E+02	1.2113208662E+03	8.1598222104E+02	0.000E+00	0.0
	14	1	6	6	0	0	4.6247338760E+01	1.7254941835E+02	1.2835786150E+02	3.9244472060E+02	3.2500000000E+02	0.000E+00	0.0
	-14	1	6	6	0	0	2.4172418598E+01	-1.9909582277E+01	7.5096767210E+02	8.1887614560E+02	3.2500000000E+02	0.000E+00	0.0
	25	2	5	5	0	0	-7.0419757359E+01	-1.5263983607E+02	1.8376413282E+02	2.7877265395E+02	1.2524805108E+02	0.000E+00	0.0
	-5	1	9	9	0	501	-6.4879087795E+01	-1.4563749436E+02	8.7326285483E+01	1.8183214329E+02	4.1800000000E+00	0.000E+00	0.0
	5	1	9	9	501	0	-5.5406695631E+00	-7.0023417096E+00	9.6437847336E+01	9.6940510662E+01	4.1800000000E+00	0.000E+00	0.0
</event>
<event>
    11  -1  1.0000000E+00  1.0000000E+00  -1.0000000E+00  -1.0000000E+00
	2212	-1	0	0	0	0	0.0000000000E+00	0.0000000000E+00	6.5000000000E+03	6.5000000000E+03	9.3827000000E-01	0.000E+00	0.0
	2212	-1	0	0	0	0	0.0000000000E+00	0.0000000000E+00	-6.5000000000E+03	6.5000000000E+03	9.3827000000E-01	0.000E+00	0.0
	2212	1	0	0	0	0	0.0000000000E+00	0.0000000000E+00	6.2980951685E+03	6.2980951685E+03	9.3827000000E-01	0.000E+00	0.0
	2212	1	0	0	0	0	0.0000000000E+00	0.0000000000E+00	-5.1636256953E+03	5.1636256953E+03	9.3827000000E-01	0.000E+00	0.0
	51	2	1	2	0	0	-1.3212812124E+02	1.1929462205E+01	-1.4391181721E+03	1.7798716192E+03	1.0388848421E+03	0.000E+00	0.0
	1000022	2	5	5	0	0	1.3212812124E+02	-1.1929462205E+01	-5.7169667891E+02	9.4668436573E+02	7.4281494543E+02	0.000E+00	0.0
	14	1	6	6	0	0	7.2485340028E+01	3.1728344314E+01	-5.0663356201E+02	6.0709420892E+02	3.2500000000E+02	0.000E+00	0.0
	-14	1	6	6	0	0	5.9642781212E+01	-4.3657806519E+01	-6.5063116902E+01	3.3959015681E+02	3.2500000000E+02	0.000E+00	0.0
	25	2	5	5	0	0	-1.3212812124E+02	1.1929462205E+01	-5.6277279436E+02	5.9159477047E+02	1.2518387231E+02	0.000E+00	0.0
	-5	1	9	9	0	501	1.7151722357E+01	1.7035397324E+01	-3.2801233861E+01	4.0960709034E+01	4.1800000000E+00	0.000E+00	0.0
	5	1	9	9	501	0	-1.4927984360E+02	-5.1059351189E+00	-5.2997156050E+02	5.5063406144E+02	4.1800000000E+00	0.000E+00	0.0
</event>
<event>
    11  -1  1.0000000E+00  1.0000000E+00  -1.0000000E+00  -1.0000000E+00
	2212	-1	0	0	0	0	0.0000000000E+00	0.0000000000E+00	6.5000000000E+03	6.5000000000E+03	9.3827000000E-01	0.000E+00	0.0
	2212	-1	0	0	0	0	0.0000000000E+00	0.0000000000E+00	-6.5000000000E+03	6.5000000000E+03	9.3827000000E-01	0.000E+00	0.0
	2212	1	0	0	0	0	0.0000000000E+00	0.0000000000E+00	5.2744892951E+03	5.2744892951E+03	9.3827000000E-01	0.000E+00	0.0
	2212	1	0	0	0	0	0.0000000000E+00	0.0000000000E+00	-6.2754185672E+03	6.2754185672E+03	9.3827000000E-01	0.000E+00	0.0
	51	2	1	2	0	0	-8.0384715175E+01	6.4748432487E+01	1.1474264287E+03	1.5582519923E+03	1.0492415357E+03	0.000E+00	0.0
	1000022	2	5	5	0	0	8.0384715175E+01	-6.4748432487E+01	6.8226999890E+02	1.0925131299E+03	8.4701742935E+02	0.000E+00	0.0
	14	1	6	6	0	0	2.1027784260E+02	-4.8721919901E+01	6.2605050246E+02	7.3766850834E+02	3.2500000000E+02	0.000E+00	0.0
	-14	1	6	6	0	0	-1.2989312742E+02	-1.6026512586E+01	5.6219496440E+01	3.5484462154E+02	3.2500000000E+02	0.000E+00	0.0
	25	2	5	5	0	0	-8.0384715175E+01	6.4748432487E+01	3.1865927314E+02	3.5757900782E+02	1.2515970810E+02	0.000E+00	0.0
	-5	1	9	9	0	501	1.6355366328E+01	5.6363992166E+01	1.7067141894E+02	1.8052867712E+02	4.1800000000E+00	0.000E+00	0.0
	5	1	9	9	501	0	-9.6740081504E+01	8.3844403211E+00	1.4798785420E+02	1.7705033070E+02	4.1800000000E+00	0.000E+00	0.0
</event>
<event>
    11  -1  1.0000000E+00  1.0000000E+00  -1.0000000E+00  -1.0000000E+00
	2212	-1	0	0	0	0	0.0000000000E+00	0.0000000000E+00	6.5000000000E+03	6.5000000000E+03	9.3827000000E-01	0.000E+00	0.0
	2212	-1	0	0	0	0	0.0000000000E+00	0.0000000000E+00	-6.5000000000E+03	6.5000000000E+03	9.3827000000E-01	0.000E+00	0.0
	2212	1	0	0	0	0	0.0000000000E+00	0.0000000000E+00	6.1664468386E+03	6.1664468386E+03	9.3827000000E-01	0.000E+00	0.0
	2212	1	0	0	0	0	0.0000000000E+00	0.0000000000E+00	-5.6766939979E+03	5.6766939979E+03	9.3827000000E-01	0.000E+00	0.0
	51	2	1	2	0	0	4.9280795376E+01	1.1740701710E+02	-4.2148111232E+02	1.1368045617E+03	1.0480769433E+03	0.000E+00	0.0
	1000022	2	5	5	0	0	-4.9280795376E+01	-1.1740701710E+02	-4.7363690831E+02	9.7757926301E+02	8.4564548724E+02	0.000E+00	0.0
	14	1	6	6	0	0	1.3789989423E+02	1.2576912263E+02	-3.5241656602E+02	5.1444794590E+02	3.2500000000E+02	0.000E+00	0.0
	-14	1	6	6	0	0	-1.8718068961E+02	-2.4317613974E+02	-1.2122034229E+02	4.6313131711E+02	3.2500000000E+02	0.000E+00	0.0
	25	2	5	5	0	0	4.9280795376E+01	1.1740701710E+02	-1.6115932411E+01	1.7927990043E+02	1.2517409861E+02	0.000E+00	0.0
	-5	1	9	9	0	501	-2.1964563766E+01	8.5213313948E+01	-4.0939727413E+01	9.7145687583E+01	4.1800000000E+00	0.000E+00	0.0
	5	1	9	9	501	0	7.1245359141E+01	3.2193703154E+01	2.4823795002E+01	8.2134212849E+01	4.1800000000E+00	0.000E+00	0.0
</event>
<event>
    11  -1  1.0000000E+00  1.0000000E+00  -1.0000000E+00  -1.0000000E+00
	2212	-1	0	0	0	0	0.0000000000E+00	0.0000000000E+00	6.5000000000E+03	6.5000000000E+03	9.3827000000E-01	0.000E+00	0.0
	2212	-1	0	0	0	0	0.0000000000E+00	0.0000000000E+00	-6.5000000000E+03	6.5000000000E+03	9.3827000000E-01	0.000E+00	0.0
	2212	1	0	0	0	0	0.0000000000E+00	0.0000000000E+00	5.9895938905E+03	5.9895938905E+03	9.3827000000E-01	0.000E+00	0.0
	2212	1	0	0	0	0	0.0000000000E+00	0.0000000000E+00	-5.9591105298E+03	5.9591105298E+03	9.3827000000E-01	0.000E+00	0.0
	51	2	1	2	0	0	-6.4328979817E+01	-4.0088276330E+01	-1.5260723828E+02	1.0645785163E+03	1.0508535391E+03	0.000E+00	0.0
	1000022	2	5	5	0	0	6.4328979817E+01	4.0088276330E+01	9.6881282370E+01	8.5727163078E+02	8.4840048239E+02	0.000E+00	0.0
	14	1	6	6	0	0	-6.7267291683E+01	1.4916371274E+02	2.6823740752E+02	4.5205199758E+02	3.2500000000E+02	0.000E+00	0.0
	-14	1	6	6	0	0	1.3159627150E+02	-1.0907543641E+02	-1.7135612515E+02	4.0521963319E+02	3.2500000000E+02	0.000E+00	0.0
	25	2	5	5	0	0	-6.4328979817E+01	-4.0088276330E+01	-1.2736464300E+02	1.9402394896E+02	1.2521283056E+02	0.000E+00	0.0
	-5	1	9	9	0	501	1.1152772475E+01	-5.5331408172E+01	-1.6463219603E+01	5.8944542274E+01	4.1800000000E+00	0.000E+00	0.0
	5	1	9	9	501	0	-7.5481752293E+01	1.5243131842E+01	-1.1090142340E+02	1.3507940668E+02	4.1800000000E+00	0.000E+00	0.0
</event>
<event>
    11  -1  1.0000000E+00  1.0000000E+00  -1.0000000E+00  -1.0000000E+00
	2212	-1	0	0	0	0	0.0000000000E+00	0.0000000000E+00	6.5000000000E+03	6.5000000000E+03	9.3827000000E-01	0.000E+00	0.0
	2212	-1	0	0	0	0	0.0000000000E+00	0.0000000000E+00	-6.5000000000E+03	6.5000000000E+03	9.3827000000E-01	0.000E+00	0.0
	2212	1	0	0	0	0	0.0000000000E+00	0.0000000000E+00	5.6224699222E+03	5.6224699222E+03	9.3827000000E-01	0.000E+00	0.0
	2212	1	0	0	0	0	0.0000000000E+00	0.0000000000E+00	-6.1897889780E+03	6.1897889780E+03	9.3827000000E-01	0.000E+00	0.0
	51	2	1	2	0	0	9.3217864043E+01	1.4728277425E+01	6.8251473309E+02	1.2504442661E+03	1.0434931764E+03	0.000E+00	0.0
	1000022	2	5	5	0	0	-9.3217864043E+01	-1.4728277425E+01	3.5664515415E+02	9.2514439933E+02	8.4840432654E+02	0.000E+00	0.0
	14	1	6	6	0	0	-1.4763570290E+01	1.0363407610E+02	4.4377735011E+02	5.5992974667E+02	3.2500000000E+02	0.000E+00	0.0
	-14	1	6	6	0	0	-7.8454293753E+01	-1.1836235352E+02	-8.7132195963E+01	3.6521465265E+02	3.2500000000E+02	0.000E+00	0.0
	25	2	5	5	0	0	9.3217864043E+01	1.4728277425E+01	2.1067390164E+02	2.6259670055E+02	1.2516805494E+02	0.000E+00	0.0
	-5	1	9	9	0	501	1.1795110368E+02	-4.1523846047E+00	1.2798135944E+02	1.7414478437E+02	4.1800000000E+00	0.000E+00	0.0
	5	1	9	9	501	0	-2.4733239641E+01	1.8880662030E+01	8.2692542193E+01	8.8451916182E+01	4.1800000000E+00	0.000E+00	0.0
</event>
<event>
    11  -1  1.0000000E+00  1.0000000E+00  -1.0000000E+00  -1.0000000E+00
	2212	-1	0	0	0	0	0.0000000000E+00	0.0000000000E+00	6.5000000000E+03	6.5000000000E+03	9.3827000000E-01	0.000E+00	0.0
	2212	-1	0	0	0	0	0.0000000000E+00	0.0000000000E+00	-6.5000000000E+03	6.5000000000E+03	9.3827000000E-01	0.000E+00	0.0
	2212	1	0	0	0	0	0.0000000000E+00	0.0000000000E+00	6.1988579949E+03	6.1988579949E+03	9.3827000000E-01	0.000E+00	0.0
	2212	1	0	0	0	0	0.0000000000E+00	0.0000000000E+00	-5.6032574220E+03	5.6032574220E+03	9.3827000000E-01	0.000E+00	0.0
	51	2	1	2	0	0	5.7860534750E+01	3.0039169658E+01	-7.2501724842E+02	1.2688922869E+03	1.0393206589E+03	0.000E+00	0.0
	1000022	2	5	5	0	0	-5.7860534750E+01	-3.0039169658E+01	-3.6857185854E+02	9.3055746371E+02	8.5196348817E+02	0.000E+00	0.0
	14	1	6	6	0	0	-2.5942030802E+02	-1.5256571652E+02	-1.2245094712E+02	4.5955895000E+02	3.2500000000E+02	0.000E+00	0.0
	-14	1	6	6	0	0	2.0155977327E+02	1.2252654687E+02	-2.4612091142E+02	4.7099851372E+02	3.2500000000E+02	0.000E+00	0.0
	25	2	5	5	0	0	5.7860534750E+01	3.0039169658E+01	-2.2702871434E+02	2.6732711940E+02	1.2518609522E+02	0.000E+00	0.0
	-5	1	9	9	0	501	7.1163436261E+01	6.9337238155E+01	-1.5962494851E+02	1.8806776396E+02	4.1800000000E+00	0.000E+00	0.0
	5	1	9	9	501	0	-1.3302901511E+01	-3.9298068497E+01	-6.7403765833E+01	7.9259355440E+01	4.1800000000E+00	0.000E+00	0.0
</event>
<event>
    11  -1  1.0000000E+00  1.0000000E+00  -1.0000000E+00  -1.0000000E+00
	2212	-1	0	0	0	0	0.0000000000E+00	0.0000000000E+00	6.5000000000E+03	6.5000000000E+03	9.3827000000E-01	0.000E+00	0.0
	2212	-1	0	0	0	0	0.0000000000E+00	0.0000000000E+00	-6.5000000000E+03	6.5000000000E+03	9.3827000000E-01	0.000E+00	0.0
	2212	1	0	0	0	0	0.0000000000E+00	0.0000000000E+00	5.9511617855E+03	5.9511617855E+03	9.3827000000E-01	0.000E+00	0.0
	2212	1	0	0	0	0	0.0000000000E+00	0.0000000000E+00	-6.0008795205E+03	6.0008795205E+03	9.3827000000E-01	0.000E+00	0.0
	51	2	1	2	0	0	7.3377071264E+01	1.1372646698E+02	1.4410770810E+01	1.0555904250E+03	1.0467786639E+03	0.000E+00	0.0
	1000022	2	5	5	0	0	-7.3377071264E+01	-1.1372646698E+02	7.6541556725E+01	8.6151787277E+02	8.4737036255E+02	0.000E+00	0.0
	14	1	6	6	0	0	-5.1991651937E-01	-8.6412056045E+01	-2.3049401889E+02	4.0770063342E+02	3.2500000000E+02	0.000E+00	0.0
	-14	1	6	6	0	0	-7.2857154745E+01	-2.7314410931E+01	3.0703557562E+02	4.5381723936E+02	3.2500000000E+02	0.000E+00	0.0
	25	2	5	5	0	0	7.3377071264E+01	1.1372646698E+02	-2.6823821691E+01	1.8644082122E+02	1.2539042439E+02	0.000E+00	0.0
	-5	1	9	9	0	501	1.0146774594E+02	1.1406019064E+02	-3.5409251154E+01	1.5676963361E+02	4.1800000000E+00	0.000E+00	0.0
	5	1	9	9	501	0	-2.8090674673E+01	-3.3372366318E-01	8.5854294627E+00	2.9671187609E+01	4.1800000000E+00	0.000E+00	0.0
</event>
<event>
    11  -1  1.0000000E+00  1.0000000E+00  -1.0000000E+00  -1.0000000E+00
	2212	-1	0	0	0	0	0.0000000000E+00	0.0000000000E+00	6.5000000000E+03	6.5000000000E+03	9.3827000000E-01	0.000E+00	0.0
	2212	-1	0	0	0	0	0.0000000000E+00	0.0000000000E+00	-6.5000000000E+03	6.5000000000E+03	9.3827000000E-01	0.000E+00	0.0
	2212	1	0	0	0	0	0.0000000000E+00	0.0000000000E+00	6.1682972305E+03	6.1682972305E+03	9.3827000000E-01	0.000E+00	0.0
	2212	1	0	0	0	0	0.0000000000E+00	0.0000000000E+00	-5.6680747606E+03	5.6680747606E+03	9.3827000000E-01	0.000E+00	0.0
	51	2	1	2	0	0	-1.8601652061E+01	-8.5529285358E+01	-4.9054405390E+02	1.1627993689E+03	1.0506224933E+03	0.000E+00	0.0
	1000022	2	5	5	0	0	1.8601652061E+01	8.5529285358E+01	-4.3876918765E+02	9.9898859914E+02	8.9319569025E+02	0.000E+00	0.0
	14	1	6	6	0	0	1.2403753863E+02	2.2681903086E+02	1.2657999110E+01	4.1547251256E+02	3.2500000000E+02	0.000E+00	0.0
	-14	1	6	6	0	0	-1.0543588657E+02	-1.4128974550E+02	-4.5142718676E+02	5.8351608659E+02	3.2500000000E+02	0.000E+00	0.0
	25	2	5	5	0	0	-1.8601652061E+01	-8.5529285358E+01	-6.1453282266E+01	1.6463940967E+02	1.2517327671E+02	0.000E+00	0.0
	-5	1	9	9	0	501	3.1013670303E+01	1.3420860764E+01	6.5287462578E+00	3.4670797179E+01	4.1800000000E+00	0.000E+00	0.0
	5	1	9	9	501	0	-4.9615322365E+01	-9.8950146122E+01	-6.7982028524E+01	1.2996861249E+02	4.1800000000E+00	0.000E+00	0.0
</event>
<event>
    11  -1  1.0000000E+00  1.0000000E+00  -1.0000000E+00  -1.0000000E+00
	2212	-1	0	0	0	0	0.0000000000E+00	0.0000000000E+00	6.5000000000E+03	6.5000000000E+03	9.3827000000E-01	0.000E+00	0.0
	2212	-1	0	0	0	0	0.0000000000E+00	0.0000000000E+00	-6.5000000000E+03	6.5000000000E+03	9.3827000000E-01	0.000E+00	0.0
	2212	1	0	0	0	0	0.0000000000E+00	0.0000000000E+00	6.1280414863E+03	6.1280414863E+03	9.3827000000E-01	0.000E+00	0.0
	2212	1	0	0	0	0	0.0000000000E+00	0.0000000000E+00	-5.7590166887E+03	5.7590166887E+03	9.3827000000E-01	0.000E+00	0.0
	51	2	1	2	0	0	2.9567479635E+02	1.6443361199E+02	-1.9504837205E+01	1.1033143892E+03	1.0499810497E+03	0.000E+00	0.0
	1000022	2	5	5	0	0	-2.9567479635E+02	-1.6443361199E+02	-5.7724477100E+02	6.9642265403E+02	1.9321229113E+02	0.000E+00	0.0
	14	1	6	6	0	0	0.0000000000E+00	0.0000000000E+00	0.0000000000E+00	0.0000000000E+00	0.0000000000E+00	0.000E+00	0.0
	-14	1	6	6	0	0	0.0000000000E+00	0.0000000000E+00	0.0000000000E+00	0.0000000000E+00	0.0000000000E+00	0.000E+00	0.0
	25	2	5	5	0	0	2.9567479635E+02	1.6443361199E+02	2.0821997342E+02	4.1651917102E+02	1.2518252493E+02	0.000E+00	0.0
	-5	1	9	9	0	501	6.6869109276E+01	9.8517309723E+01	9.7217596482E+01	1.5377214168E+02	4.1800000000E+00	0.000E+00	0.0
	5	1	9	9	501	0	2.2880568708E+02	6.5916302267E+01	1.1100237694E+02	2.6274702935E+02	4.1800000000E+00	0.000E+00	0.0
</event>
<event>
    11  -1  1.0000000E+00  1.0000000E+00  -1.0000000E+00  -1.0000000E+00
	2212	-1	0	0	0	0	0.0000000000E+00	0.0000000000E+00	6.5000000000E+03	6.5000000000E+03	9.3827000000E-01	0.000E+00	0.0
	2212	-1	0	0	0	0	0.0000000000E+00	0.0000000000E+00	-6.5000000000E+03	6.5000000000E+03	9.3827000000E-01	0.000E+00	0.0
	2212	1	0	0	0	0	0.0000000000E+00	0.0000000000E+00	6.2484693961E+03	6.2484693961E+03	9.3827000000E-01	0.000E+00	0.0
	2212	1	0	0	0	0	0.0000000000E+00	0.0000000000E+00	-5.4040859156E+03	5.4040859156E+03	9.3827000000E-01	0.000E+00	0.0
	51	2	1	2	0	0	-7.7502763363E+01	9.8813603122E+01	-9.2569347232E+02	1.4054547084E+03	1.0500589155E+03	0.000E+00	0.0
	1000022	2	5	5	0	0	7.7502763363E+01	-9.8813603122E+01	-6.2041423324E+02	1.0617828249E+03	8.5246591714E+02	0.000E+00	0.0
	14	1	6	6	0	0	2.7074620082E+02	-2.0335717490E+02	-3.4205284644E+02	5.8076053206E+02	3.2500000000E+02	0.000E+00	0.0
	-14	1	6	6	0	0	-1.9324343745E+02	1.0454357178E+02	-2.7836138681E+02	4.8102229281E+02	3.2500000000E+02	0.000E+00	0.0
	25	2	5	5	0	0	-7.7502763363E+01	9.8813603122E+01	-2.2396924725E+02	2.8566186351E+02	1.2517855271E+02	0.000E+00	0.0
	-5	1	9	9	0	501	-3.6451862608E+01	1.1313923753E+02	-2.0712739177E+02	2.3884818228E+02	4.1800000000E+00	0.000E+00	0.0
	5	1	9	9	501	0	-4.1050900755E+01	-1.4325634412E+01	-1.6841855478E+01	4.6813681228E+01	4.1800000000E+00	0.000E+00	0.0
</event>
<event>
    11  -1  1.0000000E+00  1.0000000E+00  -1.0000000E+00  -1.0000000E+00
	2212	-1	0	0	0	0	0.0000000000E+00	0.0000000000E+00	6.5000000000E+03	6.5000000000E+03	9.3827000000E-01	0.000E+00	0.0
	2212	-1	0	0	0	0	0.0000000000E+00	0.0000000000E+00	-6.5000000000E+03	6.5000000000E+03	9.3827000000E-01	0.000E+00	0.0
	2212	1	0	0	0	0	0.0000000000E+00	0.0000000000E+00	5.3055268211E+03	5.3055268211E+03	9.3827000000E-01	0.000E+00	0.0
	2212	1	0	0	0	0	0.0000000000E+00	0.0000000000E+00	-6.2717655648E+03	6.2717655648E+03	9.3827000000E-01	0.000E+00	0.0
	51	2	1	2	0	0	-4.9418429818E+01	-1.1428774894E+02	8.9459084414E+02	1.3806796496E+03	1.0442603342E+03	0.000E+00	0.0
	1000022	2	5	5	0	0	4.9418429818E+01	1.1428774894E+02	8.7408147242E+02	1.2235458467E+03	8.4707859597E+02	0.000E+00	0.0
	14	1	6	6	0	0	1.7537637299E+02	2.3340276680E+02	2.6269286108E+02	5.0977079459E+02	3.2500000000E+02	0.000E+00	0.0
	-14	1	6	6	0	0	-1.2595794317E+02	-1.1911501786E+02	6.1138861134E+02	7.1377505210E+02	3.2500000000E+02	0.000E+00	0.0
	25	2	5	5	0	0	-4.9418429818E+01	-1.1428774894E+02	9.2157271206E+01	1.9916176741E+02	1.2517418344E+02	0.000E+00	0.0
	-5	1	9	9	0	501	-5.5816203470E+01	-4.8681168049E+01	-1.2676037300E+01	7.5255956669E+01	4.1800000000E+00	0.000E+00	0.0
	5	1	9	9	501	0	6.3977736521E+00	-6.5606580891E+01	1.0483330851E+02	1.2390581074E+02	4.1800000000E+00	0.000E+00	0.0
</event>
<event>
    11  -1  1.0000000E+00  1.0000000E+00  -1.0000000E+00  -1.0000000E+00
	2212	-1	0	0	0	0	0.0000000000E+00	0.0000000000E+00	6.5000000000E+03	6.5000000000E+03	9.3827000000E-01	0.000E+00	0.0
	2212	-1	0	0	0	0	0.0000000000E+00	0.0000000000E+00	-6.5000000000E+03	6.5000000000E+03	9.3827000000E-01	0.000E+00	0.0
	2212	1	0	0	0	0	0.0000000000E+00	0.0000000000E+00	6.3137232567E+03	6.3137232567E+03	9.3827000000E-01	0.000E+00	0.0
	2212	1	0	0	0	0	0.0000000000E+00	0.0000000000E+00	-4.9705450671E+03	4.9705450671E+03	9.3827000000E-01	0.000E+00	0.0
	51	2	1	2	0	0	-6.3477068615E+01	2.1148510991E+01	-1.6081368216E+03	1.9313695064E+03	1.0675240211E+03	0.000E+00	0.0
	1000022	2	5	5	0	0	6.3477068615E+01	-2.1148510991E+01	-8.3082416047E+02	1.1840790962E+03	8.4101006103E+02	0.000E+00	0.0
	14	1	6	6	0	0	-1.1032108488E+02	-2.3566029520E+02	-3.8307343625E+02	5.6575328021E+02	3.2500000000E+02	0.000E+00	0.0
	-14	1	6	6	0	0	1.7379815350E+02	2.1451178421E+02	-4.4775072422E+02	6.1832581603E+02	3.2500000000E+02	0.000E+00	0.0
	25	2	5	5	0	0	-6.3477068615E+01	2.1148510991E+01	-5.1235402912E+02	5.3165257996E+02	1.2518473096E+02	0.000E+00	0.0
	-5	1	9	9	0	501	-8.4728546024E+01	3.6915286280E+01	-4.8353119159E+02	4.9230229587E+02	4.1800000000E+00	0.000E+00	0.0
	5	1	9	9	501	0	2.1251477410E+01	-1.5766775289E+01	-2.8822837525E+01	3.9350284092E+01	4.1800000000E+00	0.000E+00	0.0
</event>
</LesHouchesEvents>
